<event>
12    2  0.4090627E-002  0.2031739E+03  0.7546771E-02  0.1147169E+00
         21   -1    0    0  501  502  0.00000000000E+00  0.00000000000E+00  0.29810767779E+02  0.29810767779E+02  0.00000000000E+00 0. -1.
         21   -1    0    0  502  503 -0.00000000000E+00 -0.00000000000E+00 -0.15285652890E+04  0.15285652890E+04  0.00000000000E+00 0. -1.
         -6    2    1    2    0  503  0.90111535064E+02  0.51011903188E+02 -0.98994720679E+03  0.10105033365E+04  0.17435371492E+03 0.  0.
        -24    2    3    3    0    0  0.12120546957E+03  0.49777656008E+02 -0.54115226374E+03  0.56060629605E+03  0.65307470745E+02 0.  0.
          6    2    1    2  501    0 -0.90111535064E+02 -0.51011903188E+02 -0.50880731446E+03  0.54787272027E+03  0.17480655408E+03 0.  0.
         24    2    5    5    0    0  0.25920790922E+01 -0.41612804601E+02 -0.36864522373E+03  0.37949871749E+03  0.79885112637E+02 0.  0.
          5    1    5    5  501    0 -0.92703614157E+02 -0.93990985866E+01 -0.14016209073E+03  0.16837400277E+03  0.47000000000E+01 0. -1.
        -15    1    6    6    0    0 -0.26584670794E+02 -0.14922379375E+02 -0.28867783313E+03  0.29028859984E+03  0.17770000000E+01 0.  1.
         16    1    6    6    0    0  0.29176749886E+02 -0.26690425227E+02 -0.79967390597E+02  0.89210117652E+02  0.00000000000E+00 0. -1.
         -5    1    3    3    0  503 -0.31093934505E+02  0.12342471801E+01 -0.44879494305E+03  0.44989704049E+03  0.47000000000E+01 0.  1.
         15    1    4    4    0    0  0.50795890348E+02 -0.67314289465E+01 -0.26982850756E+03  0.27465635954E+03  0.17770000000E+01 0. -1.
        -16    1    4    4    0    0  0.70409579221E+02  0.56509084954E+02 -0.27132375617E+03  0.28594993652E+03  0.00000000000E+00 0.  1.
<mgrwt>
<rscale>  2 0.20307646E+03</rscale>
<asrwt>0</asrwt>
<pdfrwt beam="1">  1       21 0.45862707E-02 0.20317390E+03</pdfrwt>
<pdfrwt beam="2">  1       21 0.23516396E+00 0.20317390E+03</pdfrwt>
<totfact> 0.25133788E+04</totfact>
</mgrwt>
</event>
<event>
12    2  0.4090627E-002  0.1930713E+03  0.7546771E-02  0.1155775E+00
         21   -1    0    0  501  502  0.00000000000E+00  0.00000000000E+00  0.61736796224E+03  0.61736796224E+03  0.00000000000E+00 0. -1.
         21   -1    0    0  502  503 -0.00000000000E+00 -0.00000000000E+00 -0.65856459319E+02  0.65856459319E+02  0.00000000000E+00 0. -1.
         -6    2    1    2    0  503  0.79640586475E+02  0.41001220048E+02  0.17638685098E+03  0.26132986146E+03  0.17075494790E+03 0.  0.
        -24    2    3    3    0    0  0.46040228915E+02  0.18423190709E+02  0.19513862721E+03  0.21646929360E+03  0.79503173581E+02 0.  0.
          6    2    1    2  501    0 -0.79640586475E+02 -0.41001220048E+02  0.37512465193E+03  0.42189456010E+03  0.17103447691E+03 0.  0.
         24    2    5    5    0    0 -0.17227032015E+02 -0.44629943584E+02  0.89785964613E+02  0.12974926081E+03  0.80527937649E+02 0.  0.
          5    1    5    5  501    0 -0.62413554460E+02  0.36287235365E+01  0.28533868732E+03  0.29214529929E+03  0.47000000000E+01 0. -1.
        -15    1    6    6    0    0  0.31815102476E+02 -0.12163323612E+02  0.41015607448E+02  0.53344024690E+02  0.17770000000E+01 0.  1.
         16    1    6    6    0    0 -0.49042134491E+02 -0.32466619972E+02  0.48770357165E+02  0.76405236116E+02  0.00000000000E+00 0. -1.
         -5    1    3    3    0  503  0.33600357560E+02  0.22578029339E+02 -0.18751776224E+02  0.44860567858E+02  0.47000000000E+01 0.  1.
         15    1    4    4    0    0  0.15190013649E+02 -0.30135091978E+02  0.50043114642E+02  0.60384860150E+02  0.17770000000E+01 0. -1.
        -16    1    4    4    0    0  0.30850215266E+02  0.48558282686E+02  0.14509551257E+03  0.15608443345E+03  0.00000000000E+00 0.  1.
<mgrwt>
<rscale>  2 0.19300935E+03</rscale>
<asrwt>0</asrwt>
<pdfrwt beam="1">  1       21 0.94979683E-01 0.19307127E+03</pdfrwt>
<pdfrwt beam="2">  1       21 0.10131763E-01 0.19307127E+03</pdfrwt>
<totfact> 0.73477152E+04</totfact>
</mgrwt>
</event>
<event>
12    2  0.4090627E-002  0.2451235E+03  0.7546771E-02  0.1116571E+00
         21   -1    0    0  501  502  0.00000000000E+00  0.00000000000E+00  0.15478751406E+03  0.15478751406E+03  0.00000000000E+00 0.  1.
         21   -1    0    0  502  503 -0.00000000000E+00 -0.00000000000E+00 -0.39584110765E+03  0.39584110765E+03  0.00000000000E+00 0. -1.
         -6    2    1    2    0  503 -0.14848482720E+03 -0.86968648013E+02 -0.16242307531E+03  0.29405233219E+03  0.17456869429E+03 0.  0.
        -24    2    3    3    0    0 -0.94997132568E+02 -0.92499241621E+02 -0.18008381035E+03  0.23725873655E+03  0.79252535753E+02 0.  0.
          6    2    1    2  501    0  0.14848482720E+03  0.86968648013E+02 -0.78630518286E+02  0.25657628952E+03  0.17331285092E+03 0.  0.
         24    2    5    5    0    0  0.11724605366E+03  0.17237120815E+02 -0.10389422873E+03  0.17596182480E+03  0.78261086049E+02 0.  0.
          5    1    5    5  501    0  0.31238773543E+02  0.69731527198E+02  0.25263710445E+02  0.80614464727E+02  0.47000000000E+01 0. -1.
        -15    1    6    6    0    0  0.86486167619E+00 -0.19739172936E+02 -0.16387946196E+02  0.25731409667E+02  0.17770000000E+01 0.  1.
         16    1    6    6    0    0  0.11638119198E+03  0.36976293751E+02 -0.87506282535E+02  0.15023041513E+03  0.00000000000E+00 0. -1.
         -5    1    3    3    0  503 -0.53487694633E+02  0.55305936079E+01  0.17660735044E+02  0.56793595635E+02  0.47000000000E+01 0.  1.
         15    1    4    4    0    0 -0.27932893396E+02 -0.74564797285E+02 -0.12683380895E+03  0.14976691340E+03  0.17770000000E+01 0. -1.
        -16    1    4    4    0    0 -0.67064239173E+02 -0.17934444336E+02 -0.53250001404E+02  0.87491823155E+02  0.00000000000E+00 0.  1.
<mgrwt>
<rscale>  2 0.24489998E+03</rscale>
<asrwt>0</asrwt>
<pdfrwt beam="1">  1       21 0.23813464E-01 0.24512348E+03</pdfrwt>
<pdfrwt beam="2">  1       21 0.60898631E-01 0.24512348E+03</pdfrwt>
<totfact> 0.40676130E+04</totfact>
</mgrwt>
</event>
<event>
12    2  0.4090627E-002  0.2240645E+03  0.7546771E-02  0.1131045E+00
         21   -1    0    0  501  502  0.00000000000E+00  0.00000000000E+00  0.47286622338E+03  0.47286622338E+03  0.00000000000E+00 0.  1.
         21   -1    0    0  502  503 -0.00000000000E+00 -0.00000000000E+00 -0.15644430443E+03  0.15644430443E+03  0.00000000000E+00 0.  1.
         -6    2    1    2    0  503  0.98509642059E+02  0.10286046610E+03 -0.20672150402E+02  0.22501612398E+03  0.17297541208E+03 0.  0.
        -24    2    3    3    0    0 -0.10253852012E+02  0.69068685573E+02  0.12711291191E+02  0.10623933228E+03  0.79054373647E+02 0.  0.
          6    2    1    2  501    0 -0.98509642059E+02 -0.10286046610E+03  0.33709406935E+03  0.40429440382E+03  0.17186369105E+03 0.  0.
         24    2    5    5    0    0 -0.79003722475E+02 -0.29232728092E+02  0.29783442494E+03  0.31847520793E+03  0.74999818878E+02 0.  0.
          5    1    5    5  501    0 -0.19505919584E+02 -0.73627738010E+02  0.39259644413E+02  0.85819195888E+02  0.47000000000E+01 0. -1.
        -15    1    6    6    0    0 -0.35463835775E+02 -0.52490269226E+02  0.16255586725E+03  0.17447200267E+03  0.17770000000E+01 0.  1.
         16    1    6    6    0    0 -0.43539886700E+02  0.23257541135E+02  0.13527855769E+03  0.14400320526E+03  0.00000000000E+00 0. -1.
         -5    1    3    3    0  503  0.10876349407E+03  0.33791780529E+02 -0.33383441593E+02  0.11877679170E+03  0.47000000000E+01 0.  1.
         15    1    4    4    0    0 -0.35208744986E+02  0.82789640828E+01 -0.84839088831E+01  0.37193163468E+02  0.17770000000E+01 0. -1.
        -16    1    4    4    0    0  0.24954892974E+02  0.60789721490E+02  0.21195200074E+02  0.69046168817E+02  0.00000000000E+00 0.  1.
<mgrwt>
<rscale>  2 0.22384995E+03</rscale>
<asrwt>0</asrwt>
<pdfrwt beam="1">  1       21 0.72748649E-01 0.22406454E+03</pdfrwt>
<pdfrwt beam="2">  1       21 0.24068355E-01 0.22406454E+03</pdfrwt>
<totfact> 0.27235206E+04</totfact>
</mgrwt>
</event>
<event>
12    2  0.4090627E-002  0.2227590E+03  0.7546771E-02  0.1132011E+00
         21   -1    0    0  503  502  0.00000000000E+00  0.00000000000E+00  0.42624776675E+03  0.42624776675E+03  0.00000000000E+00 0. -1.
         21   -1    0    0  501  503 -0.00000000000E+00 -0.00000000000E+00 -0.50782846622E+03  0.50782846622E+03  0.00000000000E+00 0.  1.
          6    2    1    2  501    0  0.90739942615E+02  0.10662158064E+03 -0.45104767883E+03  0.50265134503E+03  0.17208273426E+03 0.  0.
         24    2    3    3    0    0 -0.10120252253E+02  0.82684649602E+02 -0.24328787384E+03  0.27041874148E+03  0.83654858815E+02 0.  0.
         -6    2    1    2    0  502 -0.90739942615E+02 -0.10662158064E+03  0.36946697936E+03  0.43142488795E+03  0.17326190135E+03 0.  0.
        -24    2    5    5    0    0  0.13601877129E+02 -0.34473565399E+02  0.10309801307E+03  0.13635359546E+03  0.81176751115E+02 0.  0.
          5    1    3    3  501    0  0.10086019487E+03  0.23936931043E+02 -0.20775980499E+03  0.23223260354E+03  0.47000000000E+01 0. -1.
        -15    1    4    4    0    0  0.56634562329E+01  0.95445846609E+02 -0.17818503057E+03  0.20222523883E+03  0.17770000000E+01 0.  1.
         16    1    4    4    0    0 -0.15783708486E+02 -0.12761197007E+02 -0.65102843272E+02  0.68193502657E+02  0.00000000000E+00 0. -1.
         -5    1    5    5    0  502 -0.10434181974E+03 -0.72148015246E+02  0.26636896629E+03  0.29507129249E+03  0.47000000000E+01 0.  1.
         15    1    6    6    0    0 -0.58056565895E+01 -0.54665257931E+02  0.89906320946E+02  0.10539592188E+03  0.17770000000E+01 0. -1.
        -16    1    6    6    0    0  0.19407533718E+02  0.20191692532E+02  0.13191692127E+02  0.30957673580E+02  0.00000000000E+00 0.  1.
<mgrwt>
<rscale>  2 0.22252970E+03</rscale>
<asrwt>0</asrwt>
<pdfrwt beam="1">  1       21 0.65576580E-01 0.22275903E+03</pdfrwt>
<pdfrwt beam="2">  1       21 0.78127456E-01 0.22275903E+03</pdfrwt>
<totfact> 0.30269644E+03</totfact>
</mgrwt>
</event>
<event>
12    2  0.4090627E-002  0.2328808E+03  0.7546771E-02  0.1124735E+00
         21   -1    0    0  503  502  0.00000000000E+00  0.00000000000E+00  0.45993075215E+03  0.45993075215E+03  0.00000000000E+00 0. -1.
         21   -1    0    0  501  503 -0.00000000000E+00 -0.00000000000E+00 -0.15342141335E+03  0.15342141335E+03  0.00000000000E+00 0. -1.
          6    2    1    2  501    0  0.88450897685E+02  0.12680448893E+03  0.30158369899E+03  0.38103305294E+03  0.17415659683E+03 0.  0.
         24    2    3    3    0    0  0.88349565492E+02  0.15200280037E+03  0.29784742923E+03  0.35512909805E+03  0.80579700526E+02 0.  0.
         -6    2    1    2    0  502 -0.88450897685E+02 -0.12680448893E+03  0.49256398149E+01  0.23231911257E+03  0.17333484480E+03 0.  0.
        -24    2    5    5    0    0 -0.10277684926E+03 -0.28802063025E+02  0.30315041885E+01  0.13314559734E+03  0.79535655496E+02 0.  0.
          5    1    3    3  501    0  0.10133219375E+00 -0.25198311433E+02  0.37362697563E+01  0.25903954891E+02  0.47000000000E+01 0. -1.
        -15    1    4    4    0    0  0.22778514873E+02  0.10887501135E+03  0.20760660975E+03  0.23553405482E+03  0.17770000000E+01 0.  1.
         16    1    4    4    0    0  0.65571050619E+02  0.43127789014E+02  0.90240819481E+02  0.11959504323E+03  0.00000000000E+00 0. -1.
         -5    1    5    5    0  502  0.14325951572E+02 -0.98002425910E+02  0.18941356263E+01  0.99173515227E+02  0.47000000000E+01 0.  1.
         15    1    6    6    0    0 -0.26784157778E+02 -0.40016602001E+02  0.23555568996E+02  0.53635269211E+02  0.17770000000E+01 0. -1.
        -16    1    6    6    0    0 -0.75992691480E+02  0.11214538976E+02 -0.20524064808E+02  0.79510328128E+02  0.00000000000E+00 0.  1.
<mgrwt>
<rscale>  2 0.23272716E+03</rscale>
<asrwt>0</asrwt>
<pdfrwt beam="1">  1       21 0.70758577E-01 0.23288078E+03</pdfrwt>
<pdfrwt beam="2">  1       21 0.23603295E-01 0.23288078E+03</pdfrwt>
<totfact> 0.29935425E+04</totfact>
</mgrwt>
</event>
<event>
12    2  0.4090627E-002  0.1790470E+03  0.7546771E-02  0.1168865E+00
         21   -1    0    0  503  502  0.00000000000E+00  0.00000000000E+00  0.22139180884E+04  0.22139180884E+04  0.00000000000E+00 0.  1.
         21   -1    0    0  501  503 -0.00000000000E+00 -0.00000000000E+00 -0.21149967655E+02  0.21149967655E+02  0.00000000000E+00 0.  1.
          6    2    1    2  501    0  0.28505011905E+02 -0.36772971986E+02  0.46785758889E+03  0.50094764339E+03  0.17289601142E+03 0.  0.
         24    2    3    3    0    0  0.32950936441E+02 -0.98710907661E+01  0.46561584753E+03  0.47318808896E+03  0.76978226887E+02 0.  0.
         -6    2    1    2    0  502 -0.28505011905E+02  0.36772971986E+02  0.17249105318E+04  0.17341204126E+04  0.17231504735E+03 0.  0.
        -24    2    5    5    0    0 -0.13826176203E+02 -0.39837974290E+02  0.11775779703E+04  0.11812373073E+04  0.82785702719E+02 0.  0.
          5    1    3    3  501    0 -0.44459245367E+01 -0.26901881220E+02  0.22417413637E+01  0.27759554436E+02  0.47000000000E+01 0. -1.
        -15    1    4    4    0    0 -0.10734866464E+02 -0.14662536474E+01  0.84284686730E+01  0.13841389776E+02  0.17770000000E+01 0.  1.
         16    1    4    4    0    0  0.43685802906E+02 -0.84048371188E+01  0.45718737886E+03  0.45934669918E+03  0.00000000000E+00 0. -1.
         -5    1    5    5    0  502 -0.14678835702E+02  0.76610946276E+02  0.54733256150E+03  0.55288310535E+03  0.47000000000E+01 0.  1.
         15    1    6    6    0    0  0.31931802301E+02 -0.33745178695E+02  0.54733759946E+03  0.54930864056E+03  0.17770000000E+01 0. -1.
        -16    1    6    6    0    0 -0.45757978503E+02 -0.60927955943E+01  0.63024037086E+03  0.63192866672E+03  0.00000000000E+00 0.  1.
<mgrwt>
<rscale>  2 0.17890657E+03</rscale>
<asrwt>0</asrwt>
<pdfrwt beam="1">  1       21 0.34060260E+00 0.17904697E+03</pdfrwt>
<pdfrwt beam="2">  1       21 0.32538429E-02 0.17904697E+03</pdfrwt>
<totfact> 0.11164352E+04</totfact>
</mgrwt>
</event>
<event>
12    2  0.4090627E-002  0.2159588E+03  0.7546771E-02  0.1136970E+00
         21   -1    0    0  501  502  0.00000000000E+00  0.00000000000E+00  0.15914342296E+03  0.15914342296E+03  0.00000000000E+00 0.  1.
         21   -1    0    0  502  503 -0.00000000000E+00 -0.00000000000E+00 -0.42137321643E+03  0.42137321643E+03  0.00000000000E+00 0. -1.
         -6    2    1    2    0  503  0.17396901051E+02 -0.12932502237E+03 -0.29141337142E+03  0.36259486776E+03  0.17183035675E+03 0.  0.
        -24    2    3    3    0    0  0.35864447619E+02 -0.36868443536E+02 -0.53471628567E+02  0.10661121156E+03  0.76558439359E+02 0.  0.
          6    2    1    2  501    0 -0.17396901051E+02  0.12932502237E+03  0.29183577958E+02  0.21792177164E+03  0.17207731912E+03 0.  0.
         24    2    5    5    0    0  0.13753443114E+02  0.98367475774E+02  0.79130295016E+02  0.15124735243E+03  0.82151327069E+02 0.  0.
          5    1    5    5  501    0 -0.31150344165E+02  0.30957546592E+02 -0.49946717058E+02  0.66674419213E+02  0.47000000000E+01 0. -1.
        -15    1    6    6    0    0 -0.71272845142E+01 -0.84221723073E+01 -0.63693431917E+01  0.12863025795E+02  0.17770000000E+01 0.  1.
         16    1    6    6    0    0  0.20880727628E+02  0.10678964808E+03  0.85499638208E+02  0.13838432663E+03  0.00000000000E+00 0. -1.
         -5    1    3    3    0  503 -0.18467546568E+02 -0.92456578830E+02 -0.23794174286E+03  0.25598365620E+03  0.47000000000E+01 0.  1.
         15    1    4    4    0    0  0.52645164858E+02 -0.15419778579E+01 -0.35710844736E+02  0.63657782237E+02  0.17770000000E+01 0. -1.
        -16    1    4    4    0    0 -0.16780717239E+02 -0.35326465678E+02 -0.17760783831E+02  0.42953429323E+02  0.00000000000E+00 0.  1.
<mgrwt>
<rscale>  2 0.21590963E+03</rscale>
<asrwt>0</asrwt>
<pdfrwt beam="1">  1       21 0.24483604E-01 0.21595883E+03</pdfrwt>
<pdfrwt beam="2">  1       21 0.64826649E-01 0.21595883E+03</pdfrwt>
<totfact> 0.34131189E+04</totfact>
</mgrwt>
</event>
<event>
12    2  0.4090627E-002  0.1774470E+03  0.7546771E-02  0.1171373E+00
         21   -1    0    0  503  502  0.00000000000E+00  0.00000000000E+00  0.14309173482E+04  0.14309173482E+04  0.00000000000E+00 0. -1.
         21   -1    0    0  501  503 -0.00000000000E+00 -0.00000000000E+00 -0.56603845871E+02  0.56603845871E+02  0.00000000000E+00 0. -1.
          6    2    1    2  501    0 -0.30926464457E+01  0.21625903556E+02  0.10444400875E+03  0.20590282947E+03  0.17609707565E+03 0.  0.
         24    2    3    3    0    0 -0.75133969891E+01  0.79427281552E+02  0.91889890630E+02  0.14640292850E+03  0.81393619433E+02 0.  0.
         -6    2    1    2    0  502  0.30926464457E+01 -0.21625903556E+02  0.12698694935E+04  0.12816183646E+04  0.17175522584E+03 0.  0.
        -24    2    5    5    0    0  0.67586256446E+02 -0.70813024046E+00  0.76599665638E+03  0.77318262133E+03  0.80573474753E+02 0.  0.
          5    1    3    3  501    0  0.44207505434E+01 -0.57801377996E+02  0.12554118125E+02  0.59499900971E+02  0.47000000000E+01 0. -1.
        -15    1    4    4    0    0 -0.43641810878E+02  0.31648940320E+02  0.47098198561E+02  0.71607688950E+02  0.17770000000E+01 0.  1.
         16    1    4    4    0    0  0.36128413889E+02  0.47778341232E+02  0.44791692069E+02  0.74795239550E+02  0.00000000000E+00 0. -1.
         -5    1    5    5    0  502 -0.64493610000E+02 -0.20917773315E+02  0.50387283716E+03  0.50843574324E+03  0.47000000000E+01 0.  1.
         15    1    6    6    0    0  0.43182093337E+02  0.18726623350E+02  0.68124581941E+03  0.68287217237E+03  0.17770000000E+01 0. -1.
        -16    1    6    6    0    0  0.24404163109E+02 -0.19434753590E+02  0.84750836976E+02  0.90310448966E+02  0.00000000000E+00 0.  1.
<mgrwt>
<rscale>  2 0.17636002E+03</rscale>
<asrwt>0</asrwt>
<pdfrwt beam="1">  1       21 0.22014110E+00 0.17744696E+03</pdfrwt>
<pdfrwt beam="2">  1       21 0.87082851E-02 0.17744696E+03</pdfrwt>
<totfact> 0.10533667E+04</totfact>
</mgrwt>
</event>
<event>
12    2  0.4090627E-002  0.2266082E+03  0.7546771E-02  0.1129164E+00
         21   -1    0    0  501  502  0.00000000000E+00  0.00000000000E+00  0.33584798208E+03  0.33584798208E+03  0.00000000000E+00 0.  1.
         21   -1    0    0  502  503 -0.00000000000E+00 -0.00000000000E+00 -0.27141721786E+03  0.27141721786E+03  0.00000000000E+00 0. -1.
         -6    2    1    2    0  503  0.13705467120E+03 -0.55943582629E+02 -0.16881266927E+03  0.28206715612E+03  0.17073516310E+03 0.  0.
        -24    2    3    3    0    0  0.11761075487E+03  0.46484262449E+01 -0.16620860328E+03  0.21820536330E+03  0.78322303609E+02 0.  0.
          6    2    1    2  501    0 -0.13705467120E+03  0.55943582629E+02  0.23324343349E+03  0.32519804382E+03  0.17157389400E+03 0.  0.
         24    2    5    5    0    0  0.10479327824E+02  0.13390995276E+02  0.93206583236E+02  0.11732930402E+03  0.69206671329E+02 0.  0.
          5    1    5    5  501    0 -0.14753399902E+03  0.42552587353E+02  0.14003685026E+03  0.20786873980E+03  0.47000000000E+01 0. -1.
        -15    1    6    6    0    0  0.10828075971E+02  0.36401570933E+02  0.84615937833E+02  0.92764951679E+02  0.17770000000E+01 0.  1.
         16    1    6    6    0    0 -0.34874814705E+00 -0.23010575657E+02  0.85906454031E+01  0.24564352338E+02  0.00000000000E+00 0. -1.
         -5    1    3    3    0  503  0.19443916324E+02 -0.60592008874E+02 -0.26040659954E+01  0.63861792812E+02  0.47000000000E+01 0.  1.
         15    1    4    4    0    0  0.50369993213E+02  0.40317426006E+02 -0.65366539111E+02  0.91861707041E+02  0.17770000000E+01 0. -1.
        -16    1    4    4    0    0  0.67240761660E+02 -0.35668999761E+02 -0.10084206417E+03  0.12634365626E+03  0.00000000000E+00 0.  1.
<mgrwt>
<rscale>  2 0.22644942E+03</rscale>
<asrwt>0</asrwt>
<pdfrwt beam="1">  1       21 0.51668920E-01 0.22660818E+03</pdfrwt>
<pdfrwt beam="2">  1       21 0.41756495E-01 0.22660818E+03</pdfrwt>
<totfact> 0.19260152E+04</totfact>
</mgrwt>
</event>
<event>
12    2  0.4090627E-002  0.1848163E+03  0.7546771E-02  0.1163342E+00
         21   -1    0    0  501  502  0.00000000000E+00  0.00000000000E+00  0.67668437699E+03  0.67668437699E+03  0.00000000000E+00 0. -1.
         21   -1    0    0  502  503 -0.00000000000E+00 -0.00000000000E+00 -0.34233143087E+03  0.34233143087E+03  0.00000000000E+00 0. -1.
         -6    2    1    2    0  503  0.58991562978E+02  0.20034199357E+02 -0.30334947887E+03  0.35521539603E+03  0.17399913103E+03 0.  0.
        -24    2    3    3    0    0  0.33457381176E+01  0.93609333115E+01 -0.28341467420E+03  0.29496705273E+03  0.81134848326E+02 0.  0.
          6    2    1    2  501    0 -0.58991562978E+02 -0.20034199357E+02  0.63770242499E+03  0.66380041183E+03  0.17345094484E+03 0.  0.
         24    2    5    5    0    0 -0.63064434191E+02  0.50041432400E+02  0.39858545819E+03  0.41454914051E+03  0.80618574775E+02 0.  0.
          5    1    5    5  501    0  0.40728712126E+01 -0.70075631757E+02  0.23911696679E+03  0.24925127132E+03  0.47000000000E+01 0. -1.
        -15    1    6    6    0    0  0.19265264735E+02  0.13994990455E+02  0.93506550967E+02  0.96507217274E+02  0.17770000000E+01 0.  1.
         16    1    6    6    0    0 -0.82329698926E+02  0.36046441945E+02  0.30507890723E+03  0.31804192324E+03  0.00000000000E+00 0. -1.
         -5    1    3    3    0  503  0.55645824861E+02  0.10673266045E+02 -0.19934804673E+02  0.60248343296E+02  0.47000000000E+01 0.  1.
         15    1    4    4    0    0 -0.18852753129E+01 -0.32310001946E+02 -0.18720232701E+03  0.18998778764E+03  0.17770000000E+01 0. -1.
        -16    1    4    4    0    0  0.52310134305E+01  0.41670935258E+02 -0.96212347191E+02  0.10497926509E+03  0.00000000000E+00 0.  1.
<mgrwt>
<rscale>  2 0.18468718E+03</rscale>
<asrwt>0</asrwt>
<pdfrwt beam="1">  1       21 0.10410529E+00 0.18481632E+03</pdfrwt>
<pdfrwt beam="2">  1       21 0.52666374E-01 0.18481632E+03</pdfrwt>
<totfact> 0.25667717E+03</totfact>
</mgrwt>
</event>
<event>
12    2  0.4090627E-002  0.1913250E+03  0.7546771E-02  0.1157313E+00
         21   -1    0    0  501  502  0.00000000000E+00  0.00000000000E+00  0.12207014429E+04  0.12207014429E+04  0.00000000000E+00 0.  1.
         21   -1    0    0  502  503 -0.00000000000E+00 -0.00000000000E+00 -0.88114439405E+02  0.88114439405E+02  0.00000000000E+00 0.  1.
         -6    2    1    2    0  503  0.64567197735E+02 -0.49032753599E+02  0.34739026945E+02  0.19445324852E+03  0.17329781280E+03 0.  0.
        -24    2    3    3    0    0 -0.31585590372E+02 -0.50364236096E+01  0.20644174933E+02  0.87674081237E+02  0.78978145585E+02 0.  0.
          6    2    1    2  501    0 -0.64567197735E+02  0.49032753599E+02  0.10978479765E+04  0.11143626337E+04  0.17309178491E+03 0.  0.
         24    2    5    5    0    0 -0.83041127854E+02 -0.69349412771E+01  0.46715331543E+03  0.48090267883E+03  0.78046422475E+02 0.  0.
          5    1    5    5  501    0  0.18473930119E+02  0.55967694876E+02  0.63069466108E+03  0.63345995492E+03  0.47000000000E+01 0. -1.
        -15    1    6    6    0    0 -0.69635794503E+02  0.28010115035E+02  0.34810194622E+03  0.35610649125E+03  0.17770000000E+01 0.  1.
         16    1    6    6    0    0 -0.13405333351E+02 -0.34945056312E+02  0.11905136921E+03  0.12479618757E+03  0.00000000000E+00 0. -1.
         -5    1    3    3    0  503  0.96152788108E+02 -0.43996329989E+02  0.14094852012E+02  0.10677916729E+03  0.47000000000E+01 0.  1.
         15    1    4    4    0    0 -0.15340388938E+02  0.36965884383E+02  0.74722458497E+01  0.40752868954E+02  0.17770000000E+01 0. -1.
        -16    1    4    4    0    0 -0.16245201435E+02 -0.42002307992E+02  0.13171929084E+02  0.46921212283E+02  0.00000000000E+00 0.  1.
<mgrwt>
<rscale>  2 0.19127836E+03</rscale>
<asrwt>0</asrwt>
<pdfrwt beam="1">  1       21 0.18780021E+00 0.19132503E+03</pdfrwt>
<pdfrwt beam="2">  1       21 0.13556068E-01 0.19132503E+03</pdfrwt>
<totfact> 0.76103447E+03</totfact>
</mgrwt>
</event>
<event>
12    2  0.4090627E-002  0.2065631E+03  0.7546771E-02  0.1144435E+00
         21   -1    0    0  503  502  0.00000000000E+00  0.00000000000E+00  0.10360778860E+03  0.10360778860E+03  0.00000000000E+00 0. -1.
         21   -1    0    0  501  503 -0.00000000000E+00 -0.00000000000E+00 -0.46626475743E+03  0.46626475743E+03  0.00000000000E+00 0.  1.
          6    2    1    2  501    0  0.60943537471E+02 -0.93278634709E+02 -0.27949684648E+03  0.34719804329E+03  0.17324253410E+03 0.  0.
         24    2    3    3    0    0  0.71814745535E+01 -0.34896659188E+01 -0.19276636513E+03  0.21119552596E+03  0.85912323423E+02 0.  0.
         -6    2    1    2    0  502 -0.60943537471E+02  0.93278634709E+02 -0.83160122354E+02  0.22267450273E+03  0.17393478595E+03 0.  0.
        -24    2    5    5    0    0  0.19636478005E+02  0.42933994461E+02 -0.16399817258E+01  0.97393438626E+02  0.85169672997E+02 0.  0.
          5    1    3    3  501    0  0.53762062917E+02 -0.89788968790E+02 -0.86730481346E+02  0.13600251733E+03  0.47000000000E+01 0. -1.
        -15    1    4    4    0    0  0.15045434668E+02  0.33150367549E+02 -0.14985719329E+03  0.15422596436E+03  0.17770000000E+01 0.  1.
         16    1    4    4    0    0 -0.78639601140E+01 -0.36640033467E+02 -0.42909171841E+02  0.56969561603E+02  0.00000000000E+00 0. -1.
         -5    1    5    5    0  502 -0.80580015476E+02  0.50344640248E+02 -0.81520140628E+02  0.12528106411E+03  0.47000000000E+01 0.  1.
         15    1    6    6    0    0  0.47505382751E+02  0.16474718621E+01 -0.67827852361E+00  0.47571980667E+02  0.17770000000E+01 0. -1.
        -16    1    6    6    0    0 -0.27868904746E+02  0.41286522599E+02 -0.96170320222E+00  0.49821457959E+02  0.00000000000E+00 0.  1.
<mgrwt>
<rscale>  2 0.20641734E+03</rscale>
<asrwt>0</asrwt>
<pdfrwt beam="1">  1       21 0.15939660E-01 0.20656313E+03</pdfrwt>
<pdfrwt beam="2">  1       21 0.71733041E-01 0.20656313E+03</pdfrwt>
<totfact> 0.61231991E+04</totfact>
</mgrwt>
</event>
<event>
12    2  0.4090627E-002  0.2042175E+03  0.7546771E-02  0.1146493E+00
         21   -1    0    0  501  502  0.00000000000E+00  0.00000000000E+00  0.59774822744E+02  0.59774822744E+02  0.00000000000E+00 0. -1.
         21   -1    0    0  502  503 -0.00000000000E+00 -0.00000000000E+00 -0.71082824776E+03  0.71082824776E+03  0.00000000000E+00 0. -1.
         -6    2    1    2    0  503  0.55612854560E+02 -0.89948642005E+02 -0.38699453295E+03  0.43757236210E+03  0.17470333641E+03 0.  0.
        -24    2    3    3    0    0  0.38531248884E+02 -0.10135765274E+03 -0.14874770797E+03  0.19839546859E+03  0.74005745875E+02 0.  0.
          6    2    1    2  501    0 -0.55612854560E+02  0.89948642005E+02 -0.26405889207E+03  0.33303070840E+03  0.17320163529E+03 0.  0.
         24    2    5    5    0    0 -0.16899766125E+01  0.11974224584E+02 -0.41013721633E+02  0.90628306200E+02  0.79906986222E+02 0.  0.
          5    1    5    5  501    0 -0.53922877947E+02  0.77974417421E+02 -0.22304517044E+03  0.24240240220E+03  0.47000000000E+01 0. -1.
        -15    1    6    6    0    0 -0.23056970826E+02  0.18104208705E+02  0.13076417922E+02  0.32148665776E+02  0.17770000000E+01 0.  1.
         16    1    6    6    0    0  0.21366994214E+02 -0.61299841207E+01 -0.54090139555E+02  0.58479640424E+02  0.00000000000E+00 0. -1.
         -5    1    3    3    0  503  0.17081605676E+02  0.11409010732E+02 -0.23824682497E+03  0.23917689351E+03  0.47000000000E+01 0.  1.
         15    1    4    4    0    0  0.36574838435E+02 -0.47574490202E+02 -0.12676081766E+03  0.14025873787E+03  0.17770000000E+01 0. -1.
        -16    1    4    4    0    0  0.19564104489E+01 -0.53783162535E+02 -0.21986890310E+02  0.58136730727E+02  0.00000000000E+00 0.  1.
<mgrwt>
<rscale>  2 0.20389599E+03</rscale>
<asrwt>0</asrwt>
<pdfrwt beam="1">  1       21 0.91961259E-02 0.20421754E+03</pdfrwt>
<pdfrwt beam="2">  1       21 0.10935820E+00 0.20421754E+03</pdfrwt>
<totfact> 0.61946704E+04</totfact>
</mgrwt>
</event>
<event>
12    2  0.4090627E-002  0.1759061E+03  0.7546771E-02  0.1171861E+00
         21   -1    0    0  501  502  0.00000000000E+00  0.00000000000E+00  0.13515483789E+04  0.13515483789E+04  0.00000000000E+00 0.  1.
         21   -1    0    0  502  503 -0.00000000000E+00 -0.00000000000E+00 -0.25852798322E+02  0.25852798322E+02  0.00000000000E+00 0.  1.
         -6    2    1    2    0  503  0.16242704268E+02 -0.30384489150E+02  0.42888508646E+03  0.46350183106E+03  0.17234989812E+03 0.  0.
        -24    2    3    3    0    0  0.38209716534E+02 -0.82468690168E+02  0.27073222045E+03  0.29548477046E+03  0.75856753755E+02 0.  0.
          6    2    1    2  501    0 -0.16242704268E+02  0.30384489150E+02  0.89681049413E+03  0.91389934618E+03  0.17249901431E+03 0.  0.
         24    2    5    5    0    0  0.65994257733E+01  0.27854942393E+02  0.19115183295E+03  0.20785090760E+03  0.76442961192E+02 0.  0.
          5    1    5    5  501    0 -0.22842130042E+02  0.25295467566E+01  0.70565866118E+03  0.70604843858E+03  0.47000000000E+01 0. -1.
        -15    1    6    6    0    0 -0.26712334547E+02  0.96964987108E+01  0.26542583046E+02  0.38926049734E+02  0.17770000000E+01 0.  1.
         16    1    6    6    0    0  0.33311760320E+02  0.18158443682E+02  0.16460924990E+03  0.16892485787E+03  0.00000000000E+00 0. -1.
         -5    1    3    3    0  503 -0.21967012265E+02  0.52084201018E+02  0.15815286601E+03  0.16801706060E+03  0.47000000000E+01 0.  1.
         15    1    4    4    0    0 -0.56775106118E+01  0.48837464113E+01  0.56806499690E-01  0.76971463372E+01  0.17770000000E+01 0. -1.
        -16    1    4    4    0    0  0.43887227146E+02 -0.87352436579E+02  0.27067541395E+03  0.28778762413E+03  0.00000000000E+00 0.  1.
<mgrwt>
<rscale>  2 0.17586952E+03</rscale>
<asrwt>0</asrwt>
<pdfrwt beam="1">  1       21 0.20793046E+00 0.17590609E+03</pdfrwt>
<pdfrwt beam="2">  1       21 0.39773546E-02 0.17590609E+03</pdfrwt>
<totfact> 0.47847753E+04</totfact>
</mgrwt>
</event>
<event>
12    2  0.4090627E-002  0.1862330E+03  0.7546771E-02  0.1161908E+00
         21   -1    0    0  501  502  0.00000000000E+00  0.00000000000E+00  0.15895175266E+03  0.15895175266E+03  0.00000000000E+00 0.  1.
         21   -1    0    0  502  503 -0.00000000000E+00 -0.00000000000E+00 -0.31679044766E+03  0.31679044766E+03  0.00000000000E+00 0. -1.
         -6    2    1    2    0  503  0.62376338770E+02 -0.26307451519E+02 -0.21163390491E+03  0.28189517180E+03  0.17347359606E+03 0.  0.
        -24    2    3    3    0    0  0.43355578698E+02  0.15321244779E+02 -0.21724630608E+03  0.23554512631E+03  0.78556363716E+02 0.  0.
          6    2    1    2  501    0 -0.62376338770E+02  0.26307451519E+02  0.53795209903E+02  0.19384702853E+03  0.17349310135E+03 0.  0.
         24    2    5    5    0    0 -0.48709748369E+02 -0.51350613929E+02  0.23641920757E+02  0.10929608727E+03  0.79857179623E+02 0.  0.
          5    1    5    5  501    0 -0.13666590400E+02  0.77658065448E+02  0.30153289146E+02  0.84550941264E+02  0.47000000000E+01 0. -1.
        -15    1    6    6    0    0  0.13786308233E+02 -0.18560692607E+02  0.30582601514E+02  0.38379875575E+02  0.17770000000E+01 0.  1.
         16    1    6    6    0    0 -0.62496056603E+02 -0.32789921321E+02 -0.69406807567E+01  0.70916211691E+02  0.00000000000E+00 0. -1.
         -5    1    3    3    0  503  0.19020760072E+02 -0.41628696298E+02  0.56124011707E+01  0.46350045481E+02  0.47000000000E+01 0.  1.
         15    1    4    4    0    0  0.32207196127E+02 -0.26807429687E+02 -0.14711528199E+03  0.15297714108E+03  0.17770000000E+01 0. -1.
        -16    1    4    4    0    0  0.11148382572E+02  0.42128674465E+02 -0.70131024084E+02  0.82567985232E+02  0.00000000000E+00 0.  1.
<mgrwt>
<rscale>  2 0.18622850E+03</rscale>
<asrwt>0</asrwt>
<pdfrwt beam="1">  1       21 0.24454116E-01 0.18623304E+03</pdfrwt>
<pdfrwt beam="2">  1       21 0.48736992E-01 0.18623304E+03</pdfrwt>
<totfact> 0.63667533E+04</totfact>
</mgrwt>
</event>
<event>
12    2  0.4090627E-002  0.2177727E+03  0.7546771E-02  0.1136157E+00
         21   -1    0    0  501  502  0.00000000000E+00  0.00000000000E+00  0.46812628601E+03  0.46812628601E+03  0.00000000000E+00 0.  1.
         21   -1    0    0  502  503 -0.00000000000E+00 -0.00000000000E+00 -0.18264686748E+03  0.18264686748E+03  0.00000000000E+00 0. -1.
         -6    2    1    2    0  503 -0.42548390882E+02  0.11939419388E+03 -0.76919186226E+02  0.22797568523E+03  0.17317913486E+03 0.  0.
        -24    2    3    3    0    0 -0.10954738574E+02  0.14626394470E+03 -0.39216029330E+02  0.17172837049E+03  0.80247046428E+02 0.  0.
          6    2    1    2  501    0  0.42548390882E+02 -0.11939419388E+03  0.36239860476E+03  0.42279746826E+03  0.17708645158E+03 0.  0.
         24    2    5    5    0    0  0.26626165593E+02  0.82814123095E+01  0.10945485597E+03  0.13897145161E+03  0.80963969660E+02 0.  0.
          5    1    5    5  501    0  0.15922225288E+02 -0.12767560619E+03  0.25294374879E+03  0.28382601665E+03  0.47000000000E+01 0. -1.
        -15    1    6    6    0    0  0.15946046235E+02 -0.54558005413E+01  0.11826131806E+03  0.11946940708E+03  0.17770000000E+01 0.  1.
         16    1    6    6    0    0  0.10680119358E+02  0.13737212851E+02 -0.88064620866E+01  0.19502044531E+02  0.00000000000E+00 0. -1.
         -5    1    3    3    0  503 -0.31593652307E+02 -0.26869750822E+02 -0.37703156896E+02  0.56247314738E+02  0.47000000000E+01 0.  1.
         15    1    4    4    0    0  0.17614696676E+01  0.32902619610E+02 -0.46959313029E+02  0.57393553312E+02  0.17770000000E+01 0. -1.
        -16    1    4    4    0    0 -0.12716208242E+02  0.11336132509E+03  0.77432836988E+01  0.11433481718E+03  0.00000000000E+00 0.  1.
<mgrwt>
<rscale>  2 0.21697704E+03</rscale>
<asrwt>0</asrwt>
<pdfrwt beam="1">  1       21 0.72019428E-01 0.21777270E+03</pdfrwt>
<pdfrwt beam="2">  1       21 0.28099518E-01 0.21777270E+03</pdfrwt>
<totfact> 0.20746966E+04</totfact>
</mgrwt>
</event>
<event>
12    2  0.4090627E-002  0.2127937E+03  0.7546771E-02  0.1139771E+00
         21   -1    0    0  503  502  0.00000000000E+00  0.00000000000E+00  0.11801507683E+04  0.11801507683E+04  0.00000000000E+00 0.  1.
         21   -1    0    0  501  503 -0.00000000000E+00 -0.00000000000E+00 -0.89545547650E+02  0.89545547650E+02  0.00000000000E+00 0.  1.
          6    2    1    2  501    0  0.59408254611E+02  0.10635383257E+03  0.62542679255E+02  0.21984216948E+03  0.17198405256E+03 0.  0.
         24    2    3    3    0    0  0.89287795031E+02  0.38957713670E+02  0.70950396732E+02  0.14549296981E+03  0.81512156585E+02 0.  0.
         -6    2    1    2    0  502 -0.59408254611E+02 -0.10635383257E+03  0.10280625414E+04  0.10498541465E+04  0.17447252340E+03 0.  0.
        -24    2    5    5    0    0 -0.49372602891E+02 -0.49133174301E+01  0.70819635521E+03  0.71410519341E+03  0.77086672751E+02 0.  0.
          5    1    3    3  501    0 -0.29879540421E+02  0.67396118901E+02 -0.84077174770E+01  0.74349199672E+02  0.47000000000E+01 0. -1.
        -15    1    4    4    0    0 -0.97881647056E+01  0.66705647122E+01 -0.83035330579E+01  0.14574326473E+02  0.17770000000E+01 0.  1.
         16    1    4    4    0    0  0.99075959737E+02  0.32287148957E+02  0.79253929790E+02  0.13091864334E+03  0.00000000000E+00 0. -1.
         -5    1    5    5    0  502 -0.10035651720E+02 -0.10144051514E+03  0.31986618619E+03  0.33574895306E+03  0.47000000000E+01 0.  1.
         15    1    6    6    0    0 -0.17203159536E+01  0.31124558045E+02  0.20273225664E+03  0.20512245906E+03  0.17770000000E+01 0. -1.
        -16    1    6    6    0    0 -0.47652286937E+02 -0.36037875475E+02  0.50546409857E+03  0.50898273434E+03  0.00000000000E+00 0.  1.
<mgrwt>
<rscale>  2 0.21228294E+03</rscale>
<asrwt>0</asrwt>
<pdfrwt beam="1">  1       21 0.18156165E+00 0.21279366E+03</pdfrwt>
<pdfrwt beam="2">  1       21 0.13776239E-01 0.21279366E+03</pdfrwt>
<totfact> 0.79970264E+03</totfact>
</mgrwt>
</event>
<event>
12    2  0.4090627E-002  0.2537059E+03  0.7546771E-02  0.1111907E+00
         21   -1    0    0  503  502  0.00000000000E+00  0.00000000000E+00  0.41075766542E+03  0.41075766542E+03  0.00000000000E+00 0.  1.
         21   -1    0    0  501  503 -0.00000000000E+00 -0.00000000000E+00 -0.15850629005E+03  0.15850629005E+03  0.00000000000E+00 0. -1.
          6    2    1    2  501    0  0.15332272589E+03  0.10434968759E+03  0.74965814951E+02  0.26454975476E+03  0.17311840964E+03 0.  0.
         24    2    3    3    0    0  0.15869160736E+03  0.70463562301E+02  0.10510191889E+03  0.21864366435E+03  0.81304973695E+02 0.  0.
         -6    2    1    2    0  502 -0.15332272589E+03 -0.10434968759E+03  0.17728556042E+03  0.30471420071E+03  0.16438935065E+03 0.  0.
        -24    2    5    5    0    0 -0.80779747087E+02  0.49150582596E+01  0.58245824416E+02  0.12753119586E+03  0.79511662782E+02 0.  0.
          5    1    3    3  501    0 -0.53688814724E+01  0.33886125294E+02 -0.30136103941E+02  0.45906090407E+02  0.47000000000E+01 0. -1.
        -15    1    4    4    0    0  0.35190024971E+02  0.39486554940E+02  0.67713280263E+02  0.85940513912E+02  0.17770000000E+01 0.  1.
         16    1    4    4    0    0  0.12350158239E+03  0.30977007361E+02  0.37388638629E+02  0.13270315044E+03  0.00000000000E+00 0. -1.
         -5    1    5    5    0  502 -0.72542978805E+02 -0.10926474585E+03  0.11903973600E+03  0.17718300485E+03  0.47000000000E+01 0.  1.
         15    1    6    6    0    0 -0.52770874826E+02 -0.30966741048E+02  0.11496866749E+02  0.62281939237E+02  0.17770000000E+01 0. -1.
        -16    1    6    6    0    0 -0.28008872261E+02  0.35881799308E+02  0.46748957667E+02  0.65249256623E+02  0.00000000000E+00 0.  1.
<mgrwt>
<rscale>  2 0.25222446E+03</rscale>
<asrwt>0</asrwt>
<pdfrwt beam="1">  1       21 0.63193487E-01 0.25370593E+03</pdfrwt>
<pdfrwt beam="2">  1       21 0.24385583E-01 0.25370593E+03</pdfrwt>
<totfact> 0.35736968E+04</totfact>
</mgrwt>
</event>
<event>
12    2  0.4090627E-002  0.1977201E+03  0.7546771E-02  0.1151952E+00
         21   -1    0    0  503  502  0.00000000000E+00  0.00000000000E+00  0.20995588984E+04  0.20995588984E+04  0.00000000000E+00 0. -1.
         21   -1    0    0  501  503 -0.00000000000E+00 -0.00000000000E+00 -0.54539883164E+02  0.54539883164E+02  0.00000000000E+00 0.  1.
          6    2    1    2  501    0  0.77722193097E+02  0.56901446542E+02  0.14585248780E+03  0.24466778574E+03  0.17120415667E+03 0.  0.
         24    2    3    3    0    0  0.51054757841E+02 -0.27708011835E+02  0.41651651236E+02  0.10773781498E+03  0.80611751680E+02 0.  0.
         -6    2    1    2    0  502 -0.77722193097E+02 -0.56901446542E+02  0.18991665275E+04  0.19094309959E+04  0.17266938053E+03 0.  0.
        -24    2    5    5    0    0 -0.79161227834E+02 -0.69306000174E+02  0.18857530032E+04  0.18905112600E+04  0.83057892389E+02 0.  0.
          5    1    3    3  501    0  0.26667435256E+02  0.84609458377E+02  0.10420083656E+03  0.13692997075E+03  0.47000000000E+01 0. -1.
        -15    1    4    4    0    0  0.37933726784E+02 -0.26436487532E+02 -0.15722031431E+02  0.48869167193E+02  0.17770000000E+01 0.  1.
         16    1    4    4    0    0  0.13121031056E+02 -0.12715243023E+01  0.57373682667E+02  0.58868647792E+02  0.00000000000E+00 0. -1.
         -5    1    5    5    0  502  0.14390347369E+01  0.12404553631E+02  0.13413524306E+02  0.18919735888E+02  0.47000000000E+01 0.  1.
         15    1    6    6    0    0 -0.91010941349E+02 -0.75345763359E+02  0.17812711332E+04  0.17851862601E+04  0.17770000000E+01 0. -1.
        -16    1    6    6    0    0  0.11849713515E+02  0.60397631859E+01  0.10448186994E+03  0.10532499986E+03  0.00000000000E+00 0.  1.
<mgrwt>
<rscale>  2 0.19739973E+03</rscale>
<asrwt>0</asrwt>
<pdfrwt beam="1">  1       21 0.32300900E+00 0.19772008E+03</pdfrwt>
<pdfrwt beam="2">  1       21 0.83907529E-02 0.19772008E+03</pdfrwt>
<totfact> 0.27587766E+03</totfact>
</mgrwt>
</event>
<event>
12    2  0.4090627E-002  0.1880437E+03  0.7546771E-02  0.1160277E+00
         21   -1    0    0  501  502  0.00000000000E+00  0.00000000000E+00  0.11908373883E+03  0.11908373883E+03  0.00000000000E+00 0. -1.
         21   -1    0    0  502  503 -0.00000000000E+00 -0.00000000000E+00 -0.33085882087E+03  0.33085882087E+03  0.00000000000E+00 0.  1.
         -6    2    1    2    0  503 -0.70441427329E+02  0.19571070820E+02 -0.17825280264E+03  0.25910327352E+03  0.17324959799E+03 0.  0.
        -24    2    3    3    0    0 -0.59594693654E+02  0.24272929117E+02 -0.20482539647E+03  0.22964225104E+03  0.81494894479E+02 0.  0.
          6    2    1    2  501    0  0.70441427329E+02 -0.19571070820E+02 -0.33522279399E+02  0.19083928617E+03  0.17306319203E+03 0.  0.
         24    2    5    5    0    0  0.19092294566E+02 -0.68762950361E+02 -0.48251476323E+02  0.11806831882E+03  0.80740720125E+02 0.  0.
          5    1    5    5  501    0  0.51349132763E+02  0.49191879541E+02  0.14729196924E+02  0.72770967359E+02  0.47000000000E+01 0. -1.
        -15    1    6    6    0    0  0.12747961696E+02 -0.32006982224E+02 -0.67714779951E+02  0.75996095895E+02  0.17770000000E+01 0.  1.
         16    1    6    6    0    0  0.63443328705E+01 -0.36755968137E+02  0.19463303628E+02  0.42072222920E+02  0.00000000000E+00 0. -1.
         -5    1    3    3    0  503 -0.10846733675E+02 -0.47018582971E+01  0.26572593826E+02  0.29461022479E+02  0.47000000000E+01 0.  1.
         15    1    4    4    0    0 -0.24339005896E+02 -0.29940034110E+02 -0.65511681706E+02  0.76050844962E+02  0.17770000000E+01 0. -1.
        -16    1    4    4    0    0 -0.35255687758E+02  0.54212963227E+02 -0.13931371476E+03  0.15359140608E+03  0.00000000000E+00 0.  1.
<mgrwt>
<rscale>  2 0.18800078E+03</rscale>
<asrwt>0</asrwt>
<pdfrwt beam="1">  1       21 0.18320575E-01 0.18804373E+03</pdfrwt>
<pdfrwt beam="2">  1       21 0.50901357E-01 0.18804373E+03</pdfrwt>
<totfact> 0.99925876E+04</totfact>
</mgrwt>
</event>
<event>
12    2  0.4090627E-002  0.1908334E+03  0.7546771E-02  0.1157713E+00
         21   -1    0    0  501  502  0.00000000000E+00  0.00000000000E+00  0.37597818574E+02  0.37597818574E+02  0.00000000000E+00 0.  1.
         21   -1    0    0  502  503 -0.00000000000E+00 -0.00000000000E+00 -0.15941697119E+04  0.15941697119E+04  0.00000000000E+00 0.  1.
         -6    2    1    2    0  503 -0.41114213346E+02  0.70012173490E+02 -0.12893824776E+04  0.13034269118E+04  0.17269180030E+03 0.  0.
        -24    2    3    3    0    0  0.36161360049E+02  0.46352943539E+01 -0.64063575109E+03  0.64681435045E+03  0.81397226353E+02 0.  0.
          6    2    1    2  501    0  0.41114213346E+02 -0.70012173490E+02 -0.26718941576E+03  0.32834061871E+03  0.17270001454E+03 0.  0.
         24    2    5    5    0    0  0.36576406445E+02  0.23256814474E+02 -0.96990447519E+02  0.13415134352E+03  0.81919003473E+02 0.  0.
          5    1    5    5  501    0  0.45378069006E+01 -0.93268987963E+02 -0.17019896824E+03  0.19418927519E+03  0.47000000000E+01 0. -1.
        -15    1    6    6    0    0  0.45697359280E+02 -0.65191857658E+01 -0.18593822032E+02  0.49795947374E+02  0.17770000000E+01 0.  1.
         16    1    6    6    0    0 -0.91209528345E+01  0.29776000239E+02 -0.78396625487E+02  0.84355396144E+02  0.00000000000E+00 0. -1.
         -5    1    3    3    0  503 -0.77275573394E+02  0.65376879136E+02 -0.64874672648E+03  0.65661256133E+03  0.47000000000E+01 0.  1.
         15    1    4    4    0    0  0.31423934635E+02 -0.12862255039E+02 -0.61186520762E+03  0.61280918017E+03  0.17770000000E+01 0. -1.
        -16    1    4    4    0    0  0.47374254139E+01  0.17497549393E+02 -0.28770543469E+02  0.34005170280E+02  0.00000000000E+00 0.  1.
<mgrwt>
<rscale>  2 0.19083152E+03</rscale>
<asrwt>0</asrwt>
<pdfrwt beam="1">  1       21 0.57842795E-02 0.19083338E+03</pdfrwt>
<pdfrwt beam="2">  1       21 0.24525689E+00 0.19083338E+03</pdfrwt>
<totfact> 0.14910837E+04</totfact>
</mgrwt>
</event>
<event>
12    2  0.4090627E-002  0.1864600E+03  0.7546771E-02  0.1161850E+00
         21   -1    0    0  501  502  0.00000000000E+00  0.00000000000E+00  0.20278685186E+03  0.20278685186E+03  0.00000000000E+00 0. -1.
         21   -1    0    0  502  503 -0.00000000000E+00 -0.00000000000E+00 -0.59768686638E+03  0.59768686638E+03  0.00000000000E+00 0. -1.
         -6    2    1    2    0  503 -0.10014502644E+02  0.65708966675E+02 -0.53578989025E+03  0.56730780102E+03  0.17421072309E+03 0.  0.
        -24    2    3    3    0    0  0.22138266071E+02  0.51307440017E+02 -0.13338503982E+03  0.16333631916E+03  0.75925147898E+02 0.  0.
          6    2    1    2  501    0  0.10014502644E+02 -0.65708966675E+02  0.14088987573E+03  0.23316591721E+03  0.17348898899E+03 0.  0.
         24    2    5    5    0    0  0.47999156082E+02  0.16302725330E+02  0.76334587507E+02  0.12199835558E+03  0.80541490401E+02 0.  0.
          5    1    5    5  501    0 -0.37984653438E+02 -0.82011692004E+02  0.64555288225E+02  0.11116756164E+03  0.47000000000E+01 0. -1.
        -15    1    6    6    0    0  0.13009100422E+02  0.45941228268E+02  0.49818665964E+02  0.69028185229E+02  0.17770000000E+01 0.  1.
         16    1    6    6    0    0  0.34990055660E+02 -0.29638502938E+02  0.26515921543E+02  0.52970170349E+02  0.00000000000E+00 0. -1.
         -5    1    3    3    0  503 -0.32152768715E+02  0.14401526657E+02 -0.40240485044E+03  0.40397148187E+03  0.47000000000E+01 0.  1.
         15    1    4    4    0    0  0.12337214351E+01  0.57154676586E+02 -0.46300489727E+02  0.73587174169E+02  0.17770000000E+01 0. -1.
        -16    1    4    4    0    0  0.20904544636E+02 -0.58472365685E+01 -0.87084550089E+02  0.89749144988E+02  0.00000000000E+00 0.  1.
<mgrwt>
<rscale>  2 0.18629124E+03</rscale>
<asrwt>0</asrwt>
<pdfrwt beam="1">  1       21 0.31197978E-01 0.18646001E+03</pdfrwt>
<pdfrwt beam="2">  1       21 0.91951823E-01 0.18646001E+03</pdfrwt>
<totfact> 0.99102784E+03</totfact>
</mgrwt>
</event>
<event>
12    2  0.4090627E-002  0.1748382E+03  0.7546771E-02  0.1173049E+00
         21   -1    0    0  503  502  0.00000000000E+00  0.00000000000E+00  0.28456265595E+03  0.28456265595E+03  0.00000000000E+00 0.  1.
         21   -1    0    0  501  503 -0.00000000000E+00 -0.00000000000E+00 -0.10734333502E+03  0.10734333502E+03  0.00000000000E+00 0.  1.
          6    2    1    2  501    0 -0.21824703488E+02 -0.83515579411E+01  0.99106362557E+02  0.20097380555E+03  0.17326953920E+03 0.  0.
         24    2    3    3    0    0  0.30544352416E+02  0.44498217129E+02  0.78464315270E+02  0.12361877431E+03  0.78815631699E+02 0.  0.
         -6    2    1    2    0  502  0.21824703488E+02  0.83515579411E+01  0.78112958372E+02  0.19093218541E+03  0.17264819419E+03 0.  0.
        -24    2    5    5    0    0 -0.27236133906E+02  0.13556950623E+02  0.10238216541E+03  0.13574934125E+03  0.83786502228E+02 0.  0.
          5    1    3    3  501    0 -0.52369055905E+02 -0.52849775070E+02  0.20642047288E+02  0.77355031236E+02  0.47000000000E+01 0. -1.
        -15    1    4    4    0    0 -0.82673645228E+01  0.37862107670E+02  0.74562139202E+02  0.84050930065E+02  0.17770000000E+01 0.  1.
         16    1    4    4    0    0  0.38811716939E+02  0.66361094590E+01  0.39021760673E+01  0.39567844250E+02  0.00000000000E+00 0. -1.
         -5    1    5    5    0  502  0.49060837394E+02 -0.52053926820E+01 -0.24269207043E+02  0.55182844157E+02  0.47000000000E+01 0.  1.
         15    1    6    6    0    0 -0.55608195750E+02 -0.31796425991E+01  0.57470851740E+02  0.80052720693E+02  0.17770000000E+01 0. -1.
        -16    1    6    6    0    0  0.28372061844E+02  0.16736593222E+02  0.44911313675E+02  0.55696620561E+02  0.00000000000E+00 0.  1.
<mgrwt>
<rscale>  2 0.17468407E+03</rscale>
<asrwt>0</asrwt>
<pdfrwt beam="1">  1       21 0.43778870E-01 0.17483821E+03</pdfrwt>
<pdfrwt beam="2">  1       21 0.16514359E-01 0.17483821E+03</pdfrwt>
<totfact> 0.16588560E+05</totfact>
</mgrwt>
</event>
<event>
12    2  0.4090627E-002  0.1933658E+03  0.7546771E-02  0.1155807E+00
         21   -1    0    0  503  502  0.00000000000E+00  0.00000000000E+00  0.22610804319E+03  0.22610804319E+03  0.00000000000E+00 0. -1.
         21   -1    0    0  501  503 -0.00000000000E+00 -0.00000000000E+00 -0.20431976842E+03  0.20431976842E+03  0.00000000000E+00 0. -1.
          6    2    1    2  501    0 -0.84114852829E+02  0.11870697216E+01 -0.84713603728E+02  0.20967234579E+03  0.17236409235E+03 0.  0.
         24    2    3    3    0    0 -0.10975560821E+03  0.40016538292E+02 -0.42860980667E+02  0.14691162541E+03  0.78091901929E+02 0.  0.
         -6    2    1    2    0  502  0.84114852829E+02 -0.11870697216E+01  0.10650187849E+03  0.22075546582E+03  0.17410803533E+03 0.  0.
        -24    2    5    5    0    0  0.96658268699E+02  0.15770987088E+01  0.13782892919E+03  0.18657283844E+03  0.80419538510E+02 0.  0.
          5    1    3    3  501    0  0.25640755378E+02 -0.38829468571E+02 -0.41852623061E+02  0.62760720382E+02  0.47000000000E+01 0. -1.
        -15    1    4    4    0    0 -0.25641750212E+02  0.44746276540E+02  0.16493469759E+01  0.51629513774E+02  0.17770000000E+01 0.  1.
         16    1    4    4    0    0 -0.84113857995E+02 -0.47297382479E+01 -0.44510327643E+02  0.95282111634E+02  0.00000000000E+00 0. -1.
         -5    1    5    5    0  502 -0.12543415870E+02 -0.27641684304E+01 -0.31327050700E+02  0.34182627377E+02  0.47000000000E+01 0.  1.
         15    1    6    6    0    0  0.10381773232E+03 -0.15705128480E+02  0.12758591891E+03  0.16524556586E+03  0.17770000000E+01 0. -1.
        -16    1    6    6    0    0 -0.71594636237E+01  0.17282227189E+02  0.10243010285E+02  0.21327272580E+02  0.00000000000E+00 0.  1.
<mgrwt>
<rscale>  2 0.19297239E+03</rscale>
<asrwt>0</asrwt>
<pdfrwt beam="1">  1       21 0.34785853E-01 0.19336578E+03</pdfrwt>
<pdfrwt beam="2">  1       21 0.31433811E-01 0.19336578E+03</pdfrwt>
<totfact> 0.77465389E+04</totfact>
</mgrwt>
</event>
<event>
12    2  0.4090627E-002  0.1895287E+03  0.7546771E-02  0.1158913E+00
         21   -1    0    0  501  502  0.00000000000E+00  0.00000000000E+00  0.75949406601E+02  0.75949406601E+02  0.00000000000E+00 0. -1.
         21   -1    0    0  502  503 -0.00000000000E+00 -0.00000000000E+00 -0.48280493333E+03  0.48280493333E+03  0.00000000000E+00 0. -1.
         -6    2    1    2    0  503 -0.11880876353E+02  0.77748430638E+02 -0.16302358197E+03  0.24999564284E+03  0.17243885719E+03 0.  0.
        -24    2    3    3    0    0  0.10870974598E+02  0.10391221379E+02 -0.11774341686E+02  0.82803947325E+02  0.80571105242E+02 0.  0.
          6    2    1    2  501    0  0.11880876353E+02 -0.77748430638E+02 -0.24383194476E+03  0.30875869710E+03  0.17231349935E+03 0.  0.
         24    2    5    5    0    0  0.94653023168E+01 -0.12055069153E+03 -0.16585882594E+03  0.21965333365E+03  0.78207260961E+02 0.  0.
          5    1    5    5  501    0  0.24155740365E+01  0.42802260894E+02 -0.77973118823E+02  0.89105363444E+02  0.47000000000E+01 0. -1.
        -15    1    6    6    0    0  0.59283020408E+01 -0.46418301775E+02 -0.11261084903E+02  0.48164024613E+02  0.17770000000E+01 0.  1.
         16    1    6    6    0    0  0.35370002760E+01 -0.74132389757E+02 -0.15459774104E+03  0.17148930904E+03  0.00000000000E+00 0. -1.
         -5    1    3    3    0  503 -0.22751850951E+02  0.67357209258E+02 -0.15124924029E+03  0.16719169551E+03  0.47000000000E+01 0.  1.
         15    1    4    4    0    0  0.42408086918E+02  0.21838367940E+02 -0.16620248393E+01  0.47762749145E+02  0.17770000000E+01 0. -1.
        -16    1    4    4    0    0 -0.31537112320E+02 -0.11447146561E+02 -0.10112316847E+02  0.35041198180E+02  0.00000000000E+00 0.  1.
<mgrwt>
<rscale>  2 0.18950020E+03</rscale>
<asrwt>0</asrwt>
<pdfrwt beam="1">  1       21 0.11684525E-01 0.18952871E+03</pdfrwt>
<pdfrwt beam="2">  1       21 0.74277679E-01 0.18952871E+03</pdfrwt>
<totfact> 0.10010888E+05</totfact>
</mgrwt>
</event>
<event>
12    2  0.4090627E-002  0.3071988E+03  0.7546771E-02  0.1082008E+00
         21   -1    0    0  503  502  0.00000000000E+00  0.00000000000E+00  0.42024714430E+03  0.42024714430E+03  0.00000000000E+00 0. -1.
         21   -1    0    0  501  503 -0.00000000000E+00 -0.00000000000E+00 -0.39369155423E+03  0.39369155423E+03  0.00000000000E+00 0. -1.
          6    2    1    2  501    0  0.42970201085E+02  0.24908118976E+03 -0.25496387256E+03  0.39725615897E+03  0.17005293959E+03 0.  0.
         24    2    3    3    0    0  0.67382780141E+02  0.25637335763E+03 -0.22044422810E+03  0.35409546410E+03  0.80747770462E+02 0.  0.
         -6    2    1    2    0  502 -0.42970201085E+02 -0.24908118976E+03  0.28151946263E+03  0.41668253955E+03  0.17459454073E+03 0.  0.
        -24    2    5    5    0    0 -0.63074952351E+02 -0.26001322801E+03  0.24132207707E+03  0.37018920358E+03  0.84961009948E+02 0.  0.
          5    1    3    3  501    0 -0.24412579056E+02 -0.72921678689E+01 -0.34519644461E+02  0.43160694876E+02  0.47000000000E+01 0. -1.
        -15    1    4    4    0    0 -0.16518614850E+02  0.66816407230E+02 -0.68102073894E+02  0.96841866511E+02  0.17770000000E+01 0.  1.
         16    1    4    4    0    0  0.83901394992E+02  0.18955695039E+03 -0.15234215420E+03  0.25725359759E+03  0.00000000000E+00 0. -1.
         -5    1    5    5    0  502  0.20104751267E+02  0.10932038251E+02  0.40197385564E+02  0.46493335974E+02  0.47000000000E+01 0.  1.
         15    1    6    6    0    0 -0.75086076027E+02 -0.22711872847E+03  0.17925749568E+03  0.29892681901E+03  0.17770000000E+01 0. -1.
        -16    1    6    6    0    0  0.12011123676E+02 -0.32894499539E+02  0.62064581390E+02  0.71262384573E+02  0.00000000000E+00 0.  1.
<mgrwt>
<rscale>  2 0.30655727E+03</rscale>
<asrwt>0</asrwt>
<pdfrwt beam="1">  1       21 0.64653407E-01 0.30719885E+03</pdfrwt>
<pdfrwt beam="2">  1       21 0.60567931E-01 0.30719885E+03</pdfrwt>
<totfact> 0.52154197E+03</totfact>
</mgrwt>
</event>
<event>
12    2  0.4090627E-002  0.2146819E+03  0.7546771E-02  0.1137971E+00
         21   -1    0    0  503  502  0.00000000000E+00  0.00000000000E+00  0.71191628250E+02  0.71191628250E+02  0.00000000000E+00 0.  1.
         21   -1    0    0  501  503 -0.00000000000E+00 -0.00000000000E+00 -0.71216316560E+03  0.71216316560E+03  0.00000000000E+00 0. -1.
          6    2    1    2  501    0 -0.10616701143E+03 -0.67710099378E+02 -0.20128651146E+03  0.29405812875E+03  0.17348726614E+03 0.  0.
         24    2    3    3    0    0 -0.18874188623E+02 -0.38794165402E+02 -0.29204668558E+02  0.98890460298E+02  0.84054673915E+02 0.  0.
         -6    2    1    2    0  502  0.10616701143E+03  0.67710099378E+02 -0.43968502589E+03  0.48929666510E+03  0.17387412866E+03 0.  0.
        -24    2    5    5    0    0  0.97578987812E+02  0.65699333848E+02 -0.45185224876E+03  0.47355091520E+03  0.79006033029E+02 0.  0.
          5    1    3    3  501    0 -0.87292822803E+02 -0.28915933976E+02 -0.17208184290E+03  0.19516766845E+03  0.47000000000E+01 0. -1.
        -15    1    4    4    0    0 -0.49163590206E+02 -0.27820261699E+02 -0.34539550997E+02  0.66235669205E+02  0.17770000000E+01 0.  1.
         16    1    4    4    0    0  0.30289401583E+02 -0.10973903702E+02  0.53348824387E+01  0.32654791093E+02  0.00000000000E+00 0. -1.
         -5    1    5    5    0  502  0.85880236138E+01  0.20107655301E+01  0.12167222866E+02  0.15745749899E+02  0.47000000000E+01 0.  1.
         15    1    6    6    0    0  0.84241280886E+02  0.21125194279E+02 -0.36305447764E+03  0.37330226185E+03  0.17770000000E+01 0. -1.
        -16    1    6    6    0    0  0.13337706926E+02  0.44574139569E+02 -0.88797771116E+02  0.10024865336E+03  0.00000000000E+00 0.  1.
<mgrwt>
<rscale>  2 0.21460352E+03</rscale>
<asrwt>0</asrwt>
<pdfrwt beam="1">  1       21 0.10952559E-01 0.21468187E+03</pdfrwt>
<pdfrwt beam="2">  1       21 0.10956356E+00 0.21468187E+03</pdfrwt>
<totfact> 0.45018161E+04</totfact>
</mgrwt>
</event>
<event>
12    2  0.4090627E-002  0.2074672E+03  0.7546771E-02  0.1143844E+00
         21   -1    0    0  501  502  0.00000000000E+00  0.00000000000E+00  0.98372671966E+02  0.98372671966E+02  0.00000000000E+00 0. -1.
         21   -1    0    0  502  503 -0.00000000000E+00 -0.00000000000E+00 -0.46942426835E+03  0.46942426835E+03  0.00000000000E+00 0.  1.
         -6    2    1    2    0  503 -0.11202379209E+03  0.11482239806E+02 -0.10797490443E+03  0.23275664340E+03  0.17273072464E+03 0.  0.
        -24    2    3    3    0    0 -0.16255141386E+02  0.41123219615E+02 -0.96064047664E+02  0.13169141372E+03  0.78479158889E+02 0.  0.
          6    2    1    2  501    0  0.11202379209E+03 -0.11482239806E+02 -0.26307669196E+03  0.33504029692E+03  0.17424546732E+03 0.  0.
         24    2    5    5    0    0  0.74354904455E+02 -0.57295078888E+02 -0.24234057359E+03  0.27203364706E+03  0.80386402118E+02 0.  0.
          5    1    5    5  501    0  0.37668887638E+02  0.45812839081E+02 -0.20736118366E+02  0.63006649851E+02  0.47000000000E+01 0. -1.
        -15    1    6    6    0    0  0.51318580884E+00  0.14026667989E+02 -0.81455001248E+01  0.16325369087E+02  0.17770000000E+01 0.  1.
         16    1    6    6    0    0  0.73841718646E+02 -0.71321746877E+02 -0.23419507347E+03  0.25570827798E+03  0.00000000000E+00 0. -1.
         -5    1    3    3    0  503 -0.95768650708E+02 -0.29640979809E+02 -0.11910856764E+02  0.10106522968E+03  0.47000000000E+01 0.  1.
         15    1    4    4    0    0 -0.29210033179E+02  0.17607122689E+02 -0.23791471000E+01  0.34235287025E+02  0.17770000000E+01 0. -1.
        -16    1    4    4    0    0  0.12954891793E+02  0.23516096926E+02 -0.93684900564E+02  0.97456126692E+02  0.00000000000E+00 0.  1.
<mgrwt>
<rscale>  2 0.20714887E+03</rscale>
<asrwt>0</asrwt>
<pdfrwt beam="1">  1       21 0.15134257E-01 0.20746724E+03</pdfrwt>
<pdfrwt beam="2">  1       21 0.72219118E-01 0.20746724E+03</pdfrwt>
<totfact> 0.66294191E+04</totfact>
</mgrwt>
</event>
<event>
12    2  0.4090627E-002  0.1928857E+03  0.7546771E-02  0.1156129E+00
         21   -1    0    0  501  502  0.00000000000E+00  0.00000000000E+00  0.11294323654E+04  0.11294323654E+04  0.00000000000E+00 0. -1.
         21   -1    0    0  502  503 -0.00000000000E+00 -0.00000000000E+00 -0.51980292928E+02  0.51980292928E+02  0.00000000000E+00 0. -1.
         -6    2    1    2    0  503 -0.69033355712E+02 -0.50922411833E+02  0.17848434150E+03  0.26198464896E+03  0.17152434201E+03 0.  0.
        -24    2    3    3    0    0 -0.55435389688E+02 -0.52192196182E+02  0.32399562348E+02  0.11518761312E+03  0.80133306451E+02 0.  0.
          6    2    1    2  501    0  0.69033355712E+02  0.50922411833E+02  0.89896773099E+03  0.91942800939E+03  0.17276048986E+03 0.  0.
         24    2    5    5    0    0  0.10681201690E+03  0.77809067816E+01  0.68931228593E+03  0.70202075941E+03  0.78818586918E+02 0.  0.
          5    1    5    5  501    0 -0.37778661191E+02  0.43141505051E+02  0.20965544506E+03  0.21740724998E+03  0.47000000000E+01 0. -1.
        -15    1    6    6    0    0  0.92091732341E+02  0.81151937137E+01  0.67560714570E+03  0.68190535750E+03  0.17770000000E+01 0.  1.
         16    1    6    6    0    0  0.14720284562E+02 -0.33428693216E+00  0.13705140228E+02  0.20115401910E+02  0.00000000000E+00 0. -1.
         -5    1    3    3    0  503 -0.13597966024E+02  0.12697843491E+01  0.14608477915E+03  0.14679703584E+03  0.47000000000E+01 0.  1.
         15    1    4    4    0    0 -0.61979842029E+02 -0.85462416741E+01  0.33595174141E+02  0.71037543026E+02  0.17770000000E+01 0. -1.
        -16    1    4    4    0    0  0.65444523407E+01 -0.43645954508E+02 -0.11956117930E+01  0.44150070089E+02  0.00000000000E+00 0.  1.
<mgrwt>
<rscale>  2 0.19260848E+03</rscale>
<asrwt>0</asrwt>
<pdfrwt beam="1">  1       21 0.17375881E+00 0.19288567E+03</pdfrwt>
<pdfrwt beam="2">  1       21 0.79969690E-02 0.19288567E+03</pdfrwt>
<totfact> 0.24117716E+04</totfact>
</mgrwt>
</event>
<event>
12    2  0.4090627E-002  0.2022895E+03  0.7546771E-02  0.1148471E+00
         21   -1    0    0  501  502  0.00000000000E+00  0.00000000000E+00  0.11946092621E+03  0.11946092621E+03  0.00000000000E+00 0. -1.
         21   -1    0    0  502  503 -0.00000000000E+00 -0.00000000000E+00 -0.41008999163E+03  0.41008999163E+03  0.00000000000E+00 0. -1.
         -6    2    1    2    0  503  0.75991643864E+02  0.74736959318E+02 -0.25592677001E+03  0.32430644628E+03  0.16827304142E+03 0.  0.
        -24    2    3    3    0    0  0.31987333240E+02  0.18445909854E+02 -0.23218543595E+03  0.24886903815E+03  0.81622793406E+02 0.  0.
          6    2    1    2  501    0 -0.75991643864E+02 -0.74736959318E+02 -0.34702295412E+02  0.20524447155E+03  0.17193225634E+03 0.  0.
         24    2    5    5    0    0 -0.24822822624E+02  0.18533248692E+02  0.12914970070E+02  0.88595108327E+02  0.81991724811E+02 0.  0.
          5    1    5    5  501    0 -0.51168821240E+02 -0.93270208011E+02 -0.47617265482E+02  0.11664936323E+03  0.47000000000E+01 0. -1.
        -15    1    6    6    0    0  0.25692541470E+02  0.25510568634E+01  0.23043689234E+02  0.34652329226E+02  0.17770000000E+01 0.  1.
         16    1    6    6    0    0 -0.50515364094E+02  0.15982191829E+02 -0.10128719164E+02  0.53942779100E+02  0.00000000000E+00 0. -1.
         -5    1    3    3    0  503  0.44004310625E+02  0.56291049464E+02 -0.23741334060E+02  0.75437408136E+02  0.47000000000E+01 0.  1.
         15    1    4    4    0    0 -0.43388554417E+00  0.39267737325E+02 -0.55379058196E+02  0.67912747456E+02  0.17770000000E+01 0. -1.
        -16    1    4    4    0    0  0.32421218784E+02 -0.20821827471E+02 -0.17680637775E+03  0.18095629069E+03  0.00000000000E+00 0.  1.
<mgrwt>
<rscale>  2 0.20150982E+03</rscale>
<asrwt>0</asrwt>
<pdfrwt beam="1">  1       21 0.18378604E-01 0.20228950E+03</pdfrwt>
<pdfrwt beam="2">  1       21 0.63090768E-01 0.20228950E+03</pdfrwt>
<totfact> 0.62533778E+04</totfact>
</mgrwt>
</event>
<event>
12    2  0.4090627E-002  0.2524907E+03  0.7546771E-02  0.1111806E+00
         21   -1    0    0  503  502  0.00000000000E+00  0.00000000000E+00  0.25950031320E+03  0.25950031320E+03  0.00000000000E+00 0.  1.
         21   -1    0    0  501  503 -0.00000000000E+00 -0.00000000000E+00 -0.28714486309E+03  0.28714486309E+03  0.00000000000E+00 0. -1.
          6    2    1    2  501    0 -0.16556791963E+03  0.64321439448E+02 -0.11819329486E+03  0.27840901079E+03  0.17886290491E+03 0.  0.
         24    2    3    3    0    0 -0.13336140431E+03  0.10861857326E+03 -0.61828924114E+02  0.19967827991E+03  0.80407344171E+02 0.  0.
         -6    2    1    2    0  502  0.16556791963E+03 -0.64321439448E+02  0.90548744971E+02  0.26823616550E+03  0.17944799159E+03 0.  0.
        -24    2    5    5    0    0  0.86949683121E+02 -0.50624208055E+02 -0.21968751401E+02  0.13021182617E+03  0.79683347063E+02 0.  0.
          5    1    3    3  501    0 -0.32206515325E+02 -0.44297133816E+02 -0.56364370751E+02  0.78730730873E+02  0.47000000000E+01 0. -1.
        -15    1    4    4    0    0 -0.74808381609E+02  0.83621516399E+02 -0.18796470412E+01  0.11222986575E+03  0.17770000000E+01 0.  1.
         16    1    4    4    0    0 -0.58553022696E+02  0.24997056865E+02 -0.59949277072E+02  0.87448414166E+02  0.00000000000E+00 0. -1.
         -5    1    5    5    0  502  0.78618236509E+02 -0.13697231393E+02  0.11251749637E+03  0.13802433934E+03  0.47000000000E+01 0.  1.
         15    1    6    6    0    0  0.59785293373E+02 -0.72124644202E+02 -0.16448660265E+02  0.95131286959E+02  0.17770000000E+01 0. -1.
        -16    1    6    6    0    0  0.27164389749E+02  0.21500436147E+02 -0.55200911359E+01  0.35080539207E+02  0.00000000000E+00 0.  1.
<mgrwt>
<rscale>  2 0.25238679E+03</rscale>
<asrwt>0</asrwt>
<pdfrwt beam="1">  1       21 0.39923126E-01 0.25249072E+03</pdfrwt>
<pdfrwt beam="2">  1       21 0.44176132E-01 0.25249072E+03</pdfrwt>
<totfact> 0.28881937E+04</totfact>
</mgrwt>
</event>
<event>
12    2  0.4090627E-002  0.2493333E+03  0.7546771E-02  0.1113933E+00
         21   -1    0    0  501  502  0.00000000000E+00  0.00000000000E+00  0.22804469040E+03  0.22804469040E+03  0.00000000000E+00 0. -1.
         21   -1    0    0  502  503 -0.00000000000E+00 -0.00000000000E+00 -0.50879601243E+03  0.50879601243E+03  0.00000000000E+00 0. -1.
         -6    2    1    2    0  503  0.64689110782E+02  0.16604347431E+03 -0.39194732837E+03  0.46383587589E+03  0.17252795465E+03 0.  0.
        -24    2    3    3    0    0  0.38914732745E+02  0.41395137880E+02 -0.27003694816E+03  0.28752434156E+03  0.80761251541E+02 0.  0.
          6    2    1    2  501    0 -0.64689110782E+02 -0.16604347431E+03  0.11119600634E+03  0.27300482695E+03  0.17439027294E+03 0.  0.
         24    2    5    5    0    0 -0.12888631366E+02 -0.33094676647E+02  0.94652926396E+02  0.12928831446E+03  0.80591050002E+02 0.  0.
          5    1    5    5  501    0 -0.51800479416E+02 -0.13294879766E+03  0.16543079944E+02  0.14371651248E+03  0.47000000000E+01 0. -1.
        -15    1    6    6    0    0  0.12677211262E+02  0.68420568806E+01 -0.77390333201E+01  0.16449188232E+02  0.17770000000E+01 0.  1.
         16    1    6    6    0    0 -0.25565842628E+02 -0.39936733528E+02  0.10239195972E+03  0.11283912623E+03  0.00000000000E+00 0. -1.
         -5    1    3    3    0  503  0.25774378037E+02  0.12464833643E+03 -0.12191038021E+03  0.17631153433E+03  0.47000000000E+01 0.  1.
         15    1    4    4    0    0  0.60891499502E+02  0.27565257524E+02 -0.14298880640E+03  0.15784984833E+03  0.17770000000E+01 0. -1.
        -16    1    4    4    0    0 -0.21976766758E+02  0.13829880357E+02 -0.12704814176E+03  0.12967449322E+03  0.00000000000E+00 0.  1.
<mgrwt>
<rscale>  2 0.24900790E+03</rscale>
<asrwt>0</asrwt>
<pdfrwt beam="1">  1       21 0.35083799E-01 0.24933328E+03</pdfrwt>
<pdfrwt beam="2">  1       21 0.78276309E-01 0.24933328E+03</pdfrwt>
<totfact> 0.10924705E+04</totfact>
</mgrwt>
</event>
<event>
12    2  0.4090627E-002  0.1854419E+03  0.7546771E-02  0.1163109E+00
         21   -1    0    0  503  502  0.00000000000E+00  0.00000000000E+00  0.56567560969E+02  0.56567560969E+02  0.00000000000E+00 0.  1.
         21   -1    0    0  501  503 -0.00000000000E+00 -0.00000000000E+00 -0.68765966940E+03  0.68765966940E+03  0.00000000000E+00 0.  1.
          6    2    1    2  501    0  0.60586649594E+02  0.14040731604E+02 -0.44889296608E+03  0.48568879439E+03  0.17470210572E+03 0.  0.
         24    2    3    3    0    0  0.21133938021E+02  0.72518586801E+02 -0.20288993243E+03  0.22972833150E+03  0.76845252570E+02 0.  0.
         -6    2    1    2    0  502 -0.60586649594E+02 -0.14040731604E+02 -0.18219914236E+03  0.25853843599E+03  0.17256219503E+03 0.  0.
        -24    2    5    5    0    0 -0.38681735169E+02 -0.73685948402E+02 -0.12417071672E+03  0.17235975333E+03  0.85811549624E+02 0.  0.
          5    1    3    3  501    0  0.39452711573E+02 -0.58477855197E+02 -0.24600303365E+03  0.25596046289E+03  0.47000000000E+01 0. -1.
        -15    1    4    4    0    0  0.43444511399E+02  0.47572232668E+02 -0.17387229341E+03  0.18543266982E+03  0.17770000000E+01 0.  1.
         16    1    4    4    0    0 -0.22310573378E+02  0.24946354133E+02 -0.29017639017E+02  0.44295661674E+02  0.00000000000E+00 0. -1.
         -5    1    5    5    0  502 -0.21904914425E+02  0.59645216798E+02 -0.58028425637E+02  0.86178682659E+02  0.47000000000E+01 0.  1.
         15    1    6    6    0    0 -0.55199512087E+02 -0.17921580423E+02 -0.82195581115E+02  0.10063518502E+03  0.17770000000E+01 0. -1.
        -16    1    6    6    0    0  0.16517776917E+02 -0.55764367979E+02 -0.41975135604E+02  0.71724568311E+02  0.00000000000E+00 0.  1.
<mgrwt>
<rscale>  2 0.18493622E+03</rscale>
<asrwt>0</asrwt>
<pdfrwt beam="1">  1       21 0.87027013E-02 0.18544193E+03</pdfrwt>
<pdfrwt beam="2">  1       21 0.10579380E+00 0.18544193E+03</pdfrwt>
<totfact> 0.74579081E+04</totfact>
</mgrwt>
</event>
<event>
12    2  0.4090627E-002  0.3241171E+03  0.7546771E-02  0.1073843E+00
         21   -1    0    0  503  502  0.00000000000E+00  0.00000000000E+00  0.43093377605E+03  0.43093377605E+03  0.00000000000E+00 0.  1.
         21   -1    0    0  501  503 -0.00000000000E+00 -0.00000000000E+00 -0.25861163419E+03  0.25861163419E+03  0.00000000000E+00 0.  1.
          6    2    1    2  501    0  0.25973747573E+03  0.83606325704E+02  0.23371386646E+01  0.32412551510E+03  0.17492373573E+03 0.  0.
         24    2    3    3    0    0  0.20404024770E+03  0.83113181413E+02 -0.58448830057E+02  0.24154556357E+03  0.79923525554E+02 0.  0.
         -6    2    1    2    0  502 -0.25973747573E+03 -0.83606325704E+02  0.16998500320E+03  0.36541989514E+03  0.17373319906E+03 0.  0.
        -24    2    5    5    0    0 -0.56360073175E+02  0.85114993631E+01  0.42252655639E+02  0.10815407118E+03  0.81627891887E+02 0.  0.
          5    1    3    3  501    0  0.55697228028E+02  0.49314429102E+00  0.60785968721E+02  0.82579951530E+02  0.47000000000E+01 0. -1.
        -15    1    4    4    0    0  0.20326921811E+03  0.93285849061E+02 -0.59057168460E+02  0.23132559638E+03  0.17770000000E+01 0.  1.
         16    1    4    4    0    0  0.77102959550E+00 -0.10172667648E+02  0.60833840310E+00  0.10219967188E+02  0.00000000000E+00 0. -1.
         -5    1    5    5    0  502 -0.20337740256E+03 -0.92117825067E+02  0.12773234756E+03  0.25726582396E+03  0.47000000000E+01 0.  1.
         15    1    6    6    0    0 -0.73299802288E+02  0.23267882933E+02  0.35297430722E+02  0.84636409046E+02  0.17770000000E+01 0. -1.
        -16    1    6    6    0    0  0.16939729113E+02 -0.14756383570E+02  0.69552249175E+01  0.23517662131E+02  0.00000000000E+00 0.  1.
<mgrwt>
<rscale>  2 0.32395673E+03</rscale>
<asrwt>0</asrwt>
<pdfrwt beam="1">  1       21 0.66297504E-01 0.32411709E+03</pdfrwt>
<pdfrwt beam="2">  1       21 0.39786405E-01 0.32411709E+03</pdfrwt>
<totfact> 0.11867552E+04</totfact>
</mgrwt>
</event>
<event>
12    2  0.4090627E-002  0.2244043E+03  0.7546771E-02  0.1130683E+00
         21   -1    0    0  501  502  0.00000000000E+00  0.00000000000E+00  0.16073779574E+04  0.16073779574E+04  0.00000000000E+00 0. -1.
         21   -1    0    0  502  503 -0.00000000000E+00 -0.00000000000E+00 -0.31315911742E+02  0.31315911742E+02  0.00000000000E+00 0. -1.
         -6    2    1    2    0  503  0.90591957917E+02 -0.11119153081E+03  0.80770871562E+03  0.83824141331E+03  0.17229288534E+03 0.  0.
        -24    2    3    3    0    0  0.65005263039E+02 -0.13428811023E+03  0.46951627497E+03  0.49826443196E+03  0.74585058297E+02 0.  0.
          6    2    1    2  501    0 -0.90591957917E+02  0.11119153081E+03  0.76835333006E+03  0.80045245586E+03  0.17258862913E+03 0.  0.
         24    2    5    5    0    0  0.16486725929E+02  0.21492658992E+02  0.30841252318E+03  0.31974530178E+03  0.79906364186E+02 0.  0.
          5    1    5    5  501    0 -0.10707868385E+03  0.89698871814E+02  0.45994080688E+03  0.48070715407E+03  0.47000000000E+01 0. -1.
        -15    1    6    6    0    0 -0.31926260393E+02  0.43224187429E+01  0.14016198592E+03  0.14382805510E+03  0.17770000000E+01 0.  1.
         16    1    6    6    0    0  0.48412986322E+02  0.17170240249E+02  0.16825053726E+03  0.17591724669E+03  0.00000000000E+00 0. -1.
         -5    1    3    3    0  503  0.25586694878E+02  0.23096579427E+02  0.33819244064E+03  0.33997698135E+03  0.47000000000E+01 0.  1.
         15    1    4    4    0    0  0.71400426690E+02 -0.72496905247E+02  0.33458069048E+03  0.34971591095E+03  0.17770000000E+01 0. -1.
        -16    1    4    4    0    0 -0.63951636507E+01 -0.61791204987E+02  0.13493558449E+03  0.14854852101E+03  0.00000000000E+00 0.  1.
<mgrwt>
<rscale>  2 0.22434744E+03</rscale>
<asrwt>0</asrwt>
<pdfrwt beam="1">  1       21 0.24728885E+00 0.22440431E+03</pdfrwt>
<pdfrwt beam="2">  1       21 0.48178338E-02 0.22440431E+03</pdfrwt>
<totfact> 0.19247332E+04</totfact>
</mgrwt>
</event>
<event>
12    2  0.4090627E-002  0.1833423E+03  0.7546771E-02  0.1164979E+00
         21   -1    0    0  501  502  0.00000000000E+00  0.00000000000E+00  0.24057627568E+03  0.24057627568E+03  0.00000000000E+00 0. -1.
         21   -1    0    0  502  503 -0.00000000000E+00 -0.00000000000E+00 -0.17741110980E+03  0.17741110980E+03  0.00000000000E+00 0. -1.
         -6    2    1    2    0  503  0.40672595860E+02 -0.42320306132E+02 -0.66145660459E+02  0.19490929953E+03  0.17369259708E+03 0.  0.
        -24    2    3    3    0    0  0.10597980364E+02  0.26214136120E+02 -0.83969677049E+02  0.11782987400E+03  0.77675442861E+02 0.  0.
          6    2    1    2  501    0 -0.40672595860E+02  0.42320306132E+02  0.12931082633E+03  0.22307808595E+03  0.17203858363E+03 0.  0.
         24    2    5    5    0    0 -0.68927147583E+02  0.53051895080E+02  0.34695612697E+02  0.12364159694E+03  0.80734154536E+02 0.  0.
          5    1    5    5  501    0  0.28254551724E+02 -0.10731588948E+02  0.94615213637E+02  0.99436489007E+02  0.47000000000E+01 0. -1.
        -15    1    6    6    0    0  0.48350566980E+01 -0.20304689798E+01 -0.17125945144E+02  0.17998786170E+02  0.17770000000E+01 0.  1.
         16    1    6    6    0    0 -0.73762204281E+02  0.55082364060E+02  0.51821557841E+02  0.10564281077E+03  0.00000000000E+00 0. -1.
         -5    1    3    3    0  503  0.30074615496E+02 -0.68534442252E+02  0.17824016590E+02  0.77079425526E+02  0.47000000000E+01 0.  1.
         15    1    4    4    0    0  0.42493687274E+02  0.23336517480E+02 -0.37140683187E+02  0.61097418790E+02  0.17770000000E+01 0. -1.
        -16    1    4    4    0    0 -0.31895706911E+02  0.28776186402E+01 -0.46828993862E+02  0.56732455213E+02  0.00000000000E+00 0.  1.
<mgrwt>
<rscale>  2 0.18294946E+03</rscale>
<asrwt>0</asrwt>
<pdfrwt beam="1">  1       21 0.37011735E-01 0.18334227E+03</pdfrwt>
<pdfrwt beam="2">  1       21 0.27294017E-01 0.18334227E+03</pdfrwt>
<totfact> 0.90438807E+04</totfact>
</mgrwt>
</event>
<event>
12    2  0.4090627E-002  0.2593590E+03  0.7546771E-02  0.1108706E+00
         21   -1    0    0  503  502  0.00000000000E+00  0.00000000000E+00  0.69346464693E+02  0.69346464693E+02  0.00000000000E+00 0. -1.
         21   -1    0    0  501  503 -0.00000000000E+00 -0.00000000000E+00 -0.11347626187E+04  0.11347626187E+04  0.00000000000E+00 0.  1.
          6    2    1    2  501    0 -0.16266628128E+03 -0.59024469819E+02 -0.77450764260E+03  0.81437220816E+03  0.18274517196E+03 0.  0.
         24    2    3    3    0    0 -0.14117343447E+03 -0.25339956416E+01 -0.37297462377E+03  0.40828850823E+03  0.87481862369E+02 0.  0.
         -6    2    1    2    0  502  0.16266628128E+03  0.59024469819E+02 -0.29090851141E+03  0.38973687523E+03  0.19319125964E+03 0.  0.
        -24    2    5    5    0    0  0.18116263010E+03  0.71290692082E+02 -0.18228450613E+03  0.27876913375E+03  0.81131544019E+02 0.  0.
          5    1    3    3  501    0 -0.21492846811E+02 -0.56490474178E+02 -0.40153301883E+03  0.40608369993E+03  0.47000000000E+01 0. -1.
        -15    1    4    4    0    0 -0.10445951687E+03 -0.39708622261E+02 -0.22235966352E+03  0.24886852561E+03  0.17770000000E+01 0.  1.
         16    1    4    4    0    0 -0.36713917599E+02  0.37174626619E+02 -0.15061496025E+03  0.15941998262E+03  0.00000000000E+00 0. -1.
         -5    1    5    5    0  502 -0.18496348812E+02 -0.12266222262E+02 -0.10862400527E+03  0.11096774148E+03  0.47000000000E+01 0.  1.
         15    1    6    6    0    0  0.17964791626E+02  0.33766514485E+02 -0.12449785027E+02  0.40262465335E+02  0.17770000000E+01 0. -1.
        -16    1    6    6    0    0  0.16319783847E+03  0.37524177597E+02 -0.16983472111E+03  0.23850666842E+03  0.00000000000E+00 0.  1.
<mgrwt>
<rscale>  2 0.25741610E+03</rscale>
<asrwt>0</asrwt>
<pdfrwt beam="1">  1       21 0.10668688E-01 0.25935896E+03</pdfrwt>
<pdfrwt beam="2">  1       21 0.17457884E+00 0.25935896E+03</pdfrwt>
<totfact> 0.13718315E+04</totfact>
</mgrwt>
</event>
<event>
12    2  0.4090627E-002  0.2668362E+03  0.7546771E-02  0.1103126E+00
         21   -1    0    0  501  502  0.00000000000E+00  0.00000000000E+00  0.22856938284E+03  0.22856938284E+03  0.00000000000E+00 0.  1.
         21   -1    0    0  502  503 -0.00000000000E+00 -0.00000000000E+00 -0.37676896300E+03  0.37676896300E+03  0.00000000000E+00 0.  1.
         -6    2    1    2    0  503 -0.38656969514E+02  0.19914200080E+03  0.52052265206E+02  0.27171827019E+03  0.17311696124E+03 0.  0.
        -24    2    3    3    0    0 -0.42690491019E+02  0.92027006600E+02  0.88646540233E+02  0.15835547981E+03  0.83227404884E+02 0.  0.
          6    2    1    2  501    0  0.38656969514E+02 -0.19914200080E+03 -0.20025184536E+03  0.33362007565E+03  0.17334836466E+03 0.  0.
         24    2    5    5    0    0  0.89540335130E+02 -0.13560609214E+03 -0.16261491003E+03  0.24381719436E+03  0.81220265108E+02 0.  0.
          5    1    5    5  501    0 -0.50883365616E+02 -0.63535908663E+02 -0.37636935333E+02  0.89802881286E+02  0.47000000000E+01 0. -1.
        -15    1    6    6    0    0  0.41560864579E+02 -0.10203634596E+03 -0.59482024703E+02  0.12521976822E+03  0.17770000000E+01 0.  1.
         16    1    6    6    0    0  0.47979470551E+02 -0.33569746180E+02 -0.10313288532E+03  0.11859742615E+03  0.00000000000E+00 0. -1.
         -5    1    3    3    0  503  0.40335215053E+01  0.10711499420E+03 -0.36594275027E+02  0.11336279038E+03  0.47000000000E+01 0.  1.
         15    1    4    4    0    0 -0.53691145553E+02  0.21316975815E+02  0.52958488055E+02  0.78389487527E+02  0.17770000000E+01 0. -1.
        -16    1    4    4    0    0  0.11000654534E+02  0.70710030784E+02  0.35688052178E+02  0.79965992284E+02  0.00000000000E+00 0.  1.
<mgrwt>
<rscale>  2 0.26679862E+03</rscale>
<asrwt>0</asrwt>
<pdfrwt beam="1">  1       21 0.35164520E-01 0.26683619E+03</pdfrwt>
<pdfrwt beam="2">  1       21 0.57964456E-01 0.26683619E+03</pdfrwt>
<totfact> 0.20925324E+04</totfact>
</mgrwt>
</event>
<event>
12    2  0.4090627E-002  0.3302743E+03  0.7546771E-02  0.1071173E+00
         21   -1    0    0  503  502  0.00000000000E+00  0.00000000000E+00  0.60629561381E+03  0.60629561381E+03  0.00000000000E+00 0.  1.
         21   -1    0    0  501  503 -0.00000000000E+00 -0.00000000000E+00 -0.21321276067E+03  0.21321276067E+03  0.00000000000E+00 0.  1.
          6    2    1    2  501    0 -0.19034779360E+03 -0.20460390259E+03  0.35998236476E+03  0.48757954443E+03  0.17335359739E+03 0.  0.
         24    2    3    3    0    0 -0.15359858120E+03 -0.22342965839E+03  0.28353752351E+03  0.40056909996E+03  0.80924286889E+02 0.  0.
         -6    2    1    2    0  502  0.19034779360E+03  0.20460390259E+03  0.33100488381E+02  0.33192883005E+03  0.17602859542E+03 0.  0.
        -24    2    5    5    0    0  0.84775457290E+01  0.48084269173E+02  0.20429770032E+02  0.91600263692E+02  0.74761401013E+02 0.  0.
          5    1    3    3  501    0 -0.36749212404E+02  0.18825755803E+02  0.76444841248E+02  0.87010444473E+02  0.47000000000E+01 0. -1.
        -15    1    4    4    0    0 -0.21247987093E+02 -0.23420778073E+01  0.69414928703E+01  0.22545605696E+02  0.17770000000E+01 0.  1.
         16    1    4    4    0    0 -0.13235059411E+03 -0.22108758058E+03  0.27659603064E+03  0.37802349426E+03  0.00000000000E+00 0. -1.
         -5    1    5    5    0  502  0.18187024787E+03  0.15651963341E+03  0.12670718349E+02  0.24032856636E+03  0.47000000000E+01 0.  1.
         15    1    6    6    0    0 -0.26813368480E+02  0.45526886362E+02  0.19037904953E+02  0.56189444428E+02  0.17770000000E+01 0. -1.
        -16    1    6    6    0    0  0.35290914209E+02  0.25573828108E+01  0.13918650783E+01  0.35410819264E+02  0.00000000000E+00 0.  1.
<mgrwt>
<rscale>  2 0.32991924E+03</rscale>
<asrwt>0</asrwt>
<pdfrwt beam="1">  1       21 0.93276248E-01 0.33027429E+03</pdfrwt>
<pdfrwt beam="2">  1       21 0.32801963E-01 0.33027429E+03</pdfrwt>
<totfact> 0.80056534E+03</totfact>
</mgrwt>
</event>
<event>
12    2  0.4090627E-002  0.1989194E+03  0.7546771E-02  0.1150904E+00
         21   -1    0    0  501  502  0.00000000000E+00  0.00000000000E+00  0.17321844026E+03  0.17321844026E+03  0.00000000000E+00 0. -1.
         21   -1    0    0  502  503 -0.00000000000E+00 -0.00000000000E+00 -0.31747550286E+03  0.31747550286E+03  0.00000000000E+00 0. -1.
         -6    2    1    2    0  503 -0.82702568000E+02 -0.51519981207E+02 -0.20288706194E+03  0.28331411362E+03  0.17207470429E+03 0.  0.
        -24    2    3    3    0    0 -0.32448449237E+02 -0.24205264099E+02 -0.20658332206E+03  0.22580478775E+03  0.81684371502E+02 0.  0.
          6    2    1    2  501    0  0.82702568000E+02  0.51519981207E+02  0.58629999341E+02  0.20737982950E+03  0.17342114532E+03 0.  0.
         24    2    5    5    0    0  0.56703491919E+01  0.48040807755E+02 -0.20337613580E+02  0.96907926864E+02  0.81470581766E+02 0.  0.
          5    1    5    5  501    0  0.77032218808E+02  0.34791734519E+01  0.78967612921E+02  0.11047190264E+03  0.47000000000E+01 0. -1.
        -15    1    6    6    0    0  0.31711952304E+02  0.50313129264E+02 -0.32807756879E+02  0.67945312831E+02  0.17770000000E+01 0.  1.
         16    1    6    6    0    0 -0.26041603113E+02 -0.22723215090E+01  0.12470143299E+02  0.28962614033E+02  0.00000000000E+00 0. -1.
         -5    1    3    3    0  503 -0.50254118763E+02 -0.27314717108E+02  0.36962601245E+01  0.57509325872E+02  0.47000000000E+01 0.  1.
         15    1    4    4    0    0 -0.18915049767E+02 -0.53764353188E+02 -0.11007530109E+03  0.12396819923E+03  0.17770000000E+01 0. -1.
        -16    1    4    4    0    0 -0.13533399470E+02  0.29559089089E+02 -0.96508020970E+02  0.10183658852E+03  0.00000000000E+00 0.  1.
<mgrwt>
<rscale>  2 0.19862553E+03</rscale>
<asrwt>0</asrwt>
<pdfrwt beam="1">  1       21 0.26648991E-01 0.19891937E+03</pdfrwt>
<pdfrwt beam="2">  1       21 0.48842385E-01 0.19891937E+03</pdfrwt>
<totfact> 0.53459488E+04</totfact>
</mgrwt>
</event>
<event>
12    2  0.4090627E-002  0.2126623E+03  0.7546771E-02  0.1139796E+00
         21   -1    0    0  503  502  0.00000000000E+00  0.00000000000E+00  0.10052800378E+04  0.10052800378E+04  0.00000000000E+00 0. -1.
         21   -1    0    0  501  503 -0.00000000000E+00 -0.00000000000E+00 -0.48109003091E+02  0.48109003091E+02  0.00000000000E+00 0. -1.
          6    2    1    2  501    0 -0.60143847960E+02  0.10730476864E+03  0.33889987045E+03  0.40009793386E+03  0.17347518170E+03 0.  0.
         24    2    3    3    0    0  0.49898906004E+01  0.91001711945E+02  0.29702913477E+03  0.32082976835E+03  0.79995142177E+02 0.  0.
         -6    2    1    2    0  502  0.60143847960E+02 -0.10730476864E+03  0.61827116424E+03  0.65329110702E+03  0.17145973916E+03 0.  0.
        -24    2    5    5    0    0  0.94963620110E+02 -0.34051586552E+02  0.36273789353E+03  0.38515347881E+03  0.81159245605E+02 0.  0.
          5    1    3    3  501    0 -0.65133738560E+02  0.16303056695E+02  0.41870735677E+02  0.79268165505E+02  0.47000000000E+01 0. -1.
        -15    1    4    4    0    0 -0.22237443267E+02  0.56805235967E+02  0.86817812484E+02  0.10612176501E+03  0.17770000000E+01 0.  1.
         16    1    4    4    0    0  0.27227333867E+02  0.34196475979E+02  0.21021132229E+03  0.21470800334E+03  0.00000000000E+00 0. -1.
         -5    1    5    5    0  502 -0.34819772150E+02 -0.73253182088E+02  0.25553327072E+03  0.26813762821E+03  0.47000000000E+01 0.  1.
         15    1    6    6    0    0  0.35224909128E+01  0.17294520466E+02  0.11156675212E+03  0.11296816493E+03  0.17770000000E+01 0. -1.
        -16    1    6    6    0    0  0.91441129197E+02 -0.51346107018E+02  0.25117114140E+03  0.27218531387E+03  0.00000000000E+00 0.  1.
<mgrwt>
<rscale>  2 0.21225085E+03</rscale>
<asrwt>0</asrwt>
<pdfrwt beam="1">  1       21 0.15465845E+00 0.21266225E+03</pdfrwt>
<pdfrwt beam="2">  1       21 0.74013858E-02 0.21266225E+03</pdfrwt>
<totfact> 0.37416750E+04</totfact>
</mgrwt>
</event>
<event>
12    2  0.4090627E-002  0.1925710E+03  0.7546771E-02  0.1156797E+00
         21   -1    0    0  501  502  0.00000000000E+00  0.00000000000E+00  0.23248140510E+03  0.23248140510E+03  0.00000000000E+00 0. -1.
         21   -1    0    0  502  503 -0.00000000000E+00 -0.00000000000E+00 -0.30548615679E+03  0.30548615679E+03  0.00000000000E+00 0. -1.
         -6    2    1    2    0  503  0.65702059516E+02  0.37737943402E+02 -0.22406456154E+03  0.29544627262E+03  0.17703858131E+03 0.  0.
        -24    2    3    3    0    0  0.52246626003E+02  0.12043564560E+01 -0.23591413240E+03  0.25447977417E+03  0.79833058268E+02 0.  0.
          6    2    1    2  501    0 -0.65702059516E+02 -0.37737943402E+02  0.15105980985E+03  0.24252128926E+03  0.17394423415E+03 0.  0.
         24    2    5    5    0    0 -0.50120420044E+02  0.24968745995E+02  0.11177072055E+03  0.16675428508E+03  0.11035761342E+03 0.  0.
          5    1    5    5  501    0 -0.15581639472E+02 -0.62706689397E+02  0.39289089307E+02  0.75767004180E+02  0.47000000000E+01 0. -1.
        -15    1    6    6    0    0 -0.83258938425E+02  0.18542275248E+02  0.57647518837E+02  0.10296728100E+03  0.17770000000E+01 0.  1.
         16    1    6    6    0    0  0.33138518381E+02  0.64264707468E+01  0.54123201708E+02  0.63787004083E+02  0.00000000000E+00 0. -1.
         -5    1    3    3    0  503  0.13455433513E+02  0.36533586946E+02  0.11849570858E+02  0.40966498455E+02  0.47000000000E+01 0.  1.
         15    1    4    4    0    0 -0.20576727319E+02  0.77625380050E+01 -0.47452299454E+02  0.52331034347E+02  0.17770000000E+01 0. -1.
        -16    1    4    4    0    0  0.72823353322E+02 -0.65581815489E+01 -0.18846183295E+03  0.20214873982E+03  0.00000000000E+00 0.  1.
<mgrwt>
<rscale>  2 0.19185678E+03</rscale>
<asrwt>0</asrwt>
<pdfrwt beam="1">  1       21 0.35766370E-01 0.19257095E+03</pdfrwt>
<pdfrwt beam="2">  1       21 0.46997870E-01 0.19257095E+03</pdfrwt>
<totfact> 0.32665048E+04</totfact>
</mgrwt>
</event>
<event>
12    2  0.4090627E-002  0.1764664E+03  0.7546771E-02  0.1171493E+00
         21   -1    0    0  503  502  0.00000000000E+00  0.00000000000E+00  0.14225640477E+03  0.14225640477E+03  0.00000000000E+00 0. -1.
         21   -1    0    0  501  503 -0.00000000000E+00 -0.00000000000E+00 -0.26403936122E+03  0.26403936122E+03  0.00000000000E+00 0. -1.
          6    2    1    2  501    0  0.25377931174E+02 -0.21958384506E+02 -0.14579376972E+03  0.22820330047E+03  0.17232153962E+03 0.  0.
         24    2    3    3    0    0 -0.36295702257E+02 -0.83401678872E+01 -0.13891996845E+03  0.16449747634E+03  0.79835616642E+02 0.  0.
         -6    2    1    2    0  502 -0.25377931174E+02  0.21958384506E+02  0.24010813274E+02  0.17809246551E+03  0.17324605934E+03 0.  0.
        -24    2    5    5    0    0  0.53274308687E+01  0.58014986878E+02  0.61973559063E+02  0.11721424362E+03  0.80649467842E+02 0.  0.
          5    1    3    3  501    0  0.61673633432E+02 -0.13618216619E+02 -0.68738012651E+01  0.63705824132E+02  0.47000000000E+01 0. -1.
        -15    1    4    4    0    0 -0.54210786617E+02  0.11173952585E+02 -0.61938177904E+02  0.83085270735E+02  0.17770000000E+01 0.  1.
         16    1    4    4    0    0  0.17915084360E+02 -0.19514120472E+02 -0.76981790550E+02  0.81412205606E+02  0.00000000000E+00 0. -1.
         -5    1    5    5    0  502 -0.30705362043E+02 -0.36056602372E+02 -0.37962745789E+02  0.60878221891E+02  0.47000000000E+01 0.  1.
         15    1    6    6    0    0 -0.29359684967E+02  0.53497967505E+02  0.53611065018E+02  0.81248554756E+02  0.17770000000E+01 0. -1.
        -16    1    6    6    0    0  0.34687115836E+02  0.45170193729E+01  0.83624940448E+01  0.35965688867E+02  0.00000000000E+00 0.  1.
<mgrwt>
<rscale>  2 0.17623912E+03</rscale>
<asrwt>0</asrwt>
<pdfrwt beam="1">  1       21 0.21885601E-01 0.17646645E+03</pdfrwt>
<pdfrwt beam="2">  1       21 0.40621440E-01 0.17646645E+03</pdfrwt>
<totfact> 0.11448194E+05</totfact>
</mgrwt>
</event>
<event>
12    2  0.4090627E-002  0.2264122E+03  0.7546771E-02  0.1129240E+00
         21   -1    0    0  501  502  0.00000000000E+00  0.00000000000E+00  0.10239995853E+03  0.10239995853E+03  0.00000000000E+00 0. -1.
         21   -1    0    0  502  503 -0.00000000000E+00 -0.00000000000E+00 -0.50409504911E+03  0.50409504911E+03  0.00000000000E+00 0. -1.
         -6    2    1    2    0  503 -0.63471704207E+02 -0.13183447636E+03 -0.22826477393E+03  0.32150780947E+03  0.17278159087E+03 0.  0.
        -24    2    3    3    0    0 -0.89494919772E+02 -0.54856568701E+02 -0.19101638908E+03  0.23199614437E+03  0.79475570523E+02 0.  0.
          6    2    1    2  501    0  0.63471704207E+02  0.13183447636E+03 -0.17343031665E+03  0.28498719817E+03  0.17242575792E+03 0.  0.
         24    2    5    5    0    0  0.79591393721E+02  0.28255647209E+02 -0.61777997803E+02  0.13176595766E+03  0.80078555385E+02 0.  0.
          5    1    5    5  501    0 -0.16119689514E+02  0.10357882915E+03 -0.11165231884E+03  0.15322124050E+03  0.47000000000E+01 0. -1.
        -15    1    6    6    0    0 -0.10661433503E+02 -0.73437586685E+01  0.49939984255E+01  0.13989092358E+02  0.17770000000E+01 0.  1.
         16    1    6    6    0    0  0.90252827224E+02  0.35599405878E+02 -0.66771996229E+02  0.11777686531E+03  0.00000000000E+00 0. -1.
         -5    1    3    3    0  503  0.26023215565E+02 -0.76977907660E+02 -0.37248384851E+02  0.89511665106E+02  0.47000000000E+01 0.  1.
         15    1    4    4    0    0 -0.83874758826E+02 -0.70421625674E+02 -0.18375727857E+03  0.21392539748E+03  0.17770000000E+01 0. -1.
        -16    1    4    4    0    0 -0.56201609460E+01  0.15565056973E+02 -0.72591105062E+01  0.18070746885E+02  0.00000000000E+00 0.  1.
<mgrwt>
<rscale>  2 0.22634427E+03</rscale>
<asrwt>0</asrwt>
<pdfrwt beam="1">  1       21 0.15753840E-01 0.22641216E+03</pdfrwt>
<pdfrwt beam="2">  1       21 0.77553085E-01 0.22641216E+03</pdfrwt>
<totfact> 0.52074363E+04</totfact>
</mgrwt>
</event>
<event>
12    2  0.4090627E-002  0.2109299E+03  0.7546771E-02  0.1140882E+00
         21   -1    0    0  501  502  0.00000000000E+00  0.00000000000E+00  0.41596671395E+03  0.41596671395E+03  0.00000000000E+00 0. -1.
         21   -1    0    0  502  503 -0.00000000000E+00 -0.00000000000E+00 -0.10721555776E+03  0.10721555776E+03  0.00000000000E+00 0. -1.
         -6    2    1    2    0  503 -0.52088210226E+02 -0.10860250820E+03  0.13857173779E+03  0.25216113696E+03  0.17284509263E+03 0.  0.
        -24    2    3    3    0    0 -0.58824309679E+02  0.13976594200E+01  0.61950698890E+02  0.11785445241E+03  0.81175920070E+02 0.  0.
          6    2    1    2  501    0  0.52088210226E+02  0.10860250820E+03  0.17017941840E+03  0.27102113475E+03  0.17315812024E+03 0.  0.
         24    2    5    5    0    0 -0.29289877557E+02  0.20054246971E+02  0.96394130279E+02  0.12984908908E+03  0.79428507687E+02 0.  0.
          5    1    5    5  501    0  0.81378087783E+02  0.88548261228E+02  0.73785288118E+02  0.14117204568E+03  0.47000000000E+01 0. -1.
        -15    1    6    6    0    0 -0.38823596400E+02  0.43489982022E+02  0.82348106756E+02  0.10091094385E+03  0.17770000000E+01 0.  1.
         16    1    6    6    0    0  0.95337188429E+01 -0.23435735051E+02  0.14046023523E+02  0.28938145227E+02  0.00000000000E+00 0. -1.
         -5    1    3    3    0  503  0.67360994523E+01 -0.11000016762E+03  0.76621038903E+02  0.13430668455E+03  0.47000000000E+01 0.  1.
         15    1    4    4    0    0 -0.25658218565E+02 -0.21312610143E+02  0.69357160542E+02  0.76981458667E+02  0.17770000000E+01 0. -1.
        -16    1    4    4    0    0 -0.33166091114E+02  0.22710269563E+02 -0.74064616524E+01  0.40872993744E+02  0.00000000000E+00 0.  1.
<mgrwt>
<rscale>  2 0.21086564E+03</rscale>
<asrwt>0</asrwt>
<pdfrwt beam="1">  1       21 0.63994878E-01 0.21092990E+03</pdfrwt>
<pdfrwt beam="2">  1       21 0.16494701E-01 0.21092990E+03</pdfrwt>
<totfact> 0.73748369E+04</totfact>
</mgrwt>
</event>
<event>
12    2  0.4090627E-002  0.3211668E+03  0.7546771E-02  0.1075282E+00
         21   -1    0    0  503  502  0.00000000000E+00  0.00000000000E+00  0.44699106590E+03  0.44699106590E+03  0.00000000000E+00 0.  1.
         21   -1    0    0  501  503 -0.00000000000E+00 -0.00000000000E+00 -0.14641695263E+04  0.14641695263E+04  0.00000000000E+00 0. -1.
          6    2    1    2  501    0  0.13991472089E+03 -0.23114531693E+03 -0.13858313958E+04  0.14222299998E+04  0.17089537120E+03 0.  0.
         24    2    3    3    0    0  0.35119666568E+01 -0.60134631793E+02 -0.47640516843E+03  0.48685386212E+03  0.80226496258E+02 0.  0.
         -6    2    1    2    0  502 -0.13991472089E+03  0.23114531693E+03  0.36865293541E+03  0.48893059247E+03  0.17361984566E+03 0.  0.
        -24    2    5    5    0    0 -0.86559452957E+02  0.17900900165E+03  0.35251698317E+03  0.41246204376E+03  0.79498129233E+02 0.  0.
          5    1    3    3  501    0  0.13640275423E+03 -0.17101068514E+03 -0.90942622740E+03  0.93537613765E+03  0.47000000000E+01 0. -1.
        -15    1    4    4    0    0  0.20790963417E+02 -0.44766211851E+02 -0.12093016415E+03  0.13062748644E+03  0.17770000000E+01 0.  1.
         16    1    4    4    0    0 -0.17278996761E+02 -0.15368419941E+02 -0.35547500428E+03  0.35622637568E+03  0.00000000000E+00 0. -1.
         -5    1    5    5    0  502 -0.53355267929E+02  0.52136315282E+02  0.16135952237E+02  0.76468548709E+02  0.47000000000E+01 0.  1.
         15    1    6    6    0    0 -0.17664957619E+02  0.43436664291E+02  0.16219182869E+03  0.16884354164E+03  0.17770000000E+01 0. -1.
        -16    1    6    6    0    0 -0.68894495339E+02  0.13557233736E+03  0.19032515448E+03  0.24361850212E+03  0.00000000000E+00 0.  1.
<mgrwt>
<rscale>  2 0.32080006E+03</rscale>
<asrwt>0</asrwt>
<pdfrwt beam="1">  1       21 0.68767856E-01 0.32116684E+03</pdfrwt>
<pdfrwt beam="2">  1       21 0.22525685E+00 0.32116684E+03</pdfrwt>
<totfact> 0.15671796E+02</totfact>
</mgrwt>
</event>
<event>
12    2  0.4090627E-002  0.2246290E+03  0.7546771E-02  0.1130513E+00
         21   -1    0    0  501  502  0.00000000000E+00  0.00000000000E+00  0.29680303644E+03  0.29680303644E+03  0.00000000000E+00 0.  1.
         21   -1    0    0  502  503 -0.00000000000E+00 -0.00000000000E+00 -0.17366065329E+03  0.17366065329E+03  0.00000000000E+00 0. -1.
         -6    2    1    2    0  503  0.58888039821E+01 -0.14247560613E+03  0.26743759849E+02  0.22602377214E+03  0.17331341705E+03 0.  0.
        -24    2    3    3    0    0 -0.33224373300E+02 -0.59336707285E+02  0.67649911188E+02  0.12533951143E+03  0.80677003100E+02 0.  0.
          6    2    1    2  501    0 -0.58888039821E+01  0.14247560613E+03  0.96398623306E+02  0.24443991759E+03  0.17356325182E+03 0.  0.
         24    2    5    5    0    0 -0.75354678487E+01  0.13404551875E+03  0.94525430540E+01  0.15694426772E+03  0.80728980102E+02 0.  0.
          5    1    5    5  501    0  0.16466638666E+01  0.84300873850E+01  0.86946080252E+02  0.87495649871E+02  0.47000000000E+01 0. -1.
        -15    1    6    6    0    0  0.20480853869E+02  0.78492006030E+02  0.36660495322E+02  0.89037127268E+02  0.17770000000E+01 0.  1.
         16    1    6    6    0    0 -0.28016321718E+02  0.55553512715E+02 -0.27207952268E+02  0.67907140451E+02  0.00000000000E+00 0. -1.
         -5    1    3    3    0  503  0.39113177282E+02 -0.83138898845E+02 -0.40906151339E+02  0.10068426071E+03  0.47000000000E+01 0.  1.
         15    1    4    4    0    0  0.20501142142E+02 -0.10183108673E+01  0.32780669056E+02  0.38717745013E+02  0.17770000000E+01 0. -1.
        -16    1    4    4    0    0 -0.53725515442E+02 -0.58318396418E+02  0.34869242132E+02  0.86621766417E+02  0.00000000000E+00 0.  1.
<mgrwt>
<rscale>  2 0.22458072E+03</rscale>
<asrwt>0</asrwt>
<pdfrwt beam="1">  1       21 0.45662005E-01 0.22462898E+03</pdfrwt>
<pdfrwt beam="2">  1       21 0.26717024E-01 0.22462898E+03</pdfrwt>
<totfact> 0.60458761E+04</totfact>
</mgrwt>
</event>
<event>
12    2  0.4090627E-002  0.1759186E+03  0.7546771E-02  0.1172030E+00
         21   -1    0    0  501  502  0.00000000000E+00  0.00000000000E+00  0.34010450896E+02  0.34010450896E+02  0.00000000000E+00 0. -1.
         21   -1    0    0  502  503 -0.00000000000E+00 -0.00000000000E+00 -0.92691790471E+03  0.92691790471E+03  0.00000000000E+00 0. -1.
         -6    2    1    2    0  503  0.73681583415E+01  0.17287966469E+02 -0.37222782060E+03  0.41133339806E+03  0.17403577329E+03 0.  0.
        -24    2    3    3    0    0 -0.17983603429E+02 -0.13484133396E+01 -0.37066725271E+03  0.37948136752E+03  0.79288510196E+02 0.  0.
          6    2    1    2  501    0 -0.73681583415E+01 -0.17287966469E+02 -0.52067963321E+03  0.54959495755E+03  0.17491190177E+03 0.  0.
         24    2    5    5    0    0 -0.49908158159E+02  0.23925264392E+01 -0.16795649195E+03  0.19374010263E+03  0.82639553159E+02 0.  0.
          5    1    5    5  501    0  0.42539999818E+02 -0.19680492908E+02 -0.35272314126E+03  0.35585485491E+03  0.47000000000E+01 0. -1.
        -15    1    6    6    0    0 -0.27937365738E+02 -0.26869317140E+02 -0.24962139326E+02  0.46138083366E+02  0.17770000000E+01 0.  1.
         16    1    6    6    0    0 -0.21970792421E+02  0.29261843579E+02 -0.14299435262E+03  0.14760201927E+03  0.00000000000E+00 0. -1.
         -5    1    3    3    0  503  0.25351761770E+02  0.18636379808E+02 -0.15605678869E+01  0.31852030537E+02  0.47000000000E+01 0.  1.
         15    1    4    4    0    0 -0.59947293993E+01  0.20739216913E+02 -0.25747852839E+02  0.33647608438E+02  0.17770000000E+01 0. -1.
        -16    1    4    4    0    0 -0.11988874030E+02 -0.22087630253E+02 -0.34491939987E+03  0.34583375908E+03  0.00000000000E+00 0.  1.
<mgrwt>
<rscale>  2 0.17570037E+03</rscale>
<asrwt>0</asrwt>
<pdfrwt beam="1">  1       21 0.52323770E-02 0.17591855E+03</pdfrwt>
<pdfrwt beam="2">  1       21 0.14260276E+00 0.17591855E+03</pdfrwt>
<totfact> 0.85652840E+04</totfact>
</mgrwt>
</event>
<event>
11    2  0.4090627E-002  0.1931259E+03  0.7546771E-02  0.1156302E+00
         21   -1    0    0  503  502  0.00000000000E+00  0.00000000000E+00  0.37749158795E+03  0.37749158795E+03  0.00000000000E+00 0. -1.
         21   -1    0    0  501  503 -0.00000000000E+00 -0.00000000000E+00 -0.10003425792E+03  0.10003425792E+03  0.00000000000E+00 0. -1.
          6    2    1    2  501    0 -0.82996178555E+02 -0.17781003530E+02  0.17875540928E+03  0.26315603587E+03  0.17347355166E+03 0.  0.
         -6    2    1    2    0  502  0.82996178555E+02  0.17781003530E+02  0.98701920750E+02  0.21436981001E+03  0.17031681227E+03 0.  0.
        -24    2    4    4    0    0  0.85943309147E+02 -0.42098898810E+02  0.40384482996E+02  0.13060047296E+03  0.79164432688E+02 0.  0.
          5    1    3    3  501    0 -0.12636993245E+03  0.17198291146E+02  0.13068105697E+03  0.18266025757E+03  0.47000000000E+01 0. -1.
        -15    1    3    3    0    0  0.30501814592E+02 -0.39456034695E+02  0.31396480553E+02  0.58957917936E+02  0.17770000000E+01 0.  1.
         16    1    3    3    0    0  0.12871939300E+02  0.44767400188E+01  0.16677871756E+02  0.21537860359E+02  0.00000000000E+00 0. -1.
         -5    1    4    4    0  502 -0.29471305916E+01  0.59879902340E+02  0.58317437754E+02  0.83769337046E+02  0.47000000000E+01 0.  1.
         15    1    5    5    0    0  0.42723645677E+02  0.19419112461E+02  0.27197148271E+02  0.54270198376E+02  0.17770000000E+01 0. -1.
        -16    1    5    5    0    0  0.43219663471E+02 -0.61518011271E+02  0.13187334724E+02  0.76330274586E+02  0.00000000000E+00 0.  1.
<mgrwt>
<rscale>  2 0.19241434E+03</rscale>
<asrwt>0</asrwt>
<pdfrwt beam="1">  1       21 0.58075628E-01 0.19312587E+03</pdfrwt>
<pdfrwt beam="2">  1       21 0.15389886E-01 0.19312587E+03</pdfrwt>
<totfact> 0.10400564E+05</totfact>
</mgrwt>
</event>
<event>
12    2  0.4090627E-002  0.2149983E+03  0.7546771E-02  0.1138069E+00
         21   -1    0    0  501  502  0.00000000000E+00  0.00000000000E+00  0.15608948715E+04  0.15608948715E+04  0.00000000000E+00 0.  1.
         21   -1    0    0  502  503 -0.00000000000E+00 -0.00000000000E+00 -0.30461833867E+02  0.30461833867E+02  0.00000000000E+00 0. -1.
         -6    2    1    2    0  503  0.11507544560E+03  0.51777257925E+02  0.61533094570E+03  0.65181014239E+03  0.17407195745E+03 0.  0.
        -24    2    3    3    0    0  0.51132425348E+02  0.25945955384E+02  0.13584431683E+03  0.16736666447E+03  0.79184622494E+02 0.  0.
          6    2    1    2  501    0 -0.11507544560E+03 -0.51777257925E+02  0.91510209195E+03  0.93954656299E+03  0.17150120328E+03 0.  0.
         24    2    5    5    0    0 -0.13416401136E+03 -0.25262862768E+02  0.86665879802E+03  0.88092720424E+03  0.79354097637E+02 0.  0.
          5    1    5    5  501    0  0.19088565767E+02 -0.26514395157E+02  0.48443293932E+02  0.58619358753E+02  0.47000000000E+01 0. -1.
        -15    1    6    6    0    0 -0.18366878182E+02 -0.15415734051E+02  0.37296903709E+03  0.37374329081E+03  0.17770000000E+01 0.  1.
         16    1    6    6    0    0 -0.11579713318E+03 -0.98471287172E+01  0.49368976093E+03  0.50718391343E+03  0.00000000000E+00 0. -1.
         -5    1    3    3    0  503  0.63943020248E+02  0.25831302541E+02  0.47948662887E+03  0.48444347792E+03  0.47000000000E+01 0.  1.
         15    1    4    4    0    0 -0.18503761239E+02 -0.26509892763E+01  0.11525557780E+02  0.22032093302E+02  0.17770000000E+01 0. -1.
        -16    1    4    4    0    0  0.69636186586E+02  0.28596944661E+02  0.12431875905E+03  0.14533457117E+03  0.00000000000E+00 0.  1.
<mgrwt>
<rscale>  2 0.21447744E+03</rscale>
<asrwt>0</asrwt>
<pdfrwt beam="1">  1       21 0.24013761E+00 0.21499835E+03</pdfrwt>
<pdfrwt beam="2">  1       21 0.46864372E-02 0.21499835E+03</pdfrwt>
<totfact> 0.22415621E+04</totfact>
</mgrwt>
</event>
<event>
12    2  0.4090627E-002  0.1855076E+03  0.7546771E-02  0.1162745E+00
         21   -1    0    0  501  502  0.00000000000E+00  0.00000000000E+00  0.49282340800E+03  0.49282340800E+03  0.00000000000E+00 0. -1.
         21   -1    0    0  502  503 -0.00000000000E+00 -0.00000000000E+00 -0.15128397674E+03  0.15128397674E+03  0.00000000000E+00 0. -1.
         -6    2    1    2    0  503 -0.44028093952E+02 -0.49354878143E+02 -0.65786651842E+02  0.19682724443E+03  0.17331677223E+03 0.  0.
        -24    2    3    3    0    0 -0.79709022947E+02 -0.29651039184E+01 -0.76865968021E+02  0.13707792566E+03  0.80744414570E+02 0.  0.
          6    2    1    2  501    0  0.44028093952E+02  0.49354878143E+02  0.40732608310E+03  0.44728014030E+03  0.17254161493E+03 0.  0.
         24    2    5    5    0    0  0.67079045832E+02  0.61880116741E+02  0.17445700935E+03  0.21289088395E+03  0.80984770917E+02 0.  0.
          5    1    5    5  501    0 -0.23050951880E+02 -0.12525238598E+02  0.23286907375E+03  0.23438925635E+03  0.47000000000E+01 0. -1.
        -15    1    6    6    0    0 -0.44151938550E+01 -0.12496842780E+02  0.47259102324E+02  0.49114615927E+02  0.17770000000E+01 0.  1.
         16    1    6    6    0    0  0.71494239687E+02  0.74376959521E+02  0.12719790703E+03  0.16377626802E+03  0.00000000000E+00 0. -1.
         -5    1    3    3    0  503  0.35680928995E+02 -0.46389774224E+02  0.11079316178E+02  0.59749318770E+02  0.47000000000E+01 0.  1.
         15    1    4    4    0    0 -0.76479668558E+02  0.45675981461E+01 -0.92078450807E+02  0.11979816980E+03  0.17770000000E+01 0. -1.
        -16    1    4    4    0    0 -0.32293543889E+01 -0.75327020645E+01  0.15212482787E+02  0.17279755863E+02  0.00000000000E+00 0.  1.
<mgrwt>
<rscale>  2 0.18532636E+03</rscale>
<asrwt>0</asrwt>
<pdfrwt beam="1">  1       21 0.75818985E-01 0.18550763E+03</pdfrwt>
<pdfrwt beam="2">  1       21 0.23274458E-01 0.18550763E+03</pdfrwt>
<totfact> 0.27037751E+04</totfact>
</mgrwt>
</event>
<event>
12    2  0.4090627E-002  0.2030436E+03  0.7546771E-02  0.1147344E+00
         21   -1    0    0  503  502  0.00000000000E+00  0.00000000000E+00  0.36537434511E+02  0.36537434511E+02  0.00000000000E+00 0.  1.
         21   -1    0    0  501  503 -0.00000000000E+00 -0.00000000000E+00 -0.12672853146E+04  0.12672853146E+04  0.00000000000E+00 0.  1.
          6    2    1    2  501    0 -0.52716525025E+02 -0.90772992862E+02 -0.39742790320E+03  0.44629098187E+03  0.17380429804E+03 0.  0.
         24    2    3    3    0    0  0.49454499732E+01 -0.11434331437E+03 -0.29526980156E+03  0.32654612334E+03  0.79682268622E+02 0.  0.
         -6    2    1    2    0  502  0.52716525025E+02  0.90772992862E+02 -0.83331997693E+03  0.85753176727E+03  0.17297334966E+03 0.  0.
        -24    2    5    5    0    0 -0.20166482890E+00 -0.69732723261E+01 -0.29255043749E+03  0.30543716310E+03  0.87506770769E+02 0.  0.
          5    1    3    3  501    0 -0.57661974999E+02  0.23570321511E+02 -0.10215810163E+03  0.11974485854E+03  0.47000000000E+01 0. -1.
        -15    1    4    4    0    0  0.24682031449E+02 -0.70215755930E+01 -0.95641553754E+02  0.99040243001E+02  0.17770000000E+01 0.  1.
         16    1    4    4    0    0 -0.19736581476E+02 -0.10732173878E+03 -0.19962824781E+03  0.22750588033E+03  0.00000000000E+00 0. -1.
         -5    1    5    5    0  502  0.52918189854E+02  0.97746265188E+02 -0.54076953944E+03  0.55209460417E+03  0.47000000000E+01 0.  1.
         15    1    6    6    0    0  0.32787177939E+02 -0.30359232239E+02 -0.19023892176E+03  0.19542437694E+03  0.17770000000E+01 0. -1.
        -16    1    6    6    0    0 -0.32988842768E+02  0.23385959913E+02 -0.10231151573E+03  0.11001278616E+03  0.00000000000E+00 0.  1.
<mgrwt>
<rscale>  2 0.20286566E+03</rscale>
<asrwt>0</asrwt>
<pdfrwt beam="1">  1       21 0.56211438E-02 0.20304360E+03</pdfrwt>
<pdfrwt beam="2">  1       21 0.19496697E+00 0.20304360E+03</pdfrwt>
<totfact> 0.31668690E+04</totfact>
</mgrwt>
</event>
<event>
12    2  0.4090627E-002  0.2830819E+03  0.7546771E-02  0.1094022E+00
         21   -1    0    0  503  502  0.00000000000E+00  0.00000000000E+00  0.40178502950E+03  0.40178502950E+03  0.00000000000E+00 0. -1.
         21   -1    0    0  501  503 -0.00000000000E+00 -0.00000000000E+00 -0.43713900393E+03  0.43713900393E+03  0.00000000000E+00 0. -1.
          6    2    1    2  501    0 -0.21805675796E+03  0.53535706336E+02 -0.32700044772E+03  0.43250973330E+03  0.17239650531E+03 0.  0.
         24    2    3    3    0    0 -0.16027847029E+03 -0.23453296290E+02 -0.16689672608E+03  0.24563831030E+03  0.79021624660E+02 0.  0.
         -6    2    1    2    0  502  0.21805675796E+03 -0.53535706336E+02  0.29164647329E+03  0.40641430014E+03  0.17233715917E+03 0.  0.
        -24    2    5    5    0    0  0.69555983957E+02 -0.80231962106E+01  0.13038816685E+03  0.18247189716E+03  0.10673571387E+03 0.  0.
          5    1    3    3  501    0 -0.57778287665E+02  0.76989002627E+02 -0.16010372164E+03  0.18687142300E+03  0.47000000000E+01 0. -1.
        -15    1    4    4    0    0 -0.83004065295E+02 -0.42693937975E+02 -0.12391068456E+03  0.15514336168E+03  0.17770000000E+01 0.  1.
         16    1    4    4    0    0 -0.77274404998E+02  0.19240641685E+02 -0.42986041516E+02  0.90494948618E+02  0.00000000000E+00 0. -1.
         -5    1    5    5    0  502  0.14850077400E+03 -0.45512510126E+02  0.16125830644E+03  0.22394240298E+03  0.47000000000E+01 0.  1.
         15    1    6    6    0    0  0.21810996525E+02 -0.49815837892E+02  0.95880420487E+02  0.11024314054E+03  0.17770000000E+01 0. -1.
        -16    1    6    6    0    0  0.47744987432E+02  0.41792641681E+02  0.34507746363E+02  0.72228756618E+02  0.00000000000E+00 0.  1.
<mgrwt>
<rscale>  2 0.28307289E+03</rscale>
<asrwt>0</asrwt>
<pdfrwt beam="1">  1       21 0.61813082E-01 0.28308193E+03</pdfrwt>
<pdfrwt beam="2">  1       21 0.67252154E-01 0.28308193E+03</pdfrwt>
<totfact> 0.46311113E+03</totfact>
</mgrwt>
</event>
<event>
12    2  0.4090627E-002  0.1833486E+03  0.7546771E-02  0.1165948E+00
         21   -1    0    0  501  502  0.00000000000E+00  0.00000000000E+00  0.30407714876E+03  0.30407714876E+03  0.00000000000E+00 0. -1.
         21   -1    0    0  502  503 -0.00000000000E+00 -0.00000000000E+00 -0.33537512260E+03  0.33537512260E+03  0.00000000000E+00 0. -1.
         -6    2    1    2    0  503 -0.34261362018E+02  0.22243234579E+02 -0.27943958008E+03  0.33422025477E+03  0.17874030706E+03 0.  0.
        -24    2    3    3    0    0  0.38282301962E+02 -0.29115457350E+02 -0.14674006640E+03  0.17443430622E+03  0.81126047610E+02 0.  0.
          6    2    1    2  501    0  0.34261362018E+02 -0.22243234579E+02  0.24814160625E+03  0.30523201659E+03  0.17298475305E+03 0.  0.
         24    2    5    5    0    0 -0.29698831094E+02 -0.56959656061E+02  0.14890673763E+03  0.18208257334E+03  0.82791448928E+02 0.  0.
          5    1    5    5  501    0  0.63960193112E+02  0.34716421483E+02  0.99234868616E+02  0.12314944325E+03  0.47000000000E+01 0. -1.
        -15    1    6    6    0    0  0.95345047980E+00 -0.65733663219E+02  0.65625624063E+02  0.92906963198E+02  0.17770000000E+01 0.  1.
         16    1    6    6    0    0 -0.30652281573E+02  0.87740071577E+01  0.83281113569E+02  0.89175610144E+02  0.00000000000E+00 0. -1.
         -5    1    3    3    0  503 -0.72543663980E+02  0.51358691928E+02 -0.13269951368E+03  0.15978594854E+03  0.47000000000E+01 0.  1.
         15    1    4    4    0    0  0.39535368745E+02  0.18156070267E+02 -0.47100546965E+02  0.64142868058E+02  0.17770000000E+01 0. -1.
        -16    1    4    4    0    0 -0.12530667830E+01 -0.47271527617E+02 -0.99639519436E+02  0.11029143817E+03  0.00000000000E+00 0.  1.
<mgrwt>
<rscale>  2 0.18193064E+03</rscale>
<asrwt>0</asrwt>
<pdfrwt beam="1">  1       21 0.46781100E-01 0.18334857E+03</pdfrwt>
<pdfrwt beam="2">  1       21 0.51596173E-01 0.18334857E+03</pdfrwt>
<totfact> 0.15700712E+04</totfact>
</mgrwt>
</event>
<event>
12    2  0.4090627E-002  0.2109891E+03  0.7546771E-02  0.1140818E+00
         21   -1    0    0  503  502  0.00000000000E+00  0.00000000000E+00  0.53260213269E+03  0.53260213269E+03  0.00000000000E+00 0.  1.
         21   -1    0    0  501  503 -0.00000000000E+00 -0.00000000000E+00 -0.97186746774E+02  0.97186746774E+02  0.00000000000E+00 0. -1.
          6    2    1    2  501    0 -0.91934283879E+02 -0.78507853796E+02  0.99534692471E+02  0.23313762111E+03  0.17271537196E+03 0.  0.
         24    2    3    3    0    0 -0.11572015412E+03 -0.98507246585E+02  0.58530677146E+02  0.18147368197E+03  0.80075123345E+02 0.  0.
         -6    2    1    2    0  502  0.91934283879E+02  0.78507853796E+02  0.33588069344E+03  0.39665125835E+03  0.17291901244E+03 0.  0.
        -24    2    5    5    0    0  0.12538409622E+03  0.36919889574E+02  0.20886526623E+03  0.25879822986E+03  0.79168014440E+02 0.  0.
          5    1    3    3  501    0  0.23785870244E+02  0.19999392788E+02  0.41004015325E+02  0.51663939145E+02  0.47000000000E+01 0. -1.
        -15    1    4    4    0    0 -0.92019337633E+02 -0.62088883420E+02  0.76105743015E+02  0.13460248806E+03  0.17770000000E+01 0.  1.
         16    1    4    4    0    0 -0.23700816491E+02 -0.36418363164E+02 -0.17575065869E+02  0.46871193906E+02  0.00000000000E+00 0. -1.
         -5    1    5    5    0  502 -0.33449812343E+02  0.41587964223E+02  0.12701542721E+03  0.13785302849E+03  0.47000000000E+01 0.  1.
         15    1    6    6    0    0  0.92777012650E+02 -0.66002939785E+01  0.96911566490E+02  0.13433594979E+03  0.17770000000E+01 0. -1.
        -16    1    6    6    0    0  0.32607083572E+02  0.43520183552E+02  0.11195369974E+03  0.12446228007E+03  0.00000000000E+00 0.  1.
<mgrwt>
<rscale>  2 0.21094732E+03</rscale>
<asrwt>0</asrwt>
<pdfrwt beam="1">  1       21 0.81938788E-01 0.21098905E+03</pdfrwt>
<pdfrwt beam="2">  1       21 0.14951807E-01 0.21098905E+03</pdfrwt>
<totfact> 0.50941888E+04</totfact>
</mgrwt>
</event>
<event>
12    2  0.4090627E-002  0.2435207E+03  0.7546771E-02  0.1117702E+00
         21   -1    0    0  503  502  0.00000000000E+00  0.00000000000E+00  0.94287536666E+02  0.94287536666E+02  0.00000000000E+00 0. -1.
         21   -1    0    0  501  503 -0.00000000000E+00 -0.00000000000E+00 -0.62562325371E+03  0.62562325371E+03  0.00000000000E+00 0.  1.
          6    2    1    2  501    0 -0.50802046390E+02  0.16117543260E+03 -0.25815724042E+03  0.35489080201E+03  0.17533953514E+03 0.  0.
         24    2    3    3    0    0 -0.25742362148E+02  0.72406938480E+02 -0.23415168990E+03  0.25946444413E+03  0.81174810980E+02 0.  0.
         -6    2    1    2    0  502  0.50802046390E+02 -0.16117543260E+03 -0.27317847662E+03  0.36501998836E+03  0.17336304053E+03 0.  0.
        -24    2    5    5    0    0 -0.98412061604E+01 -0.25695992195E+02 -0.54688630130E+02  0.10083788096E+03  0.80126765919E+02 0.  0.
          5    1    3    3  501    0 -0.25059684242E+02  0.88768494119E+02 -0.24005550521E+02  0.95426357880E+02  0.47000000000E+01 0. -1.
        -15    1    4    4    0    0 -0.33647072064E+02  0.86351217300E+02 -0.17323704629E+03  0.19647618208E+03  0.17770000000E+01 0.  1.
         16    1    4    4    0    0  0.79047099164E+01 -0.13944278820E+02 -0.60914643607E+02  0.62988262053E+02  0.00000000000E+00 0. -1.
         -5    1    5    5    0  502  0.60643252550E+02 -0.13547944040E+03 -0.21848984649E+03  0.26418210740E+03  0.47000000000E+01 0.  1.
         15    1    6    6    0    0 -0.19024816427E+02 -0.36416415712E+02  0.32036065343E+01  0.41249482388E+02  0.17770000000E+01 0. -1.
        -16    1    6    6    0    0  0.91836102667E+01  0.10720423518E+02 -0.57892236665E+02  0.59588398569E+02  0.00000000000E+00 0.  1.
<mgrwt>
<rscale>  2 0.24316509E+03</rscale>
<asrwt>0</asrwt>
<pdfrwt beam="1">  1       21 0.14505775E-01 0.24352068E+03</pdfrwt>
<pdfrwt beam="2">  1       21 0.96249733E-01 0.24352068E+03</pdfrwt>
<totfact> 0.36506493E+04</totfact>
</mgrwt>
</event>
<event>
12    2  0.4090627E-002  0.2426761E+03  0.7546771E-02  0.1118097E+00
         21   -1    0    0  503  502  0.00000000000E+00  0.00000000000E+00  0.17210187098E+04  0.17210187098E+04  0.00000000000E+00 0.  1.
         21   -1    0    0  501  503 -0.00000000000E+00 -0.00000000000E+00 -0.56882715523E+02  0.56882715523E+02  0.00000000000E+00 0.  1.
          6    2    1    2  501    0  0.98238099564E+02  0.13927281127E+03  0.26969365327E+03  0.36250002825E+03  0.17211613435E+03 0.  0.
         24    2    3    3    0    0  0.38242928196E+02  0.12172053916E+03  0.98441911214E+02  0.18013568963E+03  0.80496245772E+02 0.  0.
         -6    2    1    2    0  502 -0.98238099564E+02 -0.13927281127E+03  0.13944423410E+04  0.14154013970E+04  0.17275425400E+03 0.  0.
        -24    2    5    5    0    0 -0.12614192240E+03 -0.92900834655E+02  0.83951787523E+03  0.85782428468E+03  0.80807740304E+02 0.  0.
          5    1    3    3  501    0  0.59995171369E+02  0.17552272100E+02  0.17125174206E+03  0.18236433862E+03  0.47000000000E+01 0. -1.
        -15    1    4    4    0    0  0.17328097901E+01 -0.10679040894E+02 -0.32499615201E+00  0.10968495598E+02  0.17770000000E+01 0.  1.
         16    1    4    4    0    0  0.36510118405E+02  0.13239958006E+03  0.98766907366E+02  0.16916719403E+03  0.00000000000E+00 0. -1.
         -5    1    5    5    0  502  0.27903822836E+02 -0.46371976611E+02  0.55492446575E+03  0.55757711236E+03  0.47000000000E+01 0.  1.
         15    1    6    6    0    0 -0.68661686912E+02 -0.44307547268E+02  0.23861579510E+03  0.25222656758E+03  0.17770000000E+01 0. -1.
        -16    1    6    6    0    0 -0.57480235488E+02 -0.48593287387E+02  0.60090208013E+03  0.60559771710E+03  0.00000000000E+00 0.  1.
<mgrwt>
<rscale>  2 0.24256252E+03</rscale>
<asrwt>0</asrwt>
<pdfrwt beam="1">  1       21 0.26477207E+00 0.24267606E+03</pdfrwt>
<pdfrwt beam="2">  1       21 0.87511883E-02 0.24267606E+03</pdfrwt>
<totfact> 0.53302562E+03</totfact>
</mgrwt>
</event>
<event>
12    2  0.4090627E-002  0.2126470E+03  0.7546771E-02  0.1139507E+00
         21   -1    0    0  501  502  0.00000000000E+00  0.00000000000E+00  0.14820202826E+04  0.14820202826E+04  0.00000000000E+00 0.  1.
         21   -1    0    0  502  503 -0.00000000000E+00 -0.00000000000E+00 -0.77425563920E+02  0.77425563920E+02  0.00000000000E+00 0.  1.
         -6    2    1    2    0  503 -0.29176544331E+02  0.11986970017E+03  0.95322914238E+02  0.23303476692E+03  0.17320141125E+03 0.  0.
        -24    2    3    3    0    0 -0.53579981133E+02  0.58933524289E+01  0.41347353256E+02  0.10449844227E+03  0.79402612268E+02 0.  0.
          6    2    1    2  501    0  0.29176544331E+02 -0.11986970017E+03  0.13092718045E+04  0.13264110796E+04  0.17307131020E+03 0.  0.
         24    2    5    5    0    0  0.66345397714E+01 -0.27337605666E+01  0.79408268930E+03  0.79757189357E+03  0.74176259035E+02 0.  0.
          5    1    5    5  501    0  0.22542004559E+02 -0.11713593960E+03  0.51518911519E+03  0.52883918608E+03  0.47000000000E+01 0. -1.
        -15    1    6    6    0    0 -0.33212596901E+02 -0.67265383715E+01  0.31684488582E+03  0.31865680961E+03  0.17770000000E+01 0.  1.
         16    1    6    6    0    0  0.39847136672E+02  0.39927778049E+01  0.47723780348E+03  0.47891508396E+03  0.00000000000E+00 0. -1.
         -5    1    3    3    0  503  0.24403436803E+02  0.11397634774E+03  0.53975560983E+02  0.12853632465E+03  0.47000000000E+01 0.  1.
         15    1    4    4    0    0 -0.54108902166E+02  0.29004535909E+01  0.62723643268E+02  0.82907171453E+02  0.17770000000E+01 0. -1.
        -16    1    4    4    0    0  0.52892103281E+00  0.29928988380E+01 -0.21376290012E+02  0.21591270819E+02  0.00000000000E+00 0.  1.
<mgrwt>
<rscale>  2 0.21262050E+03</rscale>
<asrwt>0</asrwt>
<pdfrwt beam="1">  1       21 0.22800310E+00 0.21264700E+03</pdfrwt>
<pdfrwt beam="2">  1       21 0.11911626E-01 0.21264700E+03</pdfrwt>
<totfact> 0.52462951E+03</totfact>
</mgrwt>
</event>
<event>
12    2  0.4090627E-002  0.1790443E+03  0.7546771E-02  0.1168777E+00
         21   -1    0    0  501  502  0.00000000000E+00  0.00000000000E+00  0.91246577836E+03  0.91246577836E+03  0.00000000000E+00 0. -1.
         21   -1    0    0  502  503 -0.00000000000E+00 -0.00000000000E+00 -0.35662246058E+02  0.35662246058E+02  0.00000000000E+00 0. -1.
         -6    2    1    2    0  503 -0.35916519196E+02  0.27767110826E+02  0.49796159300E+03  0.52910765894E+03  0.17299756601E+03 0.  0.
        -24    2    3    3    0    0 -0.61724485995E+02 -0.29930494053E+02  0.22150030492E+03  0.24547409504E+03  0.80556809838E+02 0.  0.
          6    2    1    2  501    0  0.35916519196E+02 -0.27767110826E+02  0.37884193930E+03  0.41902036548E+03  0.17319307989E+03 0.  0.
         24    2    5    5    0    0  0.33869717651E+02 -0.77916738325E+02  0.32163380220E+03  0.34277054263E+03  0.82614564640E+02 0.  0.
          5    1    5    5  501    0  0.20468015450E+01  0.50149627499E+02  0.57208137099E+02  0.76249822854E+02  0.47000000000E+01 0. -1.
        -15    1    6    6    0    0  0.53566848972E+02 -0.34639074808E+02  0.23959617597E+03  0.24794910381E+03  0.17770000000E+01 0.  1.
         16    1    6    6    0    0 -0.19697131321E+02 -0.43277663517E+02  0.82037626229E+02  0.94821438816E+02  0.00000000000E+00 0. -1.
         -5    1    3    3    0  503  0.25807966799E+02  0.57697604879E+02  0.27646128808E+03  0.28363356390E+03  0.47000000000E+01 0.  1.
         15    1    4    4    0    0  0.13365721162E+02  0.21448172439E+01  0.87475807196E+02  0.88534836741E+02  0.17770000000E+01 0. -1.
        -16    1    4    4    0    0 -0.75090207157E+02 -0.32075311297E+02  0.13402449772E+03  0.15693925830E+03  0.00000000000E+00 0.  1.
<mgrwt>
<rscale>  2 0.17899697E+03</rscale>
<asrwt>0</asrwt>
<pdfrwt beam="1">  1       21 0.14037933E+00 0.17904427E+03</pdfrwt>
<pdfrwt beam="2">  1       21 0.54865001E-02 0.17904427E+03</pdfrwt>
<totfact> 0.82170928E+04</totfact>
</mgrwt>
</event>
<event>
12    2  0.4090627E-002  0.1903773E+03  0.7546771E-02  0.1158288E+00
         21   -1    0    0  501  502  0.00000000000E+00  0.00000000000E+00  0.96467240725E+03  0.96467240725E+03  0.00000000000E+00 0.  1.
         21   -1    0    0  502  503 -0.00000000000E+00 -0.00000000000E+00 -0.81887409069E+02  0.81887409069E+02  0.00000000000E+00 0.  1.
         -6    2    1    2    0  503 -0.62678666495E+02  0.48956357645E+02  0.55414188526E+02  0.19756865524E+03  0.17215487520E+03 0.  0.
        -24    2    3    3    0    0  0.27498396414E+02  0.38975336404E+02 -0.52343667848E+01  0.88335598335E+02  0.74165630075E+02 0.  0.
          6    2    1    2  501    0  0.62678666495E+02 -0.48956357645E+02  0.82737080965E+03  0.84899116107E+03  0.17296876808E+03 0.  0.
         24    2    5    5    0    0  0.91577937988E+02  0.95642786975E+01  0.60742288423E+03  0.61951564458E+03  0.79743836407E+02 0.  0.
          5    1    5    5  501    0 -0.28899271493E+02 -0.58520636342E+02  0.21994792542E+03  0.22947551649E+03  0.47000000000E+01 0. -1.
        -15    1    6    6    0    0  0.78821982521E+02 -0.22245084999E+02  0.33147866164E+03  0.34145132828E+03  0.17770000000E+01 0.  1.
         16    1    6    6    0    0  0.12755955467E+02  0.31809363697E+02  0.27594422259E+03  0.27806431630E+03  0.00000000000E+00 0. -1.
         -5    1    3    3    0  503 -0.90177062910E+02  0.99810212406E+01  0.60648555311E+02  0.10923305691E+03  0.47000000000E+01 0.  1.
         15    1    4    4    0    0  0.32518670156E+02 -0.13647843621E+02 -0.15505070057E+01  0.35345287454E+02  0.17770000000E+01 0. -1.
        -16    1    4    4    0    0 -0.50202737419E+01  0.52623180025E+02 -0.36838597791E+01  0.52990310881E+02  0.00000000000E+00 0.  1.
<mgrwt>
<rscale>  2 0.19019229E+03</rscale>
<asrwt>0</asrwt>
<pdfrwt beam="1">  1       21 0.14841113E+00 0.19037735E+03</pdfrwt>
<pdfrwt beam="2">  1       21 0.12598064E-01 0.19037735E+03</pdfrwt>
<totfact> 0.16558595E+04</totfact>
</mgrwt>
</event>
<event>
12    2  0.4090627E-002  0.1843235E+03  0.7546771E-02  0.1164111E+00
         21   -1    0    0  503  502  0.00000000000E+00  0.00000000000E+00  0.32108110671E+02  0.32108110671E+02  0.00000000000E+00 0. -1.
         21   -1    0    0  501  503 -0.00000000000E+00 -0.00000000000E+00 -0.14688717158E+04  0.14688717158E+04  0.00000000000E+00 0. -1.
          6    2    1    2  501    0  0.43195690978E+02  0.44004184682E+02 -0.11176806046E+04  0.11324840742E+04  0.17177895217E+03 0.  0.
         24    2    3    3    0    0 -0.25629772407E+02  0.66655759985E+02 -0.58280086212E+03  0.59269849899E+03  0.80838049526E+02 0.  0.
         -6    2    1    2    0  502 -0.43195690978E+02 -0.44004184682E+02 -0.31908300046E+03  0.36849575221E+03  0.17370354696E+03 0.  0.
        -24    2    5    5    0    0 -0.45831865102E+02  0.34868631628E+02 -0.12318883992E+03  0.15725067487E+03  0.78967734779E+02 0.  0.
          5    1    3    3  501    0  0.68825463386E+02 -0.22651575303E+02 -0.53487974252E+03  0.53978557524E+03  0.47000000000E+01 0. -1.
        -15    1    4    4    0    0 -0.11744610626E+02  0.79747869715E+02 -0.35227881637E+03  0.36138785369E+03  0.17770000000E+01 0.  1.
         16    1    4    4    0    0 -0.13885161782E+02 -0.13092109730E+02 -0.23052204575E+03  0.23131064531E+03  0.00000000000E+00 0. -1.
         -5    1    5    5    0  502  0.26361741238E+01 -0.78872816310E+02 -0.19589416054E+03  0.21124507734E+03  0.47000000000E+01 0.  1.
         15    1    6    6    0    0 -0.26412257166E+02  0.53822374647E+01  0.20874982022E+01  0.27094117193E+02  0.17770000000E+01 0. -1.
        -16    1    6    6    0    0 -0.19419607936E+02  0.29486394163E+02 -0.12527633812E+03  0.13015655768E+03  0.00000000000E+00 0.  1.
<mgrwt>
<rscale>  2 0.18386869E+03</rscale>
<asrwt>0</asrwt>
<pdfrwt beam="1">  1       21 0.49397082E-02 0.18432352E+03</pdfrwt>
<pdfrwt beam="2">  1       21 0.22598032E+00 0.18432352E+03</pdfrwt>
<totfact> 0.25565040E+04</totfact>
</mgrwt>
</event>
<event>
12    2  0.4090627E-002  0.3285846E+03  0.7546771E-02  0.1072041E+00
         21   -1    0    0  501  502  0.00000000000E+00  0.00000000000E+00  0.54934013672E+03  0.54934013672E+03  0.00000000000E+00 0. -1.
         21   -1    0    0  502  503 -0.00000000000E+00 -0.00000000000E+00 -0.26340698778E+03  0.26340698778E+03  0.00000000000E+00 0. -1.
         -6    2    1    2    0  503  0.26308170022E+03 -0.93978450011E+02 -0.63624503906E+02  0.33468783291E+03  0.17298536916E+03 0.  0.
        -24    2    3    3    0    0  0.13441165000E+03 -0.11771511545E+03 -0.19507137157E+02  0.19652907221E+03  0.79497218572E+02 0.  0.
          6    2    1    2  501    0 -0.26308170022E+03  0.93978450011E+02  0.34955765285E+03  0.47805929159E+03  0.16824447556E+03 0.  0.
         24    2    5    5    0    0 -0.13112679263E+03  0.11411868142E+02  0.24807051559E+03  0.29218011818E+03  0.80658380069E+02 0.  0.
          5    1    5    5  501    0 -0.13195490759E+03  0.82566581869E+02  0.10148713725E+03  0.18587917341E+03  0.47000000000E+01 0. -1.
        -15    1    6    6    0    0 -0.36319059511E+02  0.32536091104E+02  0.13257846583E+03  0.14127235625E+03  0.17770000000E+01 0.  1.
         16    1    6    6    0    0 -0.94807733117E+02 -0.21124222962E+02  0.11549204976E+03  0.15090776193E+03  0.00000000000E+00 0. -1.
         -5    1    3    3    0  503  0.12867005022E+03  0.23736665440E+02 -0.44117366749E+02  0.13815876070E+03  0.47000000000E+01 0.  1.
         15    1    4    4    0    0  0.14373632083E+02  0.75109086165E+01 -0.16257271142E+02  0.23031969987E+02  0.17770000000E+01 0. -1.
        -16    1    4    4    0    0  0.12003801792E+03 -0.12522602407E+03 -0.32498660152E+01  0.17349710222E+03  0.00000000000E+00 0.  1.
<mgrwt>
<rscale>  2 0.32796515E+03</rscale>
<asrwt>0</asrwt>
<pdfrwt beam="1">  1       21 0.84513867E-01 0.32858464E+03</pdfrwt>
<pdfrwt beam="2">  1       21 0.40524152E-01 0.32858464E+03</pdfrwt>
<totfact> 0.65848179E+03</totfact>
</mgrwt>
</event>
<event>
12    2  0.4090627E-002  0.2621799E+03  0.7546771E-02  0.1105843E+00
         21   -1    0    0  503  502  0.00000000000E+00  0.00000000000E+00  0.35024508735E+02  0.35024508735E+02  0.00000000000E+00 0.  1.
         21   -1    0    0  501  503 -0.00000000000E+00 -0.00000000000E+00 -0.19743847390E+04  0.19743847390E+04  0.00000000000E+00 0. -1.
          6    2    1    2  501    0 -0.49801022156E+02 -0.19038022933E+03 -0.89163218280E+03  0.92937948604E+03  0.17324406524E+03 0.  0.
         24    2    3    3    0    0 -0.40261983079E+01 -0.15425326306E+03 -0.81237660704E+03  0.83087045864E+03  0.81115275607E+02 0.  0.
         -6    2    1    2    0  502  0.49801022156E+02  0.19038022933E+03 -0.10477280475E+04  0.10800297617E+04  0.17322081622E+03 0.  0.
        -24    2    5    5    0    0 -0.26150056748E+02  0.11517621010E+03 -0.45842886701E+03  0.48109752431E+03  0.85722907945E+02 0.  0.
          5    1    3    3  501    0 -0.45774823848E+02 -0.36126966277E+02 -0.79255575760E+02  0.98509027402E+02  0.47000000000E+01 0. -1.
        -15    1    4    4    0    0 -0.26866669611E+01 -0.13706605786E+03 -0.51322498393E+03  0.53122251859E+03  0.17770000000E+01 0.  1.
         16    1    4    4    0    0 -0.13395313467E+01 -0.17187205192E+02 -0.29915162311E+03  0.29964794005E+03  0.00000000000E+00 0. -1.
         -5    1    5    5    0  502  0.75951078903E+02  0.75204019229E+02 -0.58929918044E+03  0.59893223737E+03  0.47000000000E+01 0.  1.
         15    1    6    6    0    0  0.17164462251E+02 -0.23686822757E+01 -0.97585501107E+02  0.99127782056E+02  0.17770000000E+01 0. -1.
        -16    1    6    6    0    0 -0.43314518999E+02  0.11754489238E+03 -0.36084336590E+03  0.38196974225E+03  0.00000000000E+00 0.  1.
<mgrwt>
<rscale>  2 0.26217602E+03</rscale>
<asrwt>0</asrwt>
<pdfrwt beam="1">  1       21 0.53883838E-02 0.26217986E+03</pdfrwt>
<pdfrwt beam="2">  1       21 0.30375162E+00 0.26217986E+03</pdfrwt>
<totfact> 0.71939955E+03</totfact>
</mgrwt>
</event>
<event>
12    2  0.4090627E-002  0.2112742E+03  0.7546771E-02  0.1140655E+00
         21   -1    0    0  501  502  0.00000000000E+00  0.00000000000E+00  0.39036462330E+02  0.39036462330E+02  0.00000000000E+00 0.  1.
         21   -1    0    0  502  503 -0.00000000000E+00 -0.00000000000E+00 -0.15359500574E+04  0.15359500574E+04  0.00000000000E+00 0. -1.
         -6    2    1    2    0  503 -0.11836063619E+03 -0.13736739873E+02 -0.11472134662E+04  0.11664195739E+04  0.17389061860E+03 0.  0.
        -24    2    3    3    0    0 -0.90610970800E+02 -0.48515646345E+02 -0.10575467318E+04  0.10662106446E+04  0.88520803895E+02 0.  0.
          6    2    1    2  501    0  0.11836063619E+03  0.13736739873E+02 -0.34970012893E+03  0.40856694584E+03  0.17446727727E+03 0.  0.
         24    2    5    5    0    0  0.68368411437E+02 -0.26966340694E+02 -0.90311390628E+02  0.14124584517E+03  0.79955101705E+02 0.  0.
          5    1    5    5  501    0  0.49992224758E+02  0.40703080568E+02 -0.25938873830E+03  0.26732110067E+03  0.47000000000E+01 0. -1.
        -15    1    6    6    0    0  0.78570768597E+02 -0.21895508758E+01 -0.51152974874E+02  0.93797358057E+02  0.17770000000E+01 0.  1.
         16    1    6    6    0    0 -0.10202357160E+02 -0.24776789818E+02 -0.39158415753E+02  0.47448487116E+02  0.00000000000E+00 0. -1.
         -5    1    3    3    0  503 -0.27749665395E+02  0.34778906472E+02 -0.89666734355E+02  0.10020892932E+03  0.47000000000E+01 0.  1.
         15    1    4    4    0    0 -0.52465869534E+02  0.81666736149E+01 -0.71168486277E+03  0.71366509207E+03  0.17770000000E+01 0. -1.
        -16    1    4    4    0    0 -0.38145101265E+02 -0.56682319960E+02 -0.34586186904E+03  0.35254555252E+03  0.00000000000E+00 0.  1.
<mgrwt>
<rscale>  2 0.21115507E+03</rscale>
<asrwt>0</asrwt>
<pdfrwt beam="1">  1       21 0.60056101E-02 0.21127416E+03</pdfrwt>
<pdfrwt beam="2">  1       21 0.23629999E+00 0.21127416E+03</pdfrwt>
<totfact> 0.15532925E+04</totfact>
</mgrwt>
</event>
<event>
12    2  0.4090627E-002  0.3484809E+03  0.7546771E-02  0.1063837E+00
         21   -1    0    0  501  502  0.00000000000E+00  0.00000000000E+00  0.56610199610E+03  0.56610199610E+03  0.00000000000E+00 0. -1.
         21   -1    0    0  502  503 -0.00000000000E+00 -0.00000000000E+00 -0.21230472956E+03  0.21230472956E+03  0.00000000000E+00 0. -1.
         -6    2    1    2    0  503  0.24749772876E+03  0.16665139465E+03  0.14788660107E+03  0.37856229536E+03  0.18003097403E+03 0.  0.
        -24    2    3    3    0    0  0.18080507159E+03  0.64190499047E+02  0.34092024010E+02  0.21147716311E+03  0.82154916689E+02 0.  0.
          6    2    1    2  501    0 -0.24749772876E+03 -0.16665139465E+03  0.20591066547E+03  0.39984443031E+03  0.16866698910E+03 0.  0.
         24    2    5    5    0    0 -0.53271070956E+02 -0.19021476008E+02  0.76603720043E+02  0.12369055361E+03  0.78940481232E+02 0.  0.
          5    1    5    5  501    0 -0.19422665780E+03 -0.14762991864E+03  0.12930694543E+03  0.27615387670E+03  0.47000000000E+01 0. -1.
        -15    1    6    6    0    0  0.21352553672E+01 -0.32964592528E+02  0.51670531991E+02  0.61353282563E+02  0.17770000000E+01 0.  1.
         16    1    6    6    0    0 -0.55406326323E+02  0.13943116520E+02  0.24933188052E+02  0.62337271045E+02  0.00000000000E+00 0. -1.
         -5    1    3    3    0  503  0.66692657165E+02  0.10246089560E+03  0.11379457706E+03  0.16708513224E+03  0.47000000000E+01 0.  1.
         15    1    4    4    0    0  0.75454027286E+02 -0.43945144755E+01 -0.13990541351E+02  0.76886376995E+02  0.17770000000E+01 0. -1.
        -16    1    4    4    0    0  0.10535104430E+03  0.68585013523E+02  0.48082565361E+02  0.13459078612E+03  0.00000000000E+00 0.  1.
<mgrwt>
<rscale>  2 0.34703884E+03</rscale>
<asrwt>0</asrwt>
<pdfrwt beam="1">  1       21 0.87092614E-01 0.34848094E+03</pdfrwt>
<pdfrwt beam="2">  1       21 0.32662266E-01 0.34848094E+03</pdfrwt>
<totfact> 0.94168060E+03</totfact>
</mgrwt>
</event>
<event>
12    2  0.4090627E-002  0.2356094E+03  0.7546771E-02  0.1122877E+00
         21   -1    0    0  501  502  0.00000000000E+00  0.00000000000E+00  0.87884630526E+03  0.87884630526E+03  0.00000000000E+00 0.  1.
         21   -1    0    0  502  503 -0.00000000000E+00 -0.00000000000E+00 -0.70817037622E+02  0.70817037622E+02  0.00000000000E+00 0.  1.
         -6    2    1    2    0  503 -0.15689456895E+03 -0.23873398846E+02  0.24650250276E+03  0.34099162130E+03  0.17414349541E+03 0.  0.
        -24    2    3    3    0    0 -0.79905017531E+02 -0.56124347713E+02  0.21927274845E+03  0.25306515060E+03  0.80166564136E+02 0.  0.
          6    2    1    2  501    0  0.15689456895E+03  0.23873398846E+02  0.56152676488E+03  0.60867172158E+03  0.17315632256E+03 0.  0.
         24    2    5    5    0    0  0.30968374855E+02  0.40296727596E+01  0.35715881858E+03  0.36775777990E+03  0.81902896675E+02 0.  0.
          5    1    5    5  501    0  0.12592619409E+03  0.19843726086E+02  0.20436794630E+03  0.24091394169E+03  0.47000000000E+01 0. -1.
        -15    1    6    6    0    0  0.50006594500E+02  0.23378769442E+02  0.29189050300E+03  0.29706977266E+03  0.17770000000E+01 0.  1.
         16    1    6    6    0    0 -0.19038219645E+02 -0.19349096682E+02  0.65268315570E+02  0.70688007236E+02  0.00000000000E+00 0. -1.
         -5    1    3    3    0  503 -0.76989551414E+02  0.32250948867E+02  0.27229754318E+02  0.87926470701E+02  0.47000000000E+01 0.  1.
         15    1    4    4    0    0 -0.65362699333E+02 -0.17037278126E+02  0.19121011249E+03  0.20279796882E+03  0.17770000000E+01 0. -1.
        -16    1    4    4    0    0 -0.14542318199E+02 -0.39087069587E+02  0.28062635954E+02  0.50267181780E+02  0.00000000000E+00 0.  1.
<mgrwt>
<rscale>  2 0.23542704E+03</rscale>
<asrwt>0</asrwt>
<pdfrwt beam="1">  1       21 0.13520712E+00 0.23560943E+03</pdfrwt>
<pdfrwt beam="2">  1       21 0.10894930E-01 0.23560943E+03</pdfrwt>
<totfact> 0.26603742E+04</totfact>
</mgrwt>
</event>
<event>
12    2  0.4090627E-002  0.1833309E+03  0.7546771E-02  0.1165291E+00
         21   -1    0    0  501  502  0.00000000000E+00  0.00000000000E+00  0.75101079135E+02  0.75101079135E+02  0.00000000000E+00 0.  1.
         21   -1    0    0  502  503 -0.00000000000E+00 -0.00000000000E+00 -0.48944925642E+03  0.48944925642E+03  0.00000000000E+00 0.  1.
         -6    2    1    2    0  503 -0.23676410160E+02 -0.45953148385E+02 -0.29773587437E+03  0.34965250938E+03  0.17589190484E+03 0.  0.
        -24    2    3    3    0    0  0.29357999475E+02 -0.64730042684E+02 -0.10670437788E+03  0.15045325483E+03  0.78730471041E+02 0.  0.
          6    2    1    2  501    0  0.23676410160E+02  0.45953148385E+02 -0.11661230292E+03  0.21489782618E+03  0.17294618313E+03 0.  0.
         24    2    5    5    0    0  0.70261883278E+01 -0.14612923740E+02 -0.12471513648E+02  0.93189679490E+02  0.90916845789E+02 0.  0.
          5    1    5    5  501    0  0.16650221832E+02  0.60566072125E+02 -0.10414078927E+03  0.12170814669E+03  0.47000000000E+01 0. -1.
        -15    1    6    6    0    0  0.46164028246E+01 -0.51609574664E+02  0.52231699803E+01  0.52108527188E+02  0.17770000000E+01 0.  1.
         16    1    6    6    0    0  0.24097855033E+01  0.36996650924E+02 -0.17694683628E+02  0.41081152302E+02  0.00000000000E+00 0. -1.
         -5    1    3    3    0  503 -0.53034409635E+02  0.18776894299E+02 -0.19103149648E+03  0.19919925455E+03  0.47000000000E+01 0.  1.
         15    1    4    4    0    0  0.68634271422E+01 -0.58054601439E+02 -0.21882126013E+02  0.62445404541E+02  0.17770000000E+01 0. -1.
        -16    1    4    4    0    0  0.22494572333E+02 -0.66754412449E+01 -0.84822251867E+02  0.88007850287E+02  0.00000000000E+00 0.  1.
<mgrwt>
<rscale>  2 0.18262073E+03</rscale>
<asrwt>0</asrwt>
<pdfrwt beam="1">  1       21 0.11554012E-01 0.18333092E+03</pdfrwt>
<pdfrwt beam="2">  1       21 0.75299887E-01 0.18333092E+03</pdfrwt>
<totfact> 0.99306453E+04</totfact>
</mgrwt>
</event>
<event>
12    2  0.4090627E-002  0.1894804E+03  0.7546771E-02  0.1159357E+00
         21   -1    0    0  501  502  0.00000000000E+00  0.00000000000E+00  0.12970296735E+03  0.12970296735E+03  0.00000000000E+00 0. -1.
         21   -1    0    0  502  503 -0.00000000000E+00 -0.00000000000E+00 -0.65361417110E+03  0.65361417110E+03  0.00000000000E+00 0. -1.
         -6    2    1    2    0  503 -0.43968638318E+02 -0.57658391830E+02 -0.55985987968E+03  0.59045678637E+03  0.17302716665E+03 0.  0.
        -24    2    3    3    0    0  0.38419372506E+02 -0.17963175732E+02 -0.34866536539E+03  0.36026402504E+03  0.80149278501E+02 0.  0.
          6    2    1    2  501    0  0.43968638318E+02  0.57658391830E+02  0.35948675934E+02  0.19286035207E+03  0.17505735288E+03 0.  0.
         24    2    5    5    0    0  0.84420597987E+02  0.14971097106E+02 -0.89571970023E+01  0.11871729039E+03  0.81624705487E+02 0.  0.
          5    1    5    5  501    0 -0.40451959670E+02  0.42687294724E+02  0.44905872937E+02  0.74143061686E+02  0.47000000000E+01 0. -1.
        -15    1    6    6    0    0  0.66217772632E+02  0.46879793798E+02 -0.11451904956E+01  0.81160197567E+02  0.17770000000E+01 0.  1.
         16    1    6    6    0    0  0.18202825356E+02 -0.31908696692E+02 -0.78120065066E+01  0.37557092821E+02  0.00000000000E+00 0. -1.
         -5    1    3    3    0  503 -0.82388010824E+02 -0.39695216097E+02 -0.21119451428E+03  0.23019276134E+03  0.47000000000E+01 0.  1.
         15    1    4    4    0    0 -0.14597801066E+02 -0.32501177718E+02 -0.13262359034E+03  0.13733752871E+03  0.17770000000E+01 0. -1.
        -16    1    4    4    0    0  0.53017173572E+02  0.14538001985E+02 -0.21604177506E+03  0.22292649633E+03  0.00000000000E+00 0.  1.
<mgrwt>
<rscale>  2 0.18901011E+03</rscale>
<asrwt>0</asrwt>
<pdfrwt beam="1">  1       21 0.19954302E-01 0.18948036E+03</pdfrwt>
<pdfrwt beam="2">  1       21 0.10055603E+00 0.18948036E+03</pdfrwt>
<totfact> 0.18819620E+04</totfact>
</mgrwt>
</event>
<event>
12    2  0.4090627E-002  0.1998107E+03  0.7546771E-02  0.1150137E+00
         21   -1    0    0  503  502  0.00000000000E+00  0.00000000000E+00  0.42344213981E+02  0.42344213981E+02  0.00000000000E+00 0.  1.
         21   -1    0    0  501  503 -0.00000000000E+00 -0.00000000000E+00 -0.22480165104E+04  0.22480165104E+04  0.00000000000E+00 0.  1.
          6    2    1    2  501    0 -0.33686567047E+02 -0.93425504309E+02 -0.19784792965E+04  0.19885433465E+04  0.17338167331E+03 0.  0.
         24    2    3    3    0    0  0.22107068572E+02 -0.20287109781E+02 -0.14099912404E+04  0.14126415194E+04  0.81120127385E+02 0.  0.
         -6    2    1    2    0  502  0.33686567047E+02  0.93425504309E+02 -0.22719299995E+03  0.30181737790E+03  0.17208707307E+03 0.  0.
        -24    2    5    5    0    0 -0.23494992291E+02  0.10910843522E+03 -0.18082345575E+03  0.22639914615E+03  0.78120329807E+02 0.  0.
          5    1    3    3  501    0 -0.55793635619E+02 -0.73138394528E+02 -0.56848805607E+03  0.57590182707E+03  0.47000000000E+01 0. -1.
        -15    1    4    4    0    0 -0.83489573466E+01  0.28056509137E+02 -0.46142323444E+03  0.46235422763E+03  0.17770000000E+01 0.  1.
         16    1    4    4    0    0  0.30456025918E+02 -0.48343618918E+02 -0.94856800597E+03  0.95028729179E+03  0.00000000000E+00 0. -1.
         -5    1    5    5    0  502  0.57181559338E+02 -0.15682930911E+02 -0.46369544195E+02  0.75418231742E+02  0.47000000000E+01 0.  1.
         15    1    6    6    0    0 -0.12962955640E+02  0.21117371584E+02 -0.11052701568E+03  0.11328442314E+03  0.17770000000E+01 0. -1.
        -16    1    6    6    0    0 -0.10532036651E+02  0.87991063635E+02 -0.70296440074E+02  0.11311472301E+03  0.00000000000E+00 0.  1.
<mgrwt>
<rscale>  2 0.19952952E+03</rscale>
<asrwt>0</asrwt>
<pdfrwt beam="1">  1       21 0.65144967E-02 0.19981070E+03</pdfrwt>
<pdfrwt beam="2">  1       21 0.34584858E+00 0.19981070E+03</pdfrwt>
<totfact> 0.31383130E+03</totfact>
</mgrwt>
</event>
<event>
12    2  0.4090627E-002  0.2405207E+03  0.7546771E-02  0.1119642E+00
         21   -1    0    0  503  502  0.00000000000E+00  0.00000000000E+00  0.20369521677E+04  0.20369521677E+04  0.00000000000E+00 0.  1.
         21   -1    0    0  501  503 -0.00000000000E+00 -0.00000000000E+00 -0.43653016229E+02  0.43653016229E+02  0.00000000000E+00 0. -1.
          6    2    1    2  501    0  0.54850665583E+02  0.15812986027E+03  0.37735141107E+03  0.44685571537E+03  0.17109148048E+03 0.  0.
         24    2    3    3    0    0  0.21621862719E+02  0.10956281571E+02  0.17338966146E+03  0.19311036879E+03  0.81486776708E+02 0.  0.
         -6    2    1    2    0  502 -0.54850665583E+02 -0.15812986027E+03  0.16159477404E+04  0.16337494686E+04  0.17273267818E+03 0.  0.
        -24    2    5    5    0    0 -0.58913956242E+02 -0.17601211896E+03  0.11613326958E+04  0.11787404419E+04  0.79273444076E+02 0.  0.
          5    1    3    3  501    0  0.33228802863E+02  0.14717357869E+03  0.20396174961E+03  0.25374534658E+03  0.47000000000E+01 0. -1.
        -15    1    4    4    0    0  0.34981043062E+02  0.32585493566E+02  0.15364684920E+03  0.16092234078E+03  0.17770000000E+01 0.  1.
         16    1    4    4    0    0 -0.13359180342E+02 -0.21629211994E+02  0.19742812262E+02  0.32188028006E+02  0.00000000000E+00 0. -1.
         -5    1    5    5    0  502  0.40632906592E+01  0.17882258698E+02  0.45461504467E+03  0.45500902667E+03  0.47000000000E+01 0.  1.
         15    1    6    6    0    0 -0.23139817252E+02 -0.94658881366E+02  0.37721321945E+03  0.38960072590E+03  0.17770000000E+01 0. -1.
        -16    1    6    6    0    0 -0.35774138990E+02 -0.81353237598E+02  0.78411947631E+03  0.78913971603E+03  0.00000000000E+00 0.  1.
<mgrwt>
<rscale>  2 0.24022622E+03</rscale>
<asrwt>0</asrwt>
<pdfrwt beam="1">  1       21 0.31337718E+00 0.24052074E+03</pdfrwt>
<pdfrwt beam="2">  1       21 0.67158502E-02 0.24052074E+03</pdfrwt>
<totfact> 0.44085792E+03</totfact>
</mgrwt>
</event>
<event>
12    2  0.4090627E-002  0.1932136E+03  0.7546771E-02  0.1155717E+00
         21   -1    0    0  501  502  0.00000000000E+00  0.00000000000E+00  0.20686006531E+03  0.20686006531E+03  0.00000000000E+00 0.  1.
         21   -1    0    0  502  503 -0.00000000000E+00 -0.00000000000E+00 -0.18031127020E+03  0.18031127020E+03  0.00000000000E+00 0.  1.
         -6    2    1    2    0  503  0.59560361085E+02  0.62602025660E+02  0.45825060648E+01  0.19271309553E+03  0.17219433091E+03 0.  0.
        -24    2    3    3    0    0  0.20226909575E+02  0.61960351629E+02  0.59702497590E+02  0.12483205533E+03  0.88150103653E+02 0.  0.
          6    2    1    2  501    0 -0.59560361085E+02 -0.62602025660E+02  0.21966289050E+02  0.19445823998E+03  0.17281504279E+03 0.  0.
         24    2    5    5    0    0 -0.13896304755E+00 -0.19491499968E+02  0.74613879782E+02  0.10399676321E+03  0.69772185146E+02 0.  0.
          5    1    5    5  501    0 -0.59421398038E+02 -0.43110525692E+02 -0.52647590731E+02  0.90461476773E+02  0.47000000000E+01 0. -1.
        -15    1    6    6    0    0  0.27389877806E+01 -0.30539652721E+02  0.23136792070E+01  0.30800702636E+02  0.17770000000E+01 0.  1.
         16    1    6    6    0    0 -0.28779508281E+01  0.11048152753E+02  0.72300200575E+02  0.73196060573E+02  0.00000000000E+00 0. -1.
         -5    1    3    3    0  503  0.39333451510E+02  0.64167403150E+00 -0.55119991525E+02  0.67881040203E+02  0.47000000000E+01 0.  1.
         15    1    4    4    0    0 -0.28963609162E+01 -0.92402075788E+01  0.48075559707E+02  0.49073287161E+02  0.17770000000E+01 0. -1.
        -16    1    4    4    0    0  0.23123270491E+02  0.71200559207E+02  0.11626937883E+02  0.75758768167E+02  0.00000000000E+00 0.  1.
<mgrwt>
<rscale>  2 0.19307469E+03</rscale>
<asrwt>0</asrwt>
<pdfrwt beam="1">  1       21 0.31824625E-01 0.19321358E+03</pdfrwt>
<pdfrwt beam="2">  1       21 0.27740195E-01 0.19321358E+03</pdfrwt>
<totfact> 0.11775960E+05</totfact>
</mgrwt>
</event>
<event>
12    2  0.4090627E-002  0.2100965E+03  0.7546771E-02  0.1141661E+00
         21   -1    0    0  503  502  0.00000000000E+00  0.00000000000E+00  0.51575829434E+03  0.51575829434E+03  0.00000000000E+00 0.  1.
         21   -1    0    0  501  503 -0.00000000000E+00 -0.00000000000E+00 -0.14643923858E+03  0.14643923858E+03  0.00000000000E+00 0.  1.
          6    2    1    2  501    0  0.10837974235E+03  0.38909811371E+02 -0.29176961469E+02  0.21211275792E+03  0.17572815659E+03 0.  0.
         24    2    3    3    0    0  0.12126381529E+03  0.12552707764E+02 -0.69869022396E+02  0.16172793810E+03  0.80073480630E+02 0.  0.
         -6    2    1    2    0  502 -0.10837974235E+03 -0.38909811371E+02  0.39849601723E+03  0.45008477500E+03  0.17469140497E+03 0.  0.
        -24    2    5    5    0    0 -0.70234223069E+02  0.10669948833E+02  0.36237291601E+03  0.37769553751E+03  0.79329029358E+02 0.  0.
          5    1    3    3  501    0 -0.12884072936E+02  0.26357103607E+02  0.40692060927E+02  0.50384819822E+02  0.47000000000E+01 0. -1.
        -15    1    4    4    0    0  0.77901874041E+01  0.14534617233E+02  0.13106405729E+02  0.21139482444E+02  0.17770000000E+01 0.  1.
         16    1    4    4    0    0  0.11347362789E+03 -0.19819094683E+01 -0.82975428125E+02  0.14058845566E+03  0.00000000000E+00 0. -1.
         -5    1    5    5    0  502 -0.38145519286E+02 -0.49579760205E+02  0.36123101215E+02  0.72389237494E+02  0.47000000000E+01 0.  1.
         15    1    6    6    0    0 -0.45034242757E+01 -0.28096412793E+02  0.71386455848E+02  0.76869194412E+02  0.17770000000E+01 0. -1.
        -16    1    6    6    0    0 -0.65730798793E+02  0.38766361626E+02  0.29098646016E+03  0.30082634310E+03  0.00000000000E+00 0.  1.
<mgrwt>
<rscale>  2 0.20987954E+03</rscale>
<asrwt>0</asrwt>
<pdfrwt beam="1">  1       21 0.79347429E-01 0.21009647E+03</pdfrwt>
<pdfrwt beam="2">  1       21 0.22529114E-01 0.21009647E+03</pdfrwt>
<totfact> 0.25601106E+04</totfact>
</mgrwt>
</event>
<event>
12    2  0.4090627E-002  0.3964896E+03  0.7546771E-02  0.1045564E+00
         21   -1    0    0  503  502  0.00000000000E+00  0.00000000000E+00  0.16899377102E+04  0.16899377102E+04  0.00000000000E+00 0.  1.
         21   -1    0    0  501  503 -0.00000000000E+00 -0.00000000000E+00 -0.96226677492E+02  0.96226677492E+02  0.00000000000E+00 0. -1.
          6    2    1    2  501    0  0.32905228461E+03 -0.12007393938E+03  0.59354059384E+03  0.71027176759E+03  0.17176259887E+03 0.  0.
         24    2    3    3    0    0  0.29517600716E+03 -0.14210749727E+03  0.45863472188E+03  0.56936483328E+03  0.80666531361E+02 0.  0.
         -6    2    1    2    0  502 -0.32905228461E+03  0.12007393938E+03  0.10001704389E+04  0.10758926201E+04  0.18577100496E+03 0.  0.
        -24    2    5    5    0    0 -0.22854200750E+03  0.15731255102E+03  0.74464251937E+03  0.79875431953E+03  0.80853530631E+02 0.  0.
          5    1    3    3  501    0  0.33876277458E+02  0.22033557883E+02  0.13490587195E+03  0.14090693430E+03  0.47000000000E+01 0. -1.
        -15    1    4    4    0    0 -0.51196860100E+01 -0.45877783153E+01  0.94759233236E+01  0.11841019658E+02  0.17770000000E+01 0.  1.
         16    1    4    4    0    0  0.30029569317E+03 -0.13751971895E+03  0.44915879856E+03  0.55752381362E+03  0.00000000000E+00 0. -1.
         -5    1    5    5    0  502 -0.10051027711E+03 -0.37238611637E+02  0.25552791953E+03  0.27713830060E+03  0.47000000000E+01 0.  1.
         15    1    6    6    0    0 -0.41183126629E+02  0.62592844766E+02  0.26016752873E+03  0.27074751129E+03  0.17770000000E+01 0. -1.
        -16    1    6    6    0    0 -0.18735888087E+03  0.94719706254E+02  0.48447499064E+03  0.52800680824E+03  0.00000000000E+00 0.  1.
<mgrwt>
<rscale>  2 0.39488816E+03</rscale>
<asrwt>0</asrwt>
<pdfrwt beam="1">  1       21 0.25999040E+00 0.39648963E+03</pdfrwt>
<pdfrwt beam="2">  1       21 0.14804105E-01 0.39648963E+03</pdfrwt>
<totfact> 0.19883359E+03</totfact>
</mgrwt>
</event>
<event>
12    2  0.4090627E-002  0.2633129E+03  0.7546771E-02  0.1105314E+00
         21   -1    0    0  501  502  0.00000000000E+00  0.00000000000E+00  0.26691144648E+03  0.26691144648E+03  0.00000000000E+00 0. -1.
         21   -1    0    0  502  503 -0.00000000000E+00 -0.00000000000E+00 -0.28591816548E+03  0.28591816548E+03  0.00000000000E+00 0.  1.
         -6    2    1    2    0  503  0.20406042598E+02  0.19742699718E+03 -0.94648979799E+02  0.27980726156E+03  0.17303135107E+03 0.  0.
        -24    2    3    3    0    0  0.73757321307E+02  0.15844195966E+03 -0.92786598783E+02  0.21353697747E+03  0.80278831618E+02 0.  0.
          6    2    1    2  501    0 -0.20406042598E+02 -0.19742699718E+03  0.75642260797E+02  0.27302235040E+03  0.17153899384E+03 0.  0.
         24    2    5    5    0    0 -0.46472277534E+02 -0.95616497634E+02  0.98366576659E+02  0.16539655910E+03  0.79861449761E+02 0.  0.
          5    1    5    5  501    0  0.26066234936E+02 -0.10181049955E+03 -0.22724315861E+02  0.10762579130E+03  0.47000000000E+01 0. -1.
        -15    1    6    6    0    0 -0.48656023965E+02 -0.10447418068E+03  0.68305298346E+02  0.13398147114E+03  0.17770000000E+01 0.  1.
         16    1    6    6    0    0  0.21837464317E+01  0.88576830488E+01  0.30061278313E+02  0.31415087956E+02  0.00000000000E+00 0. -1.
         -5    1    3    3    0  503 -0.53351278709E+02  0.38985037523E+02 -0.18623810162E+01  0.66270284092E+02  0.47000000000E+01 0.  1.
         15    1    4    4    0    0  0.58704358953E+02  0.87229222537E+02 -0.13688202142E+02  0.10604557337E+03  0.17770000000E+01 0. -1.
        -16    1    4    4    0    0  0.15052962354E+02  0.71212737123E+02 -0.79098396641E+02  0.10749140410E+03  0.00000000000E+00 0.  1.
<mgrwt>
<rscale>  2 0.26306798E+03</rscale>
<asrwt>0</asrwt>
<pdfrwt beam="1">  1       21 0.41063300E-01 0.26331288E+03</pdfrwt>
<pdfrwt beam="2">  1       21 0.43987410E-01 0.26331288E+03</pdfrwt>
<totfact> 0.27383805E+04</totfact>
</mgrwt>
</event>
<event>
12    2  0.4090627E-002  0.2340066E+03  0.7546771E-02  0.1124016E+00
         21   -1    0    0  501  502  0.00000000000E+00  0.00000000000E+00  0.71588511791E+03  0.71588511791E+03  0.00000000000E+00 0. -1.
         21   -1    0    0  502  503 -0.00000000000E+00 -0.00000000000E+00 -0.97497860539E+02  0.97497860539E+02  0.00000000000E+00 0.  1.
         -6    2    1    2    0  503 -0.96832308828E+02  0.12414380801E+03  0.11951353815E+03  0.26275957892E+03  0.17312114086E+03 0.  0.
        -24    2    3    3    0    0 -0.72124127965E+02  0.16244747323E+02  0.10284542941E+03  0.15072111522E+03  0.81693883327E+02 0.  0.
          6    2    1    2  501    0  0.96832308828E+02 -0.12414380801E+03  0.49887371922E+03  0.55062339953E+03  0.17182246443E+03 0.  0.
         24    2    5    5    0    0  0.71300652453E+00 -0.99120110451E+02  0.34060700358E+03  0.36371286212E+03  0.80303240977E+02 0.  0.
          5    1    5    5  501    0  0.96119302304E+02 -0.25023697558E+02  0.15826671564E+03  0.18691053741E+03  0.47000000000E+01 0. -1.
        -15    1    6    6    0    0 -0.37001882730E+02 -0.30692688404E+02  0.10519204072E+03  0.11567066874E+03  0.17770000000E+01 0.  1.
         16    1    6    6    0    0  0.37714889254E+02 -0.68427422047E+02  0.23541496285E+03  0.24804219338E+03  0.00000000000E+00 0. -1.
         -5    1    3    3    0  503 -0.24708180863E+02  0.10789906069E+03  0.16668108744E+02  0.11203846370E+03  0.47000000000E+01 0.  1.
         15    1    4    4    0    0 -0.88712140115E+00 -0.41233446286E+01 -0.12678443201E+02  0.13479228698E+02  0.17770000000E+01 0. -1.
        -16    1    4    4    0    0 -0.71237006564E+02  0.20368091951E+02  0.11552387261E+03  0.13724188652E+03  0.00000000000E+00 0.  1.
<mgrwt>
<rscale>  2 0.23376649E+03</rscale>
<asrwt>0</asrwt>
<pdfrwt beam="1">  1       21 0.11013617E+00 0.23400665E+03</pdfrwt>
<pdfrwt beam="2">  1       21 0.14999671E-01 0.23400665E+03</pdfrwt>
<totfact> 0.24951044E+04</totfact>
</mgrwt>
</event>
<event>
12    2  0.4090627E-002  0.1742180E+03  0.7546771E-02  0.1174545E+00
         21   -1    0    0  501  502  0.00000000000E+00  0.00000000000E+00  0.13546408173E+03  0.13546408173E+03  0.00000000000E+00 0.  1.
         21   -1    0    0  502  503 -0.00000000000E+00 -0.00000000000E+00 -0.10473783725E+04  0.10473783725E+04  0.00000000000E+00 0.  1.
         -6    2    1    2    0  503 -0.47062960853E+01  0.12524348125E+01 -0.98083022691E+03  0.99548903838E+03  0.17013751408E+03 0.  0.
        -24    2    3    3    0    0  0.57652226473E+02 -0.22364186882E+02 -0.66246858997E+03  0.67018525415E+03  0.80372296949E+02 0.  0.
          6    2    1    2  501    0  0.47062960853E+01 -0.12524348125E+01  0.68915936177E+02  0.18735341582E+03  0.17414987322E+03 0.  0.
         24    2    5    5    0    0  0.25068987999E+02  0.55020622121E+02  0.64944761042E+01  0.10075188676E+03  0.80330825011E+02 0.  0.
          5    1    5    5  501    0 -0.20362691914E+02 -0.56273056934E+02  0.62421460073E+02  0.86601529064E+02  0.47000000000E+01 0. -1.
        -15    1    6    6    0    0  0.46639184294E+02  0.29142397620E+02  0.27022268037E+02  0.61301333994E+02  0.17770000000E+01 0.  1.
         16    1    6    6    0    0 -0.21570196294E+02  0.25878224501E+02 -0.20527791933E+02  0.39450552761E+02  0.00000000000E+00 0. -1.
         -5    1    3    3    0  503 -0.62358522559E+02  0.23616621695E+02 -0.31836163694E+03  0.32530378423E+03  0.47000000000E+01 0.  1.
         15    1    4    4    0    0  0.52782030018E+02  0.19689212198E+02 -0.29960664167E+03  0.30486210855E+03  0.17770000000E+01 0. -1.
        -16    1    4    4    0    0  0.48701964550E+01 -0.42053399081E+02 -0.36286194830E+03  0.36532314560E+03  0.00000000000E+00 0.  1.
<mgrwt>
<rscale>  2 0.17320649E+03</rscale>
<asrwt>0</asrwt>
<pdfrwt beam="1">  1       21 0.20840628E-01 0.17421796E+03</pdfrwt>
<pdfrwt beam="2">  1       21 0.16113513E+00 0.17421796E+03</pdfrwt>
<totfact> 0.53635853E+03</totfact>
</mgrwt>
</event>
<event>
12    2  0.4090627E-002  0.4396671E+03  0.7546771E-02  0.1030863E+00
         21   -1    0    0  501  502  0.00000000000E+00  0.00000000000E+00  0.69832571434E+03  0.69832571434E+03  0.00000000000E+00 0.  1.
         21   -1    0    0  502  503 -0.00000000000E+00 -0.00000000000E+00 -0.40959565260E+03  0.40959565260E+03  0.00000000000E+00 0.  1.
         -6    2    1    2    0  503  0.19967265168E+03  0.35069742056E+03 -0.17115837105E+03  0.47180752923E+03  0.17449730095E+03 0.  0.
        -24    2    3    3    0    0  0.14179266074E+03  0.20968360073E+03 -0.36416203581E+02  0.26830683530E+03  0.81179104031E+02 0.  0.
          6    2    1    2  501    0 -0.19967265168E+03 -0.35069742056E+03  0.45988843279E+03  0.63611383771E+03  0.17402757051E+03 0.  0.
         24    2    5    5    0    0 -0.13793490736E+03 -0.12098988827E+03  0.23330271917E+03  0.30757118435E+03  0.80655334199E+02 0.  0.
          5    1    5    5  501    0 -0.61737744316E+02 -0.22970753229E+03  0.22658571362E+03  0.32854265336E+03  0.47000000000E+01 0. -1.
        -15    1    6    6    0    0 -0.12167843967E+03 -0.94857909942E+02  0.13654627939E+03  0.20603812730E+03  0.17770000000E+01 0.  1.
         16    1    6    6    0    0 -0.16256467695E+02 -0.26131978331E+02  0.96756439783E+02  0.10153305705E+03  0.00000000000E+00 0. -1.
         -5    1    3    3    0  503  0.57879990938E+02  0.14101381983E+03 -0.13474216747E+03  0.20350069393E+03  0.47000000000E+01 0.  1.
         15    1    4    4    0    0  0.36167072990E+02  0.12730925870E+02  0.10823338268E+02  0.39880271093E+02  0.17770000000E+01 0. -1.
        -16    1    4    4    0    0  0.10562558775E+03  0.19695267486E+03 -0.47239541849E+02  0.22842656421E+03  0.00000000000E+00 0.  1.
<mgrwt>
<rscale>  2 0.43962054E+03</rscale>
<asrwt>0</asrwt>
<pdfrwt beam="1">  1       21 0.10743473E+00 0.43966710E+03</pdfrwt>
<pdfrwt beam="2">  1       21 0.63014716E-01 0.43966710E+03</pdfrwt>
<totfact> 0.13845418E+03</totfact>
</mgrwt>
</event>
<event>
12    2  0.4090627E-002  0.2071417E+03  0.7546771E-02  0.1143922E+00
         21   -1    0    0  501  502  0.00000000000E+00  0.00000000000E+00  0.96705978666E+03  0.96705978666E+03  0.00000000000E+00 0. -1.
         21   -1    0    0  502  503 -0.00000000000E+00 -0.00000000000E+00 -0.72642832589E+02  0.72642832589E+02  0.00000000000E+00 0. -1.
         -6    2    1    2    0  503  0.51132979600E+02  0.10009253958E+03  0.12220848098E+03  0.24019427127E+03  0.17356634768E+03 0.  0.
        -24    2    3    3    0    0 -0.78876408160E+01  0.53784279163E+02  0.13467527983E+03  0.16400109776E+03  0.76183761430E+02 0.  0.
          6    2    1    2  501    0 -0.51132979600E+02 -0.10009253958E+03  0.77220847309E+03  0.79950834797E+03  0.17399590363E+03 0.  0.
         24    2    5    5    0    0 -0.41470089980E+02 -0.70151571584E+02  0.24084567910E+03  0.26719420966E+03  0.82128516243E+02 0.  0.
          5    1    5    5  501    0 -0.96628896204E+01 -0.29940967995E+02  0.53136279400E+03  0.53231413831E+03  0.47000000000E+01 0. -1.
        -15    1    6    6    0    0 -0.30062538661E+02 -0.13031744458E+02  0.17998418063E+03  0.18295093769E+03  0.17770000000E+01 0.  1.
         16    1    6    6    0    0 -0.11407551318E+02 -0.57119827127E+02  0.60861498467E+02  0.84243271979E+02  0.00000000000E+00 0. -1.
         -5    1    3    3    0  503  0.59020620416E+02  0.46308260416E+02 -0.12466798851E+02  0.76193173518E+02  0.47000000000E+01 0.  1.
         15    1    4    4    0    0  0.12991427297E+02  0.43949204144E+02  0.13319963979E+03  0.14087445296E+03  0.17770000000E+01 0. -1.
        -16    1    4    4    0    0 -0.20879068113E+02  0.98350750192E+01  0.14756400384E+01  0.23126644794E+02  0.00000000000E+00 0.  1.
<mgrwt>
<rscale>  2 0.20705144E+03</rscale>
<asrwt>0</asrwt>
<pdfrwt beam="1">  1       21 0.14877842E+00 0.20714167E+03</pdfrwt>
<pdfrwt beam="2">  1       21 0.11175821E-01 0.20714167E+03</pdfrwt>
<totfact> 0.20152037E+04</totfact>
</mgrwt>
</event>
<event>
12    2  0.4090627E-002  0.2210081E+03  0.7546771E-02  0.1133307E+00
         21   -1    0    0  501  502  0.00000000000E+00  0.00000000000E+00  0.93582167280E+02  0.93582167280E+02  0.00000000000E+00 0.  1.
         21   -1    0    0  502  503 -0.00000000000E+00 -0.00000000000E+00 -0.51993875004E+03  0.51993875004E+03  0.00000000000E+00 0. -1.
         -6    2    1    2    0  503  0.13639644818E+03  0.23318834805E+02 -0.21961820051E+03  0.31157138840E+03  0.17232764417E+03 0.  0.
        -24    2    3    3    0    0  0.10640956770E+03  0.40640859565E+02 -0.23558277141E+03  0.27314973998E+03  0.78338130586E+02 0.  0.
          6    2    1    2  501    0 -0.13639644818E+03 -0.23318834805E+02 -0.20673838226E+03  0.30194952892E+03  0.17112860715E+03 0.  0.
         24    2    5    5    0    0 -0.71054136586E+02  0.53185472246E+02 -0.12934615445E+03  0.17492916202E+03  0.77410588878E+02 0.  0.
          5    1    5    5  501    0 -0.65342311596E+02 -0.76504307052E+02 -0.77392227810E+02  0.12702036690E+03  0.47000000000E+01 0. -1.
        -15    1    6    6    0    0 -0.52884864725E+02  0.13805799416E+01 -0.28522798542E+02  0.60128385007E+02  0.17770000000E+01 0.  1.
         16    1    6    6    0    0 -0.18169271862E+02  0.51804892305E+02 -0.10082335590E+03  0.11480077701E+03  0.00000000000E+00 0. -1.
         -5    1    3    3    0  503  0.29986880485E+02 -0.17322024760E+02  0.15964570905E+02  0.38421648419E+02  0.47000000000E+01 0.  1.
         15    1    4    4    0    0  0.14406824045E+02  0.42395909172E+02 -0.96284724961E+02  0.10620205122E+03  0.17770000000E+01 0. -1.
        -16    1    4    4    0    0  0.92002743652E+02 -0.17550496064E+01 -0.13929804645E+03  0.16694768876E+03  0.00000000000E+00 0.  1.
<mgrwt>
<rscale>  2 0.22077431E+03</rscale>
<asrwt>0</asrwt>
<pdfrwt beam="1">  1       21 0.14397256E-01 0.22100809E+03</pdfrwt>
<pdfrwt beam="2">  1       21 0.79990578E-01 0.22100809E+03</pdfrwt>
<totfact> 0.57376896E+04</totfact>
</mgrwt>
</event>
<event>
12    2  0.4090627E-002  0.1894571E+03  0.7546771E-02  0.1159424E+00
         21   -1    0    0  501  502  0.00000000000E+00  0.00000000000E+00  0.14866544430E+03  0.14866544430E+03  0.00000000000E+00 0.  1.
         21   -1    0    0  502  503 -0.00000000000E+00 -0.00000000000E+00 -0.40364743844E+03  0.40364743844E+03  0.00000000000E+00 0.  1.
         -6    2    1    2    0  503 -0.34365852112E+02  0.64850005910E+02 -0.30438099306E+03  0.35852722884E+03  0.17466381945E+03 0.  0.
        -24    2    3    3    0    0 -0.44079394657E+02  0.73577935030E+02 -0.31812383630E+03  0.33899557771E+03  0.79740334402E+02 0.  0.
          6    2    1    2  501    0  0.34365852112E+02 -0.64850005910E+02  0.49398998910E+02  0.19378565390E+03  0.17241253871E+03 0.  0.
         24    2    5    5    0    0  0.67902327079E+02 -0.49880329273E+01  0.65283957319E+02  0.12319831179E+03  0.79247854539E+02 0.  0.
          5    1    5    5  501    0 -0.33536474967E+02 -0.59861972983E+02 -0.15884958409E+02  0.70587342111E+02  0.47000000000E+01 0. -1.
        -15    1    6    6    0    0  0.16515956260E+02 -0.83679513864E+01  0.69100168207E+02  0.71559698133E+02  0.17770000000E+01 0.  1.
         16    1    6    6    0    0  0.51386370819E+02  0.33799184591E+01 -0.38162108880E+01  0.51638613656E+02  0.00000000000E+00 0. -1.
         -5    1    3    3    0  503  0.97135425453E+01 -0.87279291199E+01  0.13742843239E+02  0.19531651128E+02  0.47000000000E+01 0.  1.
         15    1    4    4    0    0  0.18934346560E+01  0.22063183410E+02 -0.12135447620E+02  0.25313948229E+02  0.17770000000E+01 0. -1.
        -16    1    4    4    0    0 -0.45972829313E+02  0.51514751620E+02 -0.30598838868E+03  0.31368162948E+03  0.00000000000E+00 0.  1.
<mgrwt>
<rscale>  2 0.18893657E+03</rscale>
<asrwt>0</asrwt>
<pdfrwt beam="1">  1       21 0.22871607E-01 0.18945708E+03</pdfrwt>
<pdfrwt beam="2">  1       21 0.62099605E-01 0.18945708E+03</pdfrwt>
<totfact> 0.43230117E+04</totfact>
</mgrwt>
</event>
<event>
12    2  0.4090627E-002  0.1810036E+03  0.7546771E-02  0.1171289E+00
         21   -1    0    0  501  502  0.00000000000E+00  0.00000000000E+00  0.10816646326E+03  0.10816646326E+03  0.00000000000E+00 0.  1.
         21   -1    0    0  502  503 -0.00000000000E+00 -0.00000000000E+00 -0.28511211915E+03  0.28511211915E+03  0.00000000000E+00 0.  1.
         -6    2    1    2    0  503 -0.20868717252E+02  0.29082025168E+02 -0.54419100951E+02  0.18900729026E+03  0.17742899897E+03 0.  0.
        -24    2    3    3    0    0 -0.50571085574E+02  0.14338497928E+02  0.27641087223E+02  0.10037565504E+03  0.80921043014E+02 0.  0.
          6    2    1    2  501    0  0.20868717252E+02 -0.29082025168E+02 -0.12252655493E+03  0.20427129215E+03  0.15947644524E+03 0.  0.
         24    2    5    5    0    0  0.25952365552E+02 -0.50997881586E+02 -0.22249789169E+02  0.10139433655E+03  0.80693550929E+02 0.  0.
          5    1    5    5  501    0 -0.50836482992E+01  0.21915856418E+02 -0.10027676577E+03  0.10287695561E+03  0.47000000000E+01 0. -1.
        -15    1    6    6    0    0  0.42106666686E+02  0.53418470606E+00  0.19999791266E+01  0.42194956787E+02  0.17770000000E+01 0.  1.
         16    1    6    6    0    0 -0.16154301135E+02 -0.51532066292E+02 -0.24249768296E+02  0.59199379759E+02  0.00000000000E+00 0. -1.
         -5    1    3    3    0  503  0.29702368322E+02  0.14743527240E+02 -0.82060188174E+02  0.88631635224E+02  0.47000000000E+01 0.  1.
         15    1    4    4    0    0 -0.13650260954E+02 -0.30834636292E+02  0.24925512240E+02  0.41970743486E+02  0.17770000000E+01 0. -1.
        -16    1    4    4    0    0 -0.36920824620E+02  0.45173134220E+02  0.27155749823E+01  0.58404911552E+02  0.00000000000E+00 0.  1.
<mgrwt>
<rscale>  2 0.17644439E+03</rscale>
<asrwt>0</asrwt>
<pdfrwt beam="1">  1       21 0.16640994E-01 0.18100364E+03</pdfrwt>
<pdfrwt beam="2">  1       21 0.43863403E-01 0.18100364E+03</pdfrwt>
<totfact> 0.16261546E+05</totfact>
</mgrwt>
</event>
<event>
12    2  0.4090627E-002  0.2334262E+03  0.7546771E-02  0.1124498E+00
         21   -1    0    0  503  502  0.00000000000E+00  0.00000000000E+00  0.56544308421E+03  0.56544308421E+03  0.00000000000E+00 0.  1.
         21   -1    0    0  501  503 -0.00000000000E+00 -0.00000000000E+00 -0.18146336055E+03  0.18146336055E+03  0.00000000000E+00 0.  1.
          6    2    1    2  501    0  0.18854121247E+01  0.15607923914E+03 -0.64945080271E+02  0.24092100101E+03  0.17164143325E+03 0.  0.
         24    2    3    3    0    0 -0.44896160898E+02  0.15636149966E+03 -0.67929542752E+02  0.19380845213E+03  0.80515274936E+02 0.  0.
         -6    2    1    2    0  502 -0.18854121247E+01 -0.15607923914E+03  0.44892480393E+03  0.50598544376E+03  0.17356124579E+03 0.  0.
        -24    2    5    5    0    0 -0.10245313875E+02 -0.79024283438E+02  0.39599951664E+03  0.41201454300E+03  0.81182280268E+02 0.  0.
          5    1    3    3  501    0  0.46781573023E+02 -0.28226052577E+00  0.29844624810E+01  0.47112548878E+02  0.47000000000E+01 0. -1.
        -15    1    4    4    0    0 -0.12923988462E+02  0.13950401116E+03 -0.33877074833E+02  0.14414996544E+03  0.17770000000E+01 0.  1.
         16    1    4    4    0    0 -0.31972172436E+02  0.16857488501E+02 -0.34052467919E+02  0.49658486689E+02  0.00000000000E+00 0. -1.
         -5    1    5    5    0  502  0.83599017505E+01 -0.77054955702E+02  0.52925287287E+02  0.93970900761E+02  0.47000000000E+01 0.  1.
         15    1    6    6    0    0 -0.34878188474E+02 -0.44346342922E+01  0.12264600345E+03  0.12759840871E+03  0.17770000000E+01 0. -1.
        -16    1    6    6    0    0  0.24632874599E+02 -0.74589649145E+02  0.27335351319E+03  0.28441613429E+03  0.00000000000E+00 0.  1.
<mgrwt>
<rscale>  2 0.23306940E+03</rscale>
<asrwt>0</asrwt>
<pdfrwt beam="1">  1       21 0.86991243E-01 0.23342620E+03</pdfrwt>
<pdfrwt beam="2">  1       21 0.27917440E-01 0.23342620E+03</pdfrwt>
<totfact> 0.13575069E+04</totfact>
</mgrwt>
</event>
<event>
12    2  0.4090627E-002  0.1937955E+03  0.7546771E-02  0.1155134E+00
         21   -1    0    0  501  502  0.00000000000E+00  0.00000000000E+00  0.50713364223E+02  0.50713364223E+02  0.00000000000E+00 0. -1.
         21   -1    0    0  502  503 -0.00000000000E+00 -0.00000000000E+00 -0.74172477105E+03  0.74172477105E+03  0.00000000000E+00 0. -1.
         -6    2    1    2    0  503  0.87669750778E+02 -0.95880879137E+01 -0.32486317464E+03  0.37827607866E+03  0.17256532915E+03 0.  0.
        -24    2    3    3    0    0  0.92481839216E+02 -0.37686426605E+02 -0.13429903789E+03  0.18553414486E+03  0.80084517826E+02 0.  0.
          6    2    1    2  501    0 -0.87669750778E+02  0.95880879137E+01 -0.36614823219E+03  0.41416205660E+03  0.17230137715E+03 0.  0.
         24    2    5    5    0    0  0.30501408119E+01 -0.36865912262E+02 -0.18239281074E+03  0.20398066406E+03  0.83501946406E+02 0.  0.
          5    1    5    5  501    0 -0.90719891590E+02  0.46454000176E+02 -0.18375542144E+03  0.21018139255E+03  0.47000000000E+01 0. -1.
        -15    1    6    6    0    0 -0.25787734977E+02  0.74429770976E+01 -0.20928326016E+02  0.34081633502E+02  0.17770000000E+01 0.  1.
         16    1    6    6    0    0  0.28837875789E+02 -0.44308889360E+02 -0.16146448473E+03  0.16989903056E+03  0.00000000000E+00 0. -1.
         -5    1    3    3    0  503 -0.48120884385E+01  0.28098338692E+02 -0.19056413675E+03  0.19274193381E+03  0.47000000000E+01 0.  1.
         15    1    4    4    0    0  0.85453732522E+02  0.41255021803E+01 -0.87598289452E+02  0.12245806717E+03  0.17770000000E+01 0. -1.
        -16    1    4    4    0    0  0.70281066944E+01 -0.41811928786E+02 -0.46700748434E+02  0.63076077690E+02  0.00000000000E+00 0.  1.
<mgrwt>
<rscale>  2 0.19373676E+03</rscale>
<asrwt>0</asrwt>
<pdfrwt beam="1">  1       21 0.78020566E-02 0.19379554E+03</pdfrwt>
<pdfrwt beam="2">  1       21 0.11411149E+00 0.19379554E+03</pdfrwt>
<totfact> 0.74851278E+04</totfact>
</mgrwt>
</event>
<event>
12    2  0.4090627E-002  0.1932628E+03  0.7546771E-02  0.1156179E+00
         21   -1    0    0  503  502  0.00000000000E+00  0.00000000000E+00  0.13713026506E+03  0.13713026506E+03  0.00000000000E+00 0. -1.
         21   -1    0    0  501  503 -0.00000000000E+00 -0.00000000000E+00 -0.37476716193E+03  0.37476716193E+03  0.00000000000E+00 0. -1.
          6    2    1    2  501    0 -0.76240465247E+02  0.21623427572E+02 -0.25579400037E+03  0.32059488523E+03  0.17626777541E+03 0.  0.
         24    2    3    3    0    0 -0.89448259984E+02  0.33713043629E+02 -0.90389889986E+02  0.15415806721E+03  0.80354321292E+02 0.  0.
         -6    2    1    2    0  502  0.76240465247E+02 -0.21623427572E+02  0.18157103508E+02  0.19130254176E+03  0.17316697409E+03 0.  0.
        -24    2    5    5    0    0  0.11676307274E+03 -0.76015911777E+01  0.33548645817E+02  0.14550207027E+03  0.79711614412E+02 0.  0.
          5    1    3    3  501    0  0.13207794737E+02 -0.12089616056E+02 -0.16540411039E+03  0.16643681801E+03  0.47000000000E+01 0. -1.
        -15    1    4    4    0    0 -0.64101649438E+02 -0.18251695015E+02 -0.54442566432E+02  0.86077271101E+02  0.17770000000E+01 0.  1.
         16    1    4    4    0    0 -0.25346610546E+02  0.51964738644E+02 -0.35947323554E+02  0.68080796112E+02  0.00000000000E+00 0. -1.
         -5    1    5    5    0  502 -0.40522607497E+02 -0.14021836395E+02 -0.15391542309E+02  0.45800471492E+02  0.47000000000E+01 0.  1.
         15    1    6    6    0    0  0.11183317051E+02  0.22099764060E+02 -0.10952314026E+02  0.27139953266E+02  0.17770000000E+01 0. -1.
        -16    1    6    6    0    0  0.10557975569E+03 -0.29701355238E+02  0.44500959843E+02  0.11836211701E+03  0.00000000000E+00 0.  1.
<mgrwt>
<rscale>  2 0.19255293E+03</rscale>
<asrwt>0</asrwt>
<pdfrwt beam="1">  1       21 0.21096964E-01 0.19326280E+03</pdfrwt>
<pdfrwt beam="2">  1       21 0.57656486E-01 0.19326280E+03</pdfrwt>
<totfact> 0.58926486E+04</totfact>
</mgrwt>
</event>
<event>
12    2  0.4090627E-002  0.2361692E+03  0.7546771E-02  0.1122712E+00
         21   -1    0    0  503  502  0.00000000000E+00  0.00000000000E+00  0.42784736355E+02  0.42784736355E+02  0.00000000000E+00 0. -1.
         21   -1    0    0  501  503 -0.00000000000E+00 -0.00000000000E+00 -0.23688159220E+04  0.23688159220E+04  0.00000000000E+00 0.  1.
          6    2    1    2  501    0  0.14799136671E+03  0.55726078045E+02 -0.19730542896E+04  0.19869024544E+04  0.17271737971E+03 0.  0.
         24    2    3    3    0    0  0.14144438043E+03  0.79673634464E+02 -0.12133546206E+04  0.12267827102E+04  0.80074851809E+02 0.  0.
         -6    2    1    2    0  502 -0.14799136671E+03 -0.55726078045E+02 -0.35297689606E+03  0.42469820395E+03  0.17541104553E+03 0.  0.
        -24    2    5    5    0    0 -0.31297611203E+02  0.25432221945E+02 -0.12253555796E+03  0.15390418161E+03  0.83935664488E+02 0.  0.
          5    1    3    3  501    0  0.65469862742E+01 -0.23947556419E+02 -0.75969966902E+03  0.76011974425E+03  0.47000000000E+01 0. -1.
        -15    1    4    4    0    0  0.14485856576E+03  0.56222395352E+02 -0.11045119968E+04  0.11153900083E+04  0.17770000000E+01 0.  1.
         16    1    4    4    0    0 -0.34141853278E+01  0.23451239112E+02 -0.10884262381E+03  0.11139270189E+03  0.00000000000E+00 0. -1.
         -5    1    5    5    0  502 -0.11669375551E+03 -0.81158299991E+02 -0.23044133809E+03  0.27079402234E+03  0.47000000000E+01 0.  1.
         15    1    6    6    0    0 -0.33611587175E+02  0.85343316020E+01 -0.49341764550E+01  0.35072459774E+02  0.17770000000E+01 0. -1.
        -16    1    6    6    0    0  0.23139759725E+01  0.16897890343E+02 -0.11760138151E+03  0.11883172184E+03  0.00000000000E+00 0.  1.
<mgrwt>
<rscale>  2 0.23566915E+03</rscale>
<asrwt>0</asrwt>
<pdfrwt beam="1">  1       21 0.65822655E-02 0.23616917E+03</pdfrwt>
<pdfrwt beam="2">  1       21 0.36443331E+00 0.23616917E+03</pdfrwt>
<totfact> 0.22848412E+03</totfact>
</mgrwt>
</event>
<event>
12    2  0.4090627E-002  0.1934404E+03  0.7546771E-02  0.1155405E+00
         21   -1    0    0  501  502  0.00000000000E+00  0.00000000000E+00  0.82511449674E+03  0.82511449674E+03  0.00000000000E+00 0.  1.
         21   -1    0    0  502  503 -0.00000000000E+00 -0.00000000000E+00 -0.45390108414E+02  0.45390108414E+02  0.00000000000E+00 0.  1.
         -6    2    1    2    0  503  0.18234351811E+02  0.84463276878E+02  0.37529813404E+03  0.42221781385E+03  0.17306835700E+03 0.  0.
        -24    2    3    3    0    0  0.65411784457E+02  0.99250052122E+02  0.28798336051E+03  0.32176723621E+03  0.80439194253E+02 0.  0.
          6    2    1    2  501    0 -0.18234351811E+02 -0.84463276878E+02  0.40442625428E+03  0.44828679130E+03  0.17301420569E+03 0.  0.
         24    2    5    5    0    0  0.54139084596E+00 -0.38454954766E+02  0.38445981894E+03  0.39452767341E+03  0.79772526937E+02 0.  0.
          5    1    5    5  501    0 -0.18775742657E+02 -0.46008322112E+02  0.19966435339E+02  0.53759117887E+02  0.47000000000E+01 0. -1.
        -15    1    6    6    0    0 -0.31042223491E+02 -0.38804714626E+02  0.15187620268E+03  0.15980914926E+03  0.17770000000E+01 0.  1.
         16    1    6    6    0    0  0.31583614337E+02  0.34975986072E+00  0.23258361626E+03  0.23471852415E+03  0.00000000000E+00 0. -1.
         -5    1    3    3    0  503 -0.47177432646E+02 -0.14786775245E+02  0.87314773526E+02  0.10045057764E+03  0.47000000000E+01 0.  1.
         15    1    4    4    0    0  0.26550651234E+01 -0.13680812065E+02  0.22694799887E+02  0.26691303087E+02  0.17770000000E+01 0. -1.
        -16    1    4    4    0    0  0.62756719333E+02  0.11293086419E+03  0.26528856063E+03  0.29507593312E+03  0.00000000000E+00 0.  1.
<mgrwt>
<rscale>  2 0.19342830E+03</rscale>
<asrwt>0</asrwt>
<pdfrwt beam="1">  1       21 0.12694068E+00 0.19344041E+03</pdfrwt>
<pdfrwt beam="2">  1       21 0.69830942E-02 0.19344041E+03</pdfrwt>
<totfact> 0.69691047E+04</totfact>
</mgrwt>
</event>
<event>
12    2  0.4090627E-002  0.2563708E+03  0.7546771E-02  0.1109671E+00
         21   -1    0    0  501  502  0.00000000000E+00  0.00000000000E+00  0.18016483515E+03  0.18016483515E+03  0.00000000000E+00 0. -1.
         21   -1    0    0  502  503 -0.00000000000E+00 -0.00000000000E+00 -0.49088904721E+03  0.49088904721E+03  0.00000000000E+00 0. -1.
         -6    2    1    2    0  503  0.18688938373E+03  0.23145178075E+02 -0.32790958602E+03  0.41623390275E+03  0.17396155948E+03 0.  0.
        -24    2    3    3    0    0  0.17247653834E+02  0.88321323368E+01 -0.14369259349E+03  0.16535311406E+03  0.79489639444E+02 0.  0.
          6    2    1    2  501    0 -0.18688938373E+03 -0.23145178075E+02  0.17185373958E+02  0.25481997961E+03  0.17080557342E+03 0.  0.
         24    2    5    5    0    0 -0.67294884261E+02  0.36859288899E+02  0.42628596591E+02  0.11853781666E+03  0.79666857012E+02 0.  0.
          5    1    5    5  501    0 -0.11959449947E+03 -0.60004466974E+02 -0.25443222633E+02  0.13628216295E+03  0.47000000000E+01 0. -1.
        -15    1    6    6    0    0 -0.54329397459E+02  0.53396928701E+02  0.55163010531E+02  0.94069287670E+02  0.17770000000E+01 0.  1.
         16    1    6    6    0    0 -0.12965486803E+02 -0.16537639802E+02 -0.12534413940E+02  0.24468528993E+02  0.00000000000E+00 0. -1.
         -5    1    3    3    0  503  0.16964172990E+03  0.14313045738E+02 -0.18421699253E+03  0.25088078870E+03  0.47000000000E+01 0.  1.
         15    1    4    4    0    0  0.48972613880E+01 -0.33747255505E+02 -0.86451173876E+02  0.92950651513E+02  0.17770000000E+01 0. -1.
        -16    1    4    4    0    0  0.12350392446E+02  0.42579387841E+02 -0.57241419617E+02  0.72402462543E+02  0.00000000000E+00 0.  1.
<mgrwt>
<rscale>  2 0.25583635E+03</rscale>
<asrwt>0</asrwt>
<pdfrwt beam="1">  1       21 0.27717667E-01 0.25637076E+03</pdfrwt>
<pdfrwt beam="2">  1       21 0.75521392E-01 0.25637076E+03</pdfrwt>
<totfact> 0.18780873E+04</totfact>
</mgrwt>
</event>
<event>
12    2  0.4090627E-002  0.1979760E+03  0.7546771E-02  0.1152141E+00
         21   -1    0    0  503  502  0.00000000000E+00  0.00000000000E+00  0.75476435272E+03  0.75476435272E+03  0.00000000000E+00 0. -1.
         21   -1    0    0  501  503 -0.00000000000E+00 -0.00000000000E+00 -0.71341450965E+02  0.71341450965E+02  0.00000000000E+00 0. -1.
          6    2    1    2  501    0 -0.74804723196E+02 -0.57868930938E+02  0.11973906105E+03  0.22866629948E+03  0.17031228376E+03 0.  0.
         24    2    3    3    0    0  0.54088228813E+01 -0.60486820141E+02  0.10625209909E+03  0.14714909602E+03  0.81703348292E+02 0.  0.
         -6    2    1    2    0  502  0.74804723196E+02  0.57868930938E+02  0.56368384071E+03  0.59743950420E+03  0.17392506755E+03 0.  0.
        -24    2    5    5    0    0  0.58202791993E+02 -0.28295248359E+02  0.34791992718E+03  0.36446730351E+03  0.87177712303E+02 0.  0.
          5    1    3    3  501    0 -0.80213546077E+02  0.26178892027E+01  0.13486961956E+02  0.81517203466E+02  0.47000000000E+01 0. -1.
        -15    1    4    4    0    0  0.39477167341E+02 -0.20963111827E+02  0.26963993088E+02  0.52231345484E+02  0.17770000000E+01 0.  1.
         16    1    4    4    0    0 -0.34068344460E+02 -0.39523708314E+02  0.79288106001E+02  0.94917750534E+02  0.00000000000E+00 0. -1.
         -5    1    5    5    0  502  0.16601931202E+02  0.86164179298E+02  0.21576391353E+03  0.23297220069E+03  0.47000000000E+01 0.  1.
         15    1    6    6    0    0  0.56008163715E+02  0.83945554941E+01  0.29269596653E+03  0.29812995407E+03  0.17770000000E+01 0. -1.
        -16    1    6    6    0    0  0.21946282784E+01 -0.36689803853E+02  0.55223960651E+02  0.66337349435E+02  0.00000000000E+00 0.  1.
<mgrwt>
<rscale>  2 0.19717963E+03</rscale>
<asrwt>0</asrwt>
<pdfrwt beam="1">  1       21 0.11611759E+00 0.19797598E+03</pdfrwt>
<pdfrwt beam="2">  1       21 0.10975608E-01 0.19797598E+03</pdfrwt>
<totfact> 0.39280110E+04</totfact>
</mgrwt>
</event>
<event>
12    2  0.4090627E-002  0.2029137E+03  0.7546771E-02  0.1147472E+00
         21   -1    0    0  503  502  0.00000000000E+00  0.00000000000E+00  0.55277059205E+03  0.55277059205E+03  0.00000000000E+00 0. -1.
         21   -1    0    0  501  503 -0.00000000000E+00 -0.00000000000E+00 -0.31871658446E+03  0.31871658446E+03  0.00000000000E+00 0. -1.
          6    2    1    2  501    0 -0.35953080296E+02  0.99577684947E+02 -0.26459232768E+03  0.33344124776E+03  0.17310582462E+03 0.  0.
         24    2    3    3    0    0 -0.53402637684E+02  0.42999508034E+02 -0.61128588737E+02  0.12148568586E+03  0.79506402918E+02 0.  0.
         -6    2    1    2    0  502  0.35953080296E+02 -0.99577684947E+02  0.49864633528E+03  0.53804592875E+03  0.17215375230E+03 0.  0.
        -24    2    5    5    0    0  0.81905855470E+02 -0.10053281543E+03  0.43832569683E+03  0.46206409379E+03  0.67515880580E+02 0.  0.
          5    1    3    3  501    0  0.17449557388E+02  0.56578176913E+02 -0.20346373895E+03  0.21195556190E+03  0.47000000000E+01 0. -1.
        -15    1    4    4    0    0 -0.37675150531E+02  0.56110164760E+01 -0.70230910319E+02  0.79915198597E+02  0.17770000000E+01 0.  1.
         16    1    4    4    0    0 -0.15727487153E+02  0.37388491558E+02  0.91023215819E+01  0.41570487263E+02  0.00000000000E+00 0. -1.
         -5    1    5    5    0  502 -0.45952775173E+02  0.95513048776E+00  0.60320638452E+02  0.75981834958E+02  0.47000000000E+01 0.  1.
         15    1    6    6    0    0 -0.60301379419E+01 -0.37442041887E+02  0.11229302281E+03  0.11853754580E+03  0.17770000000E+01 0. -1.
        -16    1    6    6    0    0  0.87935993412E+02 -0.63090773548E+02  0.32603267402E+03  0.34352654799E+03  0.00000000000E+00 0.  1.
<mgrwt>
<rscale>  2 0.20271048E+03</rscale>
<asrwt>0</asrwt>
<pdfrwt beam="1">  1       21 0.85041629E-01 0.20291369E+03</pdfrwt>
<pdfrwt beam="2">  1       21 0.49033321E-01 0.20291369E+03</pdfrwt>
<totfact> 0.47116293E+03</totfact>
</mgrwt>
</event>
<event>
12    2  0.4090627E-002  0.1968564E+03  0.7546771E-02  0.1153082E+00
         21   -1    0    0  503  502  0.00000000000E+00  0.00000000000E+00  0.67812894874E+03  0.67812894874E+03  0.00000000000E+00 0. -1.
         21   -1    0    0  501  503 -0.00000000000E+00 -0.00000000000E+00 -0.21576837019E+03  0.21576837019E+03  0.00000000000E+00 0. -1.
          6    2    1    2  501    0 -0.94446653159E+02 -0.52445733745E+01 -0.15357267196E+03  0.24727051438E+03  0.16914628540E+03 0.  0.
         24    2    3    3    0    0  0.10508214851E+02  0.14796792533E+02 -0.35080378727E+02  0.87646912671E+02  0.78243087110E+02 0.  0.
         -6    2    1    2    0  502  0.94446653159E+02  0.52445733745E+01  0.61593325051E+03  0.64662680455E+03  0.17264060770E+03 0.  0.
        -24    2    5    5    0    0  0.52862571281E+02 -0.61492499738E+02  0.28743651744E+03  0.30881729250E+03  0.78565829843E+02 0.  0.
          5    1    3    3  501    0 -0.10495486801E+03 -0.20041365907E+02 -0.11849229324E+03  0.15962360171E+03  0.47000000000E+01 0. -1.
        -15    1    4    4    0    0  0.23230377661E+02 -0.18543908795E+02 -0.41812482149E+02  0.51331943195E+02  0.17770000000E+01 0.  1.
         16    1    4    4    0    0 -0.12722162810E+02  0.33340701328E+02  0.67321034224E+01  0.36314969476E+02  0.00000000000E+00 0. -1.
         -5    1    5    5    0  502  0.41584081878E+02  0.66737073113E+02  0.32849673307E+03  0.33780951205E+03  0.47000000000E+01 0.  1.
         15    1    6    6    0    0  0.50535568010E+02 -0.17953754344E+02  0.23286171367E+03  0.23896425748E+03  0.17770000000E+01 0. -1.
        -16    1    6    6    0    0  0.23270032714E+01 -0.43538745394E+02  0.54574803774E+02  0.69853035022E+02  0.00000000000E+00 0.  1.
<mgrwt>
<rscale>  2 0.19608764E+03</rscale>
<asrwt>0</asrwt>
<pdfrwt beam="1">  1       21 0.10432753E+00 0.19685643E+03</pdfrwt>
<pdfrwt beam="2">  1       21 0.33195134E-01 0.19685643E+03</pdfrwt>
<totfact> 0.64628765E+03</totfact>
</mgrwt>
</event>
<event>
12    2  0.4090627E-002  0.2033961E+03  0.7546771E-02  0.1148722E+00
         21   -1    0    0  503  502  0.00000000000E+00  0.00000000000E+00  0.22387366543E+03  0.22387366543E+03  0.00000000000E+00 0.  1.
         21   -1    0    0  501  503 -0.00000000000E+00 -0.00000000000E+00 -0.18515070174E+03  0.18515070174E+03  0.00000000000E+00 0. -1.
          6    2    1    2  501    0 -0.99585498406E+02 -0.42540699817E+02  0.62506295708E+02  0.21278395273E+03  0.17217139979E+03 0.  0.
         24    2    3    3    0    0  0.19988295136E+02 -0.84720971956E+01  0.25844361189E+02  0.83073701676E+02  0.75907842359E+02 0.  0.
         -6    2    1    2    0  502  0.99585498406E+02  0.42540699817E+02 -0.23783332008E+02  0.19624041444E+03  0.16191871647E+03 0.  0.
        -24    2    5    5    0    0  0.87404098938E+01  0.54702938655E+02 -0.35176334338E+02  0.10375992643E+03  0.80373761713E+02 0.  0.
          5    1    3    3  501    0 -0.11957379354E+03 -0.34068602622E+02  0.36661934519E+02  0.12971025106E+03  0.47000000000E+01 0. -1.
        -15    1    4    4    0    0 -0.20334396722E+02  0.10920410451E+02  0.30274900537E+02  0.38111289482E+02  0.17770000000E+01 0.  1.
         16    1    4    4    0    0  0.40322691858E+02 -0.19392507646E+02 -0.44305393476E+01  0.44962412195E+02  0.00000000000E+00 0. -1.
         -5    1    5    5    0  502  0.90845088513E+02 -0.12162238838E+02  0.11393002329E+02  0.92480488010E+02  0.47000000000E+01 0.  1.
         15    1    6    6    0    0  0.21085060091E+02  0.27482178963E+02 -0.57019397308E+02  0.66739937952E+02  0.17770000000E+01 0. -1.
        -16    1    6    6    0    0 -0.12344650197E+02  0.27220759692E+02  0.21843062970E+02  0.37019988474E+02  0.00000000000E+00 0.  1.
<mgrwt>
<rscale>  2 0.20121057E+03</rscale>
<asrwt>0</asrwt>
<pdfrwt beam="1">  1       21 0.34442102E-01 0.20339610E+03</pdfrwt>
<pdfrwt beam="2">  1       21 0.28484723E-01 0.20339610E+03</pdfrwt>
<totfact> 0.95327282E+04</totfact>
</mgrwt>
</event>
<event>
12    2  0.4090627E-002  0.1810117E+03  0.7546771E-02  0.1167306E+00
         21   -1    0    0  501  502  0.00000000000E+00  0.00000000000E+00  0.14601411458E+03  0.14601411458E+03  0.00000000000E+00 0. -1.
         21   -1    0    0  502  503 -0.00000000000E+00 -0.00000000000E+00 -0.58834087312E+03  0.58834087312E+03  0.00000000000E+00 0. -1.
         -6    2    1    2    0  503  0.24488335246E+02  0.40154707372E+02 -0.51046046228E+03  0.54094496546E+03  0.17274111562E+03 0.  0.
        -24    2    3    3    0    0 -0.25929335960E+02  0.22804651491E+02 -0.13152825230E+03  0.15825099404E+03  0.80940183889E+02 0.  0.
          6    2    1    2  501    0 -0.24488335246E+02 -0.40154707372E+02  0.68133703731E+02  0.19341002223E+03  0.17479461098E+03 0.  0.
         24    2    5    5    0    0 -0.73454236814E+02 -0.63117044528E+02  0.33088081847E+02  0.12879412591E+03  0.78190916951E+02 0.  0.
          5    1    5    5  501    0  0.48965901568E+02  0.22962337155E+02  0.35045621885E+02  0.64615896320E+02  0.47000000000E+01 0. -1.
        -15    1    6    6    0    0 -0.63122654474E+02 -0.79972298204E+02  0.37426750803E+02  0.10855393771E+03  0.17770000000E+01 0.  1.
         16    1    6    6    0    0 -0.10331582340E+02  0.16855253676E+02 -0.43386689568E+01  0.20240188202E+02  0.00000000000E+00 0. -1.
         -5    1    3    3    0  503  0.50417671207E+02  0.17350055881E+02 -0.37893220997E+03  0.38269397142E+03  0.47000000000E+01 0.  1.
         15    1    4    4    0    0 -0.18811835891E+02 -0.19831543818E+02 -0.10270804588E+03  0.10629805133E+03  0.17770000000E+01 0. -1.
        -16    1    4    4    0    0 -0.71175000691E+01  0.42636195310E+02 -0.28820206423E+02  0.51952942708E+02  0.00000000000E+00 0.  1.
<mgrwt>
<rscale>  2 0.18051411E+03</rscale>
<asrwt>0</asrwt>
<pdfrwt beam="1">  1       21 0.22463710E-01 0.18101170E+03</pdfrwt>
<pdfrwt beam="2">  1       21 0.90513979E-01 0.18101170E+03</pdfrwt>
<totfact> 0.19379764E+04</totfact>
</mgrwt>
</event>
<event>
12    2  0.4090627E-002  0.2233372E+03  0.7546771E-02  0.1131446E+00
         21   -1    0    0  501  502  0.00000000000E+00  0.00000000000E+00  0.17171404502E+03  0.17171404502E+03  0.00000000000E+00 0. -1.
         21   -1    0    0  502  503 -0.00000000000E+00 -0.00000000000E+00 -0.29171529412E+03  0.29171529412E+03  0.00000000000E+00 0.  1.
         -6    2    1    2    0  503  0.17915912820E+02  0.14030157932E+03 -0.43798426515E+02  0.22744970058E+03  0.17265442663E+03 0.  0.
        -24    2    3    3    0    0  0.56482718702E+02  0.15393659019E+03 -0.47701148517E+02  0.18608989792E+03  0.73941052373E+02 0.  0.
          6    2    1    2  501    0 -0.17915912820E+02 -0.14030157932E+03 -0.76202822586E+02  0.23597963856E+03  0.17284098632E+03 0.  0.
         24    2    5    5    0    0 -0.26874900527E+02 -0.20080159265E+01 -0.35889470254E+02  0.91575242807E+02  0.79822795076E+02 0.  0.
          5    1    5    5  501    0  0.89589877075E+01 -0.13829356339E+03 -0.40313352332E+02  0.14440439575E+03  0.47000000000E+01 0. -1.
        -15    1    6    6    0    0 -0.21609554243E+02 -0.39999002162E+02 -0.23885828467E+02  0.51386608558E+02  0.17770000000E+01 0.  1.
         16    1    6    6    0    0 -0.52653462846E+01  0.37990986235E+02 -0.12003641787E+02  0.40188634249E+02  0.00000000000E+00 0. -1.
         -5    1    3    3    0  503 -0.38566805883E+02 -0.13635010866E+02  0.39027220020E+01  0.41359802663E+02  0.47000000000E+01 0.  1.
         15    1    4    4    0    0  0.20861653546E+02  0.68463851122E+02  0.16426685294E+02  0.73454075570E+02  0.17770000000E+01 0. -1.
        -16    1    4    4    0    0  0.35621065157E+02  0.85472739064E+02 -0.64127833811E+02  0.11263582235E+03  0.00000000000E+00 0.  1.
<mgrwt>
<rscale>  2 0.22330114E+03</rscale>
<asrwt>0</asrwt>
<pdfrwt beam="1">  1       21 0.26417545E-01 0.22333723E+03</pdfrwt>
<pdfrwt beam="2">  1       21 0.44879276E-01 0.22333723E+03</pdfrwt>
<totfact> 0.64065628E+04</totfact>
</mgrwt>
</event>
<event>
12    2  0.4090627E-002  0.1766452E+03  0.7546771E-02  0.1172124E+00
         21   -1    0    0  503  502  0.00000000000E+00  0.00000000000E+00  0.11244599947E+02  0.11244599947E+02  0.00000000000E+00 0. -1.
         21   -1    0    0  501  503 -0.00000000000E+00 -0.00000000000E+00 -0.32925761721E+04  0.32925761721E+04  0.00000000000E+00 0. -1.
          6    2    1    2  501    0 -0.39576515467E+01 -0.35703997692E+01 -0.23191603549E+04  0.23255687754E+04  0.17244409776E+03 0.  0.
         24    2    3    3    0    0 -0.13378698107E+02  0.59334935382E+02 -0.10568763959E+04  0.10616745075E+04  0.80407833142E+02 0.  0.
         -6    2    1    2    0  502  0.39576515467E+01  0.35703997692E+01 -0.96217121724E+03  0.97825199659E+03  0.17656473819E+03 0.  0.
        -24    2    5    5    0    0 -0.18492745221E+00 -0.61429743150E+02 -0.39167045488E+03  0.40402609209E+03  0.77831165478E+02 0.  0.
          5    1    3    3  501    0  0.94210465602E+01 -0.62905335151E+02 -0.12622839590E+04  0.12638942679E+04  0.47000000000E+01 0. -1.
        -15    1    4    4    0    0 -0.46151674126E+02  0.24078903391E+02 -0.49122339528E+03  0.49397707681E+03  0.17770000000E+01 0.  1.
         16    1    4    4    0    0  0.32772976019E+02  0.35256031991E+02 -0.56565300059E+03  0.56769743070E+03  0.00000000000E+00 0. -1.
         -5    1    5    5    0  502  0.41425789989E+01  0.65000142920E+02 -0.57050076236E+03  0.57422590450E+03  0.47000000000E+01 0.  1.
         15    1    6    6    0    0  0.15509874095E+02 -0.45403395395E+02 -0.94377871497E+02  0.10588845482E+03  0.17770000000E+01 0. -1.
        -16    1    6    6    0    0 -0.15694801547E+02 -0.16026347755E+02 -0.29729258338E+03  0.29813763726E+03  0.00000000000E+00 0.  1.
<mgrwt>
<rscale>  2 0.17560637E+03</rscale>
<asrwt>0</asrwt>
<pdfrwt beam="1">  1       21 0.17299388E-02 0.17664517E+03</pdfrwt>
<pdfrwt beam="2">  1       21 0.50655009E+00 0.17664517E+03</pdfrwt>
<totfact> 0.27184529E+03</totfact>
</mgrwt>
</event>
<event>
12    2  0.4090627E-002  0.2302004E+03  0.7546771E-02  0.1127592E+00
         21   -1    0    0  503  502  0.00000000000E+00  0.00000000000E+00  0.19960818778E+03  0.19960818778E+03  0.00000000000E+00 0. -1.
         21   -1    0    0  501  503 -0.00000000000E+00 -0.00000000000E+00 -0.26344971713E+03  0.26344971713E+03  0.00000000000E+00 0.  1.
          6    2    1    2  501    0  0.99625615251E+02  0.11558988458E+03 -0.63367833297E+02  0.23285701166E+03  0.16407504670E+03 0.  0.
         24    2    3    3    0    0  0.90220010809E+02  0.42365505652E+02  0.10708970095E+02  0.12816824500E+03  0.79861946919E+02 0.  0.
         -6    2    1    2    0  502 -0.99625615251E+02 -0.11558988458E+03 -0.47369606107E+00  0.23020089325E+03  0.17235411870E+03 0.  0.
        -24    2    5    5    0    0 -0.77202871648E+02 -0.45312031895E+02 -0.60524638160E+02  0.13496454695E+03  0.80862435555E+02 0.  0.
          5    1    3    3  501    0  0.94056044418E+01  0.73224378933E+02 -0.74076803392E+02  0.10468876666E+03  0.47000000000E+01 0. -1.
        -15    1    4    4    0    0  0.71091566341E+02  0.12883999006E+02 -0.26509188674E+02  0.76979887298E+02  0.17770000000E+01 0.  1.
         16    1    4    4    0    0  0.19128444468E+02  0.29481506646E+02  0.37218158768E+02  0.51188357700E+02  0.00000000000E+00 0. -1.
         -5    1    5    5    0  502 -0.22422743602E+02 -0.70277852690E+02  0.60050942099E+02  0.95236346299E+02  0.47000000000E+01 0.  1.
         15    1    6    6    0    0 -0.33187146383E+02 -0.31619254997E+02  0.13449159314E+02  0.47803782140E+02  0.17770000000E+01 0. -1.
        -16    1    6    6    0    0 -0.44015725265E+02 -0.13692776898E+02 -0.73973797473E+02  0.87160764811E+02  0.00000000000E+00 0.  1.
<mgrwt>
<rscale>  2 0.22865200E+03</rscale>
<asrwt>0</asrwt>
<pdfrwt beam="1">  1       21 0.30708952E-01 0.23020041E+03</pdfrwt>
<pdfrwt beam="2">  1       21 0.40530726E-01 0.23020041E+03</pdfrwt>
<totfact> 0.58725861E+04</totfact>
</mgrwt>
</event>
<event>
12    2  0.4090627E-002  0.2875380E+03  0.7546771E-02  0.1091666E+00
         21   -1    0    0  501  502  0.00000000000E+00  0.00000000000E+00  0.22906501878E+03  0.22906501878E+03  0.00000000000E+00 0. -1.
         21   -1    0    0  502  503 -0.00000000000E+00 -0.00000000000E+00 -0.47344130868E+03  0.47344130868E+03  0.00000000000E+00 0.  1.
         -6    2    1    2    0  503  0.21956823645E+03  0.66889519250E+02 -0.29355842861E+03  0.41079248823E+03  0.17288579797E+03 0.  0.
        -24    2    3    3    0    0  0.77589169793E+02  0.84656620853E+02 -0.17999888257E+03  0.22805884118E+03  0.80152445954E+02 0.  0.
          6    2    1    2  501    0 -0.21956823645E+03 -0.66889519250E+02  0.49182138710E+02  0.29171383923E+03  0.17318678642E+03 0.  0.
         24    2    5    5    0    0 -0.16213168611E+03  0.20287825072E+02  0.20456536679E+02  0.18333442749E+03  0.80590091969E+02 0.  0.
          5    1    5    5  501    0 -0.57436550340E+02 -0.87177344323E+02  0.28725602031E+02  0.10837941174E+03  0.47000000000E+01 0. -1.
        -15    1    6    6    0    0 -0.12945415367E+03 -0.15160838357E+02 -0.14957756592E+01  0.13035959496E+03  0.17770000000E+01 0.  1.
         16    1    6    6    0    0 -0.32677532432E+02  0.35448663430E+02  0.21952312338E+02  0.52974832532E+02  0.00000000000E+00 0. -1.
         -5    1    3    3    0  503  0.14197906665E+03 -0.17767101602E+02 -0.11355954604E+03  0.18273364705E+03  0.47000000000E+01 0.  1.
         15    1    4    4    0    0 -0.80851056780E+01  0.43808142678E+02 -0.48420156771E+02  0.65819386273E+02  0.17770000000E+01 0. -1.
        -16    1    4    4    0    0  0.85674275471E+02  0.40848478175E+02 -0.13157872580E+03  0.16223945491E+03  0.00000000000E+00 0.  1.
<mgrwt>
<rscale>  2 0.28749266E+03</rscale>
<asrwt>0</asrwt>
<pdfrwt beam="1">  1       21 0.35240772E-01 0.28753796E+03</pdfrwt>
<pdfrwt beam="2">  1       21 0.72837124E-01 0.28753796E+03</pdfrwt>
<totfact> 0.12496259E+04</totfact>
</mgrwt>
</event>
<event>
12    2  0.4090627E-002  0.2004306E+03  0.7546771E-02  0.1149846E+00
         21   -1    0    0  501  502  0.00000000000E+00  0.00000000000E+00  0.14045417964E+03  0.14045417964E+03  0.00000000000E+00 0. -1.
         21   -1    0    0  502  503 -0.00000000000E+00 -0.00000000000E+00 -0.30322174435E+03  0.30322174435E+03  0.00000000000E+00 0. -1.
         -6    2    1    2    0  503  0.43983270315E+02  0.90142622891E+02 -0.13844790242E+03  0.24177524408E+03  0.17095972168E+03 0.  0.
        -24    2    3    3    0    0  0.19468609359E+02  0.28237313482E+02 -0.85519475617E+00  0.88846897664E+02  0.81955275873E+02 0.  0.
          6    2    1    2  501    0 -0.43983270315E+02 -0.90142622891E+02 -0.24319662282E+02  0.20190067990E+03  0.17352872397E+03 0.  0.
         24    2    5    5    0    0 -0.46978161548E+02 -0.77823325003E+02  0.46653617038E+02  0.12965089893E+03  0.79808383223E+02 0.  0.
          5    1    5    5  501    0  0.29948912325E+01 -0.12319297888E+02 -0.70973279320E+02  0.72249780978E+02  0.47000000000E+01 0. -1.
        -15    1    6    6    0    0 -0.29884272891E+02  0.98462798832E+01  0.14839515563E+02  0.34833718505E+02  0.17770000000E+01 0.  1.
         16    1    6    6    0    0 -0.17093888656E+02 -0.87669604886E+02  0.31814101475E+02  0.94817180421E+02  0.00000000000E+00 0. -1.
         -5    1    3    3    0  503  0.24514660956E+02  0.61905309409E+02 -0.13759270767E+03  0.15292834642E+03  0.47000000000E+01 0.  1.
         15    1    4    4    0    0  0.41487228128E+02  0.40747396340E+02 -0.14670421975E+02  0.59999328464E+02  0.17770000000E+01 0. -1.
        -16    1    4    4    0    0 -0.22018618769E+02 -0.12510082858E+02  0.13815227219E+02  0.28847569200E+02  0.00000000000E+00 0.  1.
<mgrwt>
<rscale>  2 0.19987331E+03</rscale>
<asrwt>0</asrwt>
<pdfrwt beam="1">  1       21 0.21608335E-01 0.20043063E+03</pdfrwt>
<pdfrwt beam="2">  1       21 0.46649499E-01 0.20043063E+03</pdfrwt>
<totfact> 0.87571877E+04</totfact>
</mgrwt>
</event>
<event>
12    2  0.4090627E-002  0.1841693E+03  0.7546771E-02  0.1164637E+00
         21   -1    0    0  501  502  0.00000000000E+00  0.00000000000E+00  0.51849473501E+03  0.51849473501E+03  0.00000000000E+00 0. -1.
         21   -1    0    0  502  503 -0.00000000000E+00 -0.00000000000E+00 -0.87962964858E+02  0.87962964858E+02  0.00000000000E+00 0. -1.
         -6    2    1    2    0  503 -0.52116494529E+02  0.13150772291E+01  0.59171334918E+02  0.19344141766E+03  0.17663656688E+03 0.  0.
        -24    2    3    3    0    0 -0.91724707481E+02 -0.13966420319E+02  0.41670905165E+02  0.14728202271E+03  0.10652251883E+03 0.  0.
          6    2    1    2  501    0  0.52116494529E+02 -0.13150772291E+01  0.37136043523E+03  0.41301628220E+03  0.17307806933E+03 0.  0.
         24    2    5    5    0    0 -0.11141894542E+02 -0.51092288559E+02  0.15856089916E+03  0.18545282489E+03  0.80725632555E+02 0.  0.
          5    1    5    5  501    0  0.63258389071E+02  0.49777211330E+02  0.21279953607E+03  0.22756345732E+03  0.47000000000E+01 0. -1.
        -15    1    6    6    0    0 -0.36746007540E+02  0.81071551283E+00  0.46209652720E+02  0.59071279513E+02  0.17770000000E+01 0.  1.
         16    1    6    6    0    0  0.25604112998E+02 -0.51903004072E+02  0.11235124644E+03  0.12638154538E+03  0.00000000000E+00 0. -1.
         -5    1    3    3    0  503  0.39608212952E+02  0.15281497548E+02  0.17500429753E+02  0.46159394950E+02  0.47000000000E+01 0.  1.
         15    1    4    4    0    0 -0.48077757702E+02  0.57382454155E+01  0.74750014884E+02  0.89079294453E+02  0.17770000000E+01 0. -1.
        -16    1    4    4    0    0 -0.43646949779E+02 -0.19704665734E+02 -0.33079109718E+02  0.58202728256E+02  0.00000000000E+00 0.  1.
<mgrwt>
<rscale>  2 0.18331079E+03</rscale>
<asrwt>0</asrwt>
<pdfrwt beam="1">  1       21 0.79768418E-01 0.18416931E+03</pdfrwt>
<pdfrwt beam="2">  1       21 0.13532764E-01 0.18416931E+03</pdfrwt>
<totfact> 0.65701133E+04</totfact>
</mgrwt>
</event>
<event>
12    2  0.4090627E-002  0.1738425E+03  0.7546771E-02  0.1174075E+00
         21   -1    0    0  501  502  0.00000000000E+00  0.00000000000E+00  0.84655722280E+03  0.84655722280E+03  0.00000000000E+00 0.  1.
         21   -1    0    0  502  503 -0.00000000000E+00 -0.00000000000E+00 -0.57122419536E+02  0.57122419536E+02  0.00000000000E+00 0.  1.
         -6    2    1    2    0  503 -0.45864562163E+01 -0.15741320051E+02  0.11758120844E+03  0.20987273776E+03  0.17306761898E+03 0.  0.
        -24    2    3    3    0    0 -0.12418050014E+01  0.58778580967E+02  0.60897828052E+02  0.11606709853E+03  0.79413866789E+02 0.  0.
          6    2    1    2  501    0  0.45864562163E+01  0.15741320051E+02  0.67185359483E+03  0.69380690458E+03  0.17237152672E+03 0.  0.
         24    2    5    5    0    0 -0.60673048492E+02  0.28038897202E+02  0.46207982933E+03  0.47372247521E+03  0.80173663256E+02 0.  0.
          5    1    5    5  501    0  0.65259504708E+02 -0.12297577152E+02  0.20977376550E+03  0.22008442937E+03  0.47000000000E+01 0. -1.
        -15    1    6    6    0    0 -0.63097499531E+02  0.11670621615E+02  0.44618198419E+03  0.45077601822E+03  0.17770000000E+01 0.  1.
         16    1    6    6    0    0  0.24244510388E+01  0.16368275588E+02  0.15897845138E+02  0.22946456994E+02  0.00000000000E+00 0. -1.
         -5    1    3    3    0  503 -0.33446512150E+01 -0.74519901018E+02  0.56683380385E+02  0.93805639230E+02  0.47000000000E+01 0.  1.
         15    1    4    4    0    0  0.72988455722E+01 -0.12430520417E+02  0.38158420006E+02  0.40829079476E+02  0.17770000000E+01 0. -1.
        -16    1    4    4    0    0 -0.85406505736E+01  0.71209101384E+02  0.22739408046E+02  0.75238019049E+02  0.00000000000E+00 0.  1.
<mgrwt>
<rscale>  2 0.17366903E+03</rscale>
<asrwt>0</asrwt>
<pdfrwt beam="1">  1       21 0.13023956E+00 0.17384253E+03</pdfrwt>
<pdfrwt beam="2">  1       21 0.87880652E-02 0.17384253E+03</pdfrwt>
<totfact> 0.44280351E+04</totfact>
</mgrwt>
</event>
<event>
12    2  0.4090627E-002  0.2304468E+03  0.7546771E-02  0.1126389E+00
         21   -1    0    0  501  502  0.00000000000E+00  0.00000000000E+00  0.32264728733E+03  0.32264728733E+03  0.00000000000E+00 0. -1.
         21   -1    0    0  502  503 -0.00000000000E+00 -0.00000000000E+00 -0.17173502850E+03  0.17173502850E+03  0.00000000000E+00 0.  1.
         -6    2    1    2    0  503  0.11179030682E+03 -0.10236634334E+03  0.12670738225E+03  0.26266785057E+03  0.17310025435E+03 0.  0.
        -24    2    3    3    0    0  0.99791656288E+02 -0.91174919554E+02  0.15968409565E+03  0.22553606892E+03  0.84239345687E+02 0.  0.
          6    2    1    2  501    0 -0.11179030682E+03  0.10236634334E+03  0.24204876578E+02  0.23171446526E+03  0.17357930871E+03 0.  0.
         24    2    5    5    0    0  0.10716564321E+02  0.10065148718E+02 -0.84435777323E+01  0.74821331007E+02  0.72875137044E+02 0.  0.
          5    1    5    5  501    0 -0.12250687115E+03  0.92301194627E+02  0.32648454310E+02  0.15689313425E+03  0.47000000000E+01 0. -1.
        -15    1    6    6    0    0 -0.14897718396E+02 -0.24844496021E+02  0.50702188734E+01  0.29462787451E+02  0.17770000000E+01 0.  1.
         16    1    6    6    0    0  0.25614282716E+02  0.34909644739E+02 -0.13513796606E+02  0.45358543556E+02  0.00000000000E+00 0. -1.
         -5    1    3    3    0  503  0.11998650537E+02 -0.11191423791E+02 -0.32976713403E+02  0.37131781644E+02  0.47000000000E+01 0.  1.
         15    1    4    4    0    0  0.11376756162E+03 -0.78000214698E+02  0.12637016051E+03  0.18708197873E+03  0.17770000000E+01 0. -1.
        -16    1    4    4    0    0 -0.13975905333E+02 -0.13174704856E+02  0.33313935144E+02  0.38454090195E+02  0.00000000000E+00 0.  1.
<mgrwt>
<rscale>  2 0.23035657E+03</rscale>
<asrwt>0</asrwt>
<pdfrwt beam="1">  1       21 0.49638044E-01 0.23044678E+03</pdfrwt>
<pdfrwt beam="2">  1       21 0.26420774E-01 0.23044678E+03</pdfrwt>
<totfact> 0.51802987E+04</totfact>
</mgrwt>
</event>
<event>
12    2  0.4090627E-002  0.3133321E+03  0.7546771E-02  0.1078774E+00
         21   -1    0    0  503  502  0.00000000000E+00  0.00000000000E+00  0.69749064485E+03  0.69749064485E+03  0.00000000000E+00 0.  1.
         21   -1    0    0  501  503 -0.00000000000E+00 -0.00000000000E+00 -0.15208475177E+03  0.15208475177E+03  0.00000000000E+00 0. -1.
          6    2    1    2  501    0  0.23317218587E+03 -0.11752886220E+03  0.15654899007E+03  0.35026356010E+03  0.17318970388E+03 0.  0.
         24    2    3    3    0    0  0.16641751761E+03 -0.66698724435E+02  0.17683785596E+03  0.26381347786E+03  0.78628326897E+02 0.  0.
         -6    2    1    2    0  502 -0.23317218587E+03  0.11752886220E+03  0.38885690302E+03  0.49931183652E+03  0.17297490380E+03 0.  0.
        -24    2    5    5    0    0 -0.22391172314E+03  0.52802434505E+02  0.27153117921E+03  0.36491435857E+03  0.80676830333E+02 0.  0.
          5    1    3    3  501    0  0.66754668266E+02 -0.50830137767E+02 -0.20288865896E+02  0.86450082245E+02  0.47000000000E+01 0. -1.
        -15    1    4    4    0    0  0.29733156781E+02  0.18160013686E+02  0.31765908754E+02  0.47181324666E+02  0.17770000000E+01 0.  1.
         16    1    4    4    0    0  0.13668436083E+03 -0.84858738122E+02  0.14507194721E+03  0.21663215319E+03  0.00000000000E+00 0. -1.
         -5    1    5    5    0  502 -0.92604627284E+01  0.64726427698E+02  0.11732572381E+03  0.13439747795E+03  0.47000000000E+01 0.  1.
         15    1    6    6    0    0 -0.13285522362E+03 -0.53851315434E+01  0.17668269490E+03  0.22113218330E+03  0.17770000000E+01 0. -1.
        -16    1    6    6    0    0 -0.91056499525E+02  0.58187566048E+02  0.94848484316E+02  0.14378217527E+03  0.00000000000E+00 0.  1.
<mgrwt>
<rscale>  2 0.31330238E+03</rscale>
<asrwt>0</asrwt>
<pdfrwt beam="1">  1       21 0.10730625E+00 0.31333205E+03</pdfrwt>
<pdfrwt beam="2">  1       21 0.23397654E-01 0.31333205E+03</pdfrwt>
<totfact> 0.11140222E+04</totfact>
</mgrwt>
</event>
<event>
12    2  0.4090627E-002  0.2214309E+03  0.7546771E-02  0.1132852E+00
         21   -1    0    0  503  502  0.00000000000E+00  0.00000000000E+00  0.11559872170E+04  0.11559872170E+04  0.00000000000E+00 0.  1.
         21   -1    0    0  501  503 -0.00000000000E+00 -0.00000000000E+00 -0.54867594272E+02  0.54867594272E+02  0.00000000000E+00 0.  1.
          6    2    1    2  501    0 -0.13701660507E+03 -0.18049978602E+02  0.26159423630E+03  0.34261837902E+03  0.17279021206E+03 0.  0.
         24    2    3    3    0    0 -0.11875325673E+02 -0.42146863069E+02  0.10596682167E+03  0.14141454746E+03  0.82775150328E+02 0.  0.
         -6    2    1    2    0  502  0.13701660507E+03  0.18049978602E+02  0.83952538645E+03  0.86823643228E+03  0.17300946805E+03 0.  0.
        -24    2    5    5    0    0  0.73910818367E+02 -0.27187980728E+02  0.22187238229E+03  0.24570439549E+03  0.70294385045E+02 0.  0.
          5    1    3    3  501    0 -0.12514127940E+03  0.24096884467E+02  0.15562741463E+03  0.20120383156E+03  0.47000000000E+01 0. -1.
        -15    1    4    4    0    0 -0.57200172933E+01 -0.67357156619E+02  0.78986702406E+02  0.10397962316E+03  0.17770000000E+01 0.  1.
         16    1    4    4    0    0 -0.61553083793E+01  0.25210293550E+02  0.26980119261E+02  0.37434924301E+02  0.00000000000E+00 0. -1.
         -5    1    5    5    0  502  0.63105786706E+02  0.45237959330E+02  0.61765300416E+03  0.62253203679E+03  0.47000000000E+01 0.  1.
         15    1    6    6    0    0  0.13693747862E+02  0.10669582965E+02  0.60600864635E+01  0.18472712527E+02  0.17770000000E+01 0. -1.
        -16    1    6    6    0    0  0.60217070505E+02 -0.37857563693E+02  0.21581229583E+03  0.22723168296E+03  0.00000000000E+00 0.  1.
<mgrwt>
<rscale>  2 0.22138804E+03</rscale>
<asrwt>0</asrwt>
<pdfrwt beam="1">  1       21 0.17784417E+00 0.22143086E+03</pdfrwt>
<pdfrwt beam="2">  1       21 0.84411692E-02 0.22143086E+03</pdfrwt>
<totfact> 0.20164999E+04</totfact>
</mgrwt>
</event>
<event>
12    2  0.4090627E-002  0.1810955E+03  0.7546771E-02  0.1167131E+00
         21   -1    0    0  501  502  0.00000000000E+00  0.00000000000E+00  0.17134103832E+03  0.17134103832E+03  0.00000000000E+00 0. -1.
         21   -1    0    0  502  503 -0.00000000000E+00 -0.00000000000E+00 -0.19924598432E+03  0.19924598432E+03  0.00000000000E+00 0. -1.
         -6    2    1    2    0  503  0.49647696244E+02  0.11801779227E+02  0.26491945818E+02  0.18302295285E+03  0.17375673323E+03 0.  0.
        -24    2    3    3    0    0  0.68130326134E+02  0.62449871234E+02 -0.16294166885E+02  0.11403325600E+03  0.64779285603E+02 0.  0.
          6    2    1    2  501    0 -0.49647696244E+02 -0.11801779227E+02 -0.54396891824E+02  0.18756406979E+03  0.17209614377E+03 0.  0.
         24    2    5    5    0    0 -0.44077760020E+02 -0.73227978408E+02 -0.34920605959E+02  0.12271333466E+03  0.80832716351E+02 0.  0.
          5    1    5    5  501    0 -0.55699362242E+01  0.61426199181E+02 -0.19476285866E+02  0.64850735126E+02  0.47000000000E+01 0. -1.
        -15    1    6    6    0    0  0.63692063497E+01  0.12753444946E+02 -0.15532662373E+02  0.21157468584E+02  0.17770000000E+01 0.  1.
         16    1    6    6    0    0 -0.50446966370E+02 -0.85981423354E+02 -0.19387943586E+02  0.10155586608E+03  0.00000000000E+00 0. -1.
         -5    1    3    3    0  503 -0.18482629890E+02 -0.50648092007E+02  0.42786112703E+02  0.68989696853E+02  0.47000000000E+01 0.  1.
         15    1    4    4    0    0  0.17662525988E+02  0.33462072066E+02  0.22528814548E+02  0.44072443830E+02  0.17770000000E+01 0. -1.
        -16    1    4    4    0    0  0.50467800146E+02  0.28987799169E+02 -0.38822981432E+02  0.69960812171E+02  0.00000000000E+00 0.  1.
<mgrwt>
<rscale>  2 0.18069600E+03</rscale>
<asrwt>0</asrwt>
<pdfrwt beam="1">  1       21 0.26360160E-01 0.18109549E+03</pdfrwt>
<pdfrwt beam="2">  1       21 0.30653228E-01 0.18109549E+03</pdfrwt>
<totfact> 0.14036894E+05</totfact>
</mgrwt>
</event>
<event>
12    2  0.4090627E-002  0.2845682E+03  0.7546771E-02  0.1093298E+00
         21   -1    0    0  503  502  0.00000000000E+00  0.00000000000E+00  0.97089135689E+03  0.97089135689E+03  0.00000000000E+00 0. -1.
         21   -1    0    0  501  503 -0.00000000000E+00 -0.00000000000E+00 -0.83383436098E+02  0.83383436098E+02  0.00000000000E+00 0. -1.
          6    2    1    2  501    0 -0.62149888593E+02 -0.21802269333E+03  0.46554606650E+03  0.54532406886E+03  0.17102250317E+03 0.  0.
         24    2    3    3    0    0 -0.83861561271E+02 -0.17449501938E+03  0.25907557809E+03  0.33314912286E+03  0.79918143440E+02 0.  0.
         -6    2    1    2    0  502  0.62149888593E+02  0.21802269333E+03  0.42196185429E+03  0.50895072413E+03  0.17199572568E+03 0.  0.
        -24    2    5    5    0    0  0.81497085093E+02  0.22991382939E+03  0.40724933968E+03  0.48148690764E+03  0.80470328345E+02 0.  0.
          5    1    3    3  501    0  0.21711672678E+02 -0.43527673951E+02  0.20647048840E+03  0.21217494601E+03  0.47000000000E+01 0. -1.
        -15    1    4    4    0    0 -0.84515152523E+02 -0.14508724486E+03  0.16836233904E+03  0.23778594274E+03  0.17770000000E+01 0.  1.
         16    1    4    4    0    0  0.65359125146E+00 -0.29407774515E+02  0.90713239050E+02  0.95363180119E+02  0.00000000000E+00 0. -1.
         -5    1    5    5    0  502 -0.19347196499E+02 -0.11891136064E+02  0.14712514619E+02  0.27463816481E+02  0.47000000000E+01 0.  1.
         15    1    6    6    0    0  0.30024411804E+02  0.85464877480E+02  0.22947269576E+03  0.24671154495E+03  0.17770000000E+01 0. -1.
        -16    1    6    6    0    0  0.51472673289E+02  0.14444895191E+03  0.17777664392E+03  0.23477536269E+03  0.00000000000E+00 0.  1.
<mgrwt>
<rscale>  2 0.28442125E+03</rscale>
<asrwt>0</asrwt>
<pdfrwt beam="1">  1       21 0.14936789E+00 0.28456815E+03</pdfrwt>
<pdfrwt beam="2">  1       21 0.12828222E-01 0.28456815E+03</pdfrwt>
<totfact> 0.14894356E+04</totfact>
</mgrwt>
</event>
<event>
12    2  0.4090627E-002  0.3954256E+03  0.7546771E-02  0.1045402E+00
         21   -1    0    0  503  502  0.00000000000E+00  0.00000000000E+00  0.18724509998E+03  0.18724509998E+03  0.00000000000E+00 0. -1.
         21   -1    0    0  501  503 -0.00000000000E+00 -0.00000000000E+00 -0.84791050496E+03  0.84791050496E+03  0.00000000000E+00 0. -1.
          6    2    1    2  501    0 -0.12592566990E+03  0.33244267048E+03 -0.39547835637E+03  0.55904053144E+03  0.17247545317E+03 0.  0.
         24    2    3    3    0    0 -0.14364100121E+03  0.29314301140E+03 -0.28702252112E+03  0.44223704534E+03  0.81400947629E+02 0.  0.
         -6    2    1    2    0  502  0.12592566990E+03 -0.33244267048E+03 -0.26518704861E+03  0.47611507349E+03  0.17316462964E+03 0.  0.
        -24    2    5    5    0    0  0.15904821900E+03 -0.29476116792E+03 -0.22361558646E+03  0.41079068784E+03  0.81022074978E+02 0.  0.
          5    1    3    3  501    0  0.17715331317E+02  0.39299659080E+02 -0.10845583525E+03  0.11680348611E+03  0.47000000000E+01 0. -1.
        -15    1    4    4    0    0 -0.10980301844E+03  0.15832278261E+03 -0.12950776623E+03  0.23215991384E+03  0.17770000000E+01 0.  1.
         16    1    4    4    0    0 -0.33837982775E+02  0.13482022879E+03 -0.15751475489E+03  0.21007713149E+03  0.00000000000E+00 0. -1.
         -5    1    5    5    0  502 -0.33122549104E+02 -0.37681502563E+02 -0.41571462156E+02  0.65324385649E+02  0.47000000000E+01 0.  1.
         15    1    6    6    0    0  0.61513989803E+02 -0.59020548680E+02 -0.85205534273E+02  0.12054267671E+03  0.17770000000E+01 0. -1.
        -16    1    6    6    0    0  0.97534229198E+02 -0.23574061924E+03 -0.13841005218E+03  0.29024801114E+03  0.00000000000E+00 0.  1.
<mgrwt>
<rscale>  2 0.39535023E+03</rscale>
<asrwt>0</asrwt>
<pdfrwt beam="1">  1       21 0.28806939E-01 0.39542558E+03</pdfrwt>
<pdfrwt beam="2">  1       21 0.13044777E+00 0.39542558E+03</pdfrwt>
<totfact> 0.43980381E+03</totfact>
</mgrwt>
</event>
<event>
12    2  0.4090627E-002  0.2199262E+03  0.7546771E-02  0.1135626E+00
         21   -1    0    0  501  502  0.00000000000E+00  0.00000000000E+00  0.11232978985E+03  0.11232978985E+03  0.00000000000E+00 0.  1.
         21   -1    0    0  502  503 -0.00000000000E+00 -0.00000000000E+00 -0.10497576660E+04  0.10497576660E+04  0.00000000000E+00 0.  1.
         -6    2    1    2    0  503 -0.82923802096E+02 -0.83817439953E+02 -0.91726817605E+03  0.94123923045E+03  0.17506759250E+03 0.  0.
        -24    2    3    3    0    0 -0.21436230789E+02 -0.22992484396E+02 -0.16446535356E+03  0.18346975614E+03  0.74994216891E+02 0.  0.
          6    2    1    2  501    0  0.82923802096E+02  0.83817439953E+02 -0.20159700058E+02  0.22084822536E+03  0.18564968339E+03 0.  0.
         24    2    5    5    0    0  0.10119814627E+03 -0.46554084248E+01 -0.25479904103E+01  0.12868717679E+03  0.79316830374E+02 0.  0.
          5    1    5    5  501    0 -0.18274344172E+02  0.88472848378E+02 -0.17611709647E+02  0.92161048560E+02  0.47000000000E+01 0. -1.
        -15    1    6    6    0    0  0.43050919182E+02 -0.36646623125E+02 -0.20115837186E+02  0.60034667181E+02  0.17770000000E+01 0.  1.
         16    1    6    6    0    0  0.58147227087E+02  0.31991214700E+02  0.17567846776E+02  0.68652509614E+02  0.00000000000E+00 0. -1.
         -5    1    3    3    0  503 -0.61487571307E+02 -0.60824955557E+02 -0.75280282249E+03  0.75776947431E+03  0.47000000000E+01 0.  1.
         15    1    4    4    0    0 -0.16672571664E+02  0.26558180566E+02 -0.68711990216E+02  0.75550029314E+02  0.17770000000E+01 0. -1.
        -16    1    4    4    0    0 -0.47636591247E+01 -0.49550664962E+02 -0.95753363343E+02  0.10791972682E+03  0.00000000000E+00 0.  1.
<mgrwt>
<rscale>  2 0.21767779E+03</rscale>
<asrwt>0</asrwt>
<pdfrwt beam="1">  1       21 0.17281506E-01 0.21992618E+03</pdfrwt>
<pdfrwt beam="2">  1       21 0.16150118E+00 0.21992618E+03</pdfrwt>
<totfact> 0.72715143E+03</totfact>
</mgrwt>
</event>
<event>
12    2  0.4090627E-002  0.1800939E+03  0.7546771E-02  0.1168086E+00
         21   -1    0    0  503  502  0.00000000000E+00  0.00000000000E+00  0.53057505555E+03  0.53057505555E+03  0.00000000000E+00 0. -1.
         21   -1    0    0  501  503 -0.00000000000E+00 -0.00000000000E+00 -0.75121973544E+02  0.75121973544E+02  0.00000000000E+00 0. -1.
          6    2    1    2  501    0  0.64687594053E+01  0.46677104962E+02  0.93824127509E+02  0.20170529981E+03  0.17222503910E+03 0.  0.
         24    2    3    3    0    0  0.12057188522E+02 -0.38438877799E+02  0.42627479651E+02  0.10211038120E+03  0.83585314537E+02 0.  0.
         -6    2    1    2    0  502 -0.64687594053E+01 -0.46677104962E+02  0.36162895450E+03  0.40399172928E+03  0.17381950300E+03 0.  0.
        -24    2    5    5    0    0  0.18647638983E+02 -0.95863130133E+02  0.24071960660E+03  0.27098323726E+03  0.77126595396E+02 0.  0.
          5    1    3    3  501    0 -0.55884291172E+01  0.85115982761E+02  0.51196647858E+02  0.99594918612E+02  0.47000000000E+01 0. -1.
        -15    1    4    4    0    0 -0.12384089314E+02 -0.59328359426E+02  0.27542118674E+02  0.66595389709E+02  0.17770000000E+01 0.  1.
         16    1    4    4    0    0  0.24441277836E+02  0.20889481628E+02  0.15085360977E+02  0.35514991493E+02  0.00000000000E+00 0. -1.
         -5    1    5    5    0  502 -0.25116398388E+02  0.49186025171E+02  0.12090934790E+03  0.13300849202E+03  0.47000000000E+01 0.  1.
         15    1    6    6    0    0 -0.10831474298E+02 -0.20017629891E+02  0.13830663807E+03  0.14017813740E+03  0.17770000000E+01 0. -1.
        -16    1    6    6    0    0  0.29479113281E+02 -0.75845500242E+02  0.10241296853E+03  0.13080509986E+03  0.00000000000E+00 0.  1.
<mgrwt>
<rscale>  2 0.17970807E+03</rscale>
<asrwt>0</asrwt>
<pdfrwt beam="1">  1       21 0.81626929E-01 0.18009391E+03</pdfrwt>
<pdfrwt beam="2">  1       21 0.11557227E-01 0.18009391E+03</pdfrwt>
<totfact> 0.82904497E+04</totfact>
</mgrwt>
</event>
<event>
12    2  0.4090627E-002  0.1805084E+03  0.7546771E-02  0.1167828E+00
         21   -1    0    0  501  502  0.00000000000E+00  0.00000000000E+00  0.78673776935E+03  0.78673776935E+03  0.00000000000E+00 0.  1.
         21   -1    0    0  502  503 -0.00000000000E+00 -0.00000000000E+00 -0.42610745653E+02  0.42610745653E+02  0.00000000000E+00 0.  1.
         -6    2    1    2    0  503 -0.38809350898E+02  0.19684900212E+02  0.45656881328E+03  0.49095659115E+03  0.17518456586E+03 0.  0.
        -24    2    3    3    0    0 -0.62205494954E+02 -0.41554053483E+02  0.22629372982E+03  0.25148573056E+03  0.80249346140E+02 0.  0.
          6    2    1    2  501    0  0.38809350898E+02 -0.19684900212E+02  0.28755821042E+03  0.33839192386E+03  0.17299048743E+03 0.  0.
         24    2    5    5    0    0 -0.42827257879E+02  0.75875625704E+01  0.12692216008E+03  0.15608900620E+03  0.79767148718E+02 0.  0.
          5    1    5    5  501    0  0.81636608778E+02 -0.27272462782E+02  0.16063605034E+03  0.18230291766E+03  0.47000000000E+01 0. -1.
        -15    1    6    6    0    0 -0.21817523031E+02  0.30177043846E+02  0.15326455866E+02  0.40307769287E+02  0.17770000000E+01 0.  1.
         16    1    6    6    0    0 -0.21009734848E+02 -0.22589481275E+02  0.11159570421E+03  0.11578123691E+03  0.00000000000E+00 0. -1.
         -5    1    3    3    0  503  0.23396144056E+02  0.61238953694E+02  0.23027508346E+03  0.23947086058E+03  0.47000000000E+01 0.  1.
         15    1    4    4    0    0 -0.54902863830E+02 -0.17693024494E+02  0.59701119716E+02  0.83034625289E+02  0.17770000000E+01 0. -1.
        -16    1    4    4    0    0 -0.73026311244E+01 -0.23861028988E+02  0.16659261011E+03  0.16845110527E+03  0.00000000000E+00 0.  1.
<mgrwt>
<rscale>  2 0.17997391E+03</rscale>
<asrwt>0</asrwt>
<pdfrwt beam="1">  1       21 0.12103657E+00 0.18050843E+03</pdfrwt>
<pdfrwt beam="2">  1       21 0.65554999E-02 0.18050843E+03</pdfrwt>
<totfact> 0.88038728E+04</totfact>
</mgrwt>
</event>
<event>
12    2  0.4090627E-002  0.2040441E+03  0.7546771E-02  0.1147566E+00
         21   -1    0    0  501  502  0.00000000000E+00  0.00000000000E+00  0.14234808562E+03  0.14234808562E+03  0.00000000000E+00 0.  1.
         21   -1    0    0  502  503 -0.00000000000E+00 -0.00000000000E+00 -0.30746256729E+03  0.30746256729E+03  0.00000000000E+00 0.  1.
         -6    2    1    2    0  503 -0.89304246349E+02  0.58485420889E+02 -0.14533210761E+03  0.25051027399E+03  0.17389129650E+03 0.  0.
        -24    2    3    3    0    0 -0.81803633322E+02 -0.20366295669E+02 -0.11924513433E+03  0.16698499294E+03  0.80981265606E+02 0.  0.
          6    2    1    2  501    0  0.89304246349E+02 -0.58485420889E+02 -0.19782374058E+02  0.19930037893E+03  0.16713319792E+03 0.  0.
         24    2    5    5    0    0  0.25494428025E+02  0.29984606859E+02 -0.10440755664E+02  0.89719383505E+02  0.79946956721E+02 0.  0.
          5    1    5    5  501    0  0.63809818324E+02 -0.88470027749E+02 -0.93416183944E+01  0.10958099543E+03  0.47000000000E+01 0. -1.
        -15    1    6    6    0    0  0.49716274723E+02  0.35990275354E+02  0.28068590235E+01  0.61465796009E+02  0.17770000000E+01 0.  1.
         16    1    6    6    0    0 -0.24221846698E+02 -0.60056684951E+01 -0.13247614687E+02  0.28253587496E+02  0.00000000000E+00 0. -1.
         -5    1    3    3    0  503 -0.75006130275E+01  0.78851716559E+02 -0.26086973278E+02  0.83525281052E+02  0.47000000000E+01 0.  1.
         15    1    4    4    0    0 -0.13058809699E+02  0.46454534656E+01  0.10877809092E+02  0.17708676074E+02  0.17770000000E+01 0. -1.
        -16    1    4    4    0    0 -0.68744823623E+02 -0.25011749135E+02 -0.13012294343E+03  0.14927631686E+03  0.00000000000E+00 0.  1.
<mgrwt>
<rscale>  2 0.20259675E+03</rscale>
<asrwt>0</asrwt>
<pdfrwt beam="1">  1       21 0.21899706E-01 0.20404405E+03</pdfrwt>
<pdfrwt beam="2">  1       21 0.47301933E-01 0.20404405E+03</pdfrwt>
<totfact> 0.82843114E+04</totfact>
</mgrwt>
</event>
<event>
12    2  0.4090627E-002  0.2635279E+03  0.7546771E-02  0.1105122E+00
         21   -1    0    0  501  502  0.00000000000E+00  0.00000000000E+00  0.96210365710E+03  0.96210365710E+03  0.00000000000E+00 0. -1.
         21   -1    0    0  502  503 -0.00000000000E+00 -0.00000000000E+00 -0.12542129587E+03  0.12542129587E+03  0.00000000000E+00 0. -1.
         -6    2    1    2    0  503 -0.34700651710E+02 -0.19335634036E+03  0.63821578893E+02  0.27114602812E+03  0.17565922990E+03 0.  0.
        -24    2    3    3    0    0 -0.90803392889E+02 -0.12029706418E+03  0.47003205347E+02  0.17739037180E+03  0.80878939681E+02 0.  0.
          6    2    1    2  501    0  0.34700651710E+02  0.19335634036E+03  0.77286078234E+03  0.81637892484E+03  0.17484264486E+03 0.  0.
         24    2    5    5    0    0  0.13754243892E+02  0.34756958763E+02  0.41104366304E+03  0.42074496060E+03  0.81683557319E+02 0.  0.
          5    1    5    5  501    0  0.20946407817E+02  0.15859938160E+03  0.36181711930E+03  0.39563396424E+03  0.47000000000E+01 0. -1.
        -15    1    6    6    0    0 -0.28863027577E+02 -0.33680864142E+01  0.19934091128E+03  0.20145564030E+03  0.17770000000E+01 0.  1.
         16    1    6    6    0    0  0.42617271469E+02  0.38125045177E+02  0.21170275176E+03  0.21928932030E+03  0.00000000000E+00 0. -1.
         -5    1    3    3    0  503  0.56102741179E+02 -0.73059276184E+02  0.16818373546E+02  0.93755656326E+02  0.47000000000E+01 0.  1.
         15    1    4    4    0    0 -0.42367953651E+02 -0.10124166580E+03  0.39367146800E+01  0.10983430175E+03  0.17770000000E+01 0. -1.
        -16    1    4    4    0    0 -0.48435439238E+02 -0.19055398381E+02  0.43066490667E+02  0.67556070045E+02  0.00000000000E+00 0.  1.
<mgrwt>
<rscale>  2 0.26339193E+03</rscale>
<asrwt>0</asrwt>
<pdfrwt beam="1">  1       21 0.14801594E+00 0.26352794E+03</pdfrwt>
<pdfrwt beam="2">  1       21 0.19295585E-01 0.26352794E+03</pdfrwt>
<totfact> 0.72725434E+03</totfact>
</mgrwt>
</event>
<event>
12    2  0.4090627E-002  0.3498418E+03  0.7546771E-02  0.1062771E+00
         21   -1    0    0  501  502  0.00000000000E+00  0.00000000000E+00  0.22304677936E+03  0.22304677936E+03  0.00000000000E+00 0. -1.
         21   -1    0    0  502  503 -0.00000000000E+00 -0.00000000000E+00 -0.54865046836E+03  0.54865046836E+03  0.00000000000E+00 0. -1.
         -6    2    1    2    0  503  0.50911214358E+02  0.29896451312E+03 -0.18156425607E+03  0.39336325026E+03  0.17261904796E+03 0.  0.
        -24    2    3    3    0    0 -0.51697533096E+01  0.49953064135E+02 -0.32804648639E+02  0.97891953065E+02  0.77360548969E+02 0.  0.
          6    2    1    2  501    0 -0.50911214358E+02 -0.29896451312E+03 -0.14403943293E+03  0.37833399746E+03  0.17440620271E+03 0.  0.
         24    2    5    5    0    0 -0.22864197315E+02 -0.22657940384E+03 -0.31828950637E+02  0.24180736436E+03  0.74811239763E+02 0.  0.
          5    1    5    5  501    0 -0.28047017043E+02 -0.72385109280E+02 -0.11221048229E+03  0.13652663310E+03  0.47000000000E+01 0. -1.
        -15    1    6    6    0    0 -0.37791613347E+01 -0.55586830227E+02 -0.41478885782E+02  0.69482612572E+02  0.17770000000E+01 0.  1.
         16    1    6    6    0    0 -0.19085035980E+02 -0.17099257362E+03  0.96499351452E+01  0.17232475179E+03  0.00000000000E+00 0. -1.
         -5    1    3    3    0  503  0.56080967668E+02  0.24901144899E+03 -0.14875960743E+03  0.29547129719E+03  0.47000000000E+01 0.  1.
         15    1    4    4    0    0 -0.20095158936E+01  0.54389921905E+02 -0.53591274227E+02  0.76403430298E+02  0.17770000000E+01 0. -1.
        -16    1    4    4    0    0 -0.31602374160E+01 -0.44368577705E+01  0.20786625588E+02  0.21488522768E+02  0.00000000000E+00 0.  1.
<mgrwt>
<rscale>  2 0.34961967E+03</rscale>
<asrwt>0</asrwt>
<pdfrwt beam="1">  1       21 0.34314889E-01 0.34984176E+03</pdfrwt>
<pdfrwt beam="2">  1       21 0.84407764E-01 0.34984176E+03</pdfrwt>
<totfact> 0.91713879E+03</totfact>
</mgrwt>
</event>
<event>
12    2  0.4090627E-002  0.2002178E+03  0.7546771E-02  0.1149722E+00
         21   -1    0    0  501  502  0.00000000000E+00  0.00000000000E+00  0.30545981466E+03  0.30545981466E+03  0.00000000000E+00 0.  1.
         21   -1    0    0  502  503 -0.00000000000E+00 -0.00000000000E+00 -0.26811215852E+03  0.26811215852E+03  0.00000000000E+00 0.  1.
         -6    2    1    2    0  503  0.10083997276E+03 -0.44223689486E+01 -0.18664144927E+03  0.27314182314E+03  0.17199757995E+03 0.  0.
        -24    2    3    3    0    0  0.92533596334E+02 -0.59550751961E+02 -0.10209722415E+03  0.17176159576E+03  0.83483196440E+02 0.  0.
          6    2    1    2  501    0 -0.10083997276E+03  0.44223689486E+01  0.22398910541E+03  0.30043015005E+03  0.17291297887E+03 0.  0.
         24    2    5    5    0    0 -0.37171316066E+02 -0.14001734188E+02  0.30285274102E+02  0.95646337976E+02  0.81567572249E+02 0.  0.
          5    1    5    5  501    0 -0.63668656690E+02  0.18424103136E+02  0.19370383131E+03  0.20478381207E+03  0.47000000000E+01 0. -1.
        -15    1    6    6    0    0  0.16819964559E+02 -0.29343075519E+02  0.17317647500E+02  0.38039268297E+02  0.17770000000E+01 0.  1.
         16    1    6    6    0    0 -0.53991280625E+02  0.15341341331E+02  0.12967626602E+02  0.57607069679E+02  0.00000000000E+00 0. -1.
         -5    1    3    3    0  503  0.83063764212E+01  0.55128383012E+02 -0.84544225121E+02  0.10138022738E+03  0.47000000000E+01 0.  1.
         15    1    4    4    0    0  0.76565535543E+02 -0.10219708801E+02 -0.29843352364E+02  0.82828178118E+02  0.17770000000E+01 0. -1.
        -16    1    4    4    0    0  0.15968060791E+02 -0.49331043160E+02 -0.72253871789E+02  0.88933417640E+02  0.00000000000E+00 0.  1.
<mgrwt>
<rscale>  2 0.20001997E+03</rscale>
<asrwt>0</asrwt>
<pdfrwt beam="1">  1       21 0.46993818E-01 0.20021777E+03</pdfrwt>
<pdfrwt beam="2">  1       21 0.41248024E-01 0.20021777E+03</pdfrwt>
<totfact> 0.24423419E+04</totfact>
</mgrwt>
</event>
<event>
11    2  0.4090627E-002  0.1906184E+03  0.7546771E-02  0.1158098E+00
         21   -1    0    0  501  502  0.00000000000E+00  0.00000000000E+00  0.55023705149E+03  0.55023705149E+03  0.00000000000E+00 0. -1.
         21   -1    0    0  502  503 -0.00000000000E+00 -0.00000000000E+00 -0.91934580040E+02  0.91934580040E+02  0.00000000000E+00 0. -1.
         -6    2    1    2    0  503  0.62280370737E+02 -0.47266518564E+02  0.58125813997E+02  0.19928372380E+03  0.17384597769E+03 0.  0.
        -24    2    3    3    0    0  0.10207380860E+03 -0.56221982759E+02  0.47532169408E+02  0.15688050055E+03  0.93660079962E+02 0.  0.
          6    2    1    2  501    0 -0.62280370737E+02  0.47266518564E+02  0.40017665745E+03  0.44288790773E+03  0.17290278566E+03 0.  0.
          5    1    5    5  501    0 -0.88494137711E+02  0.75044555553E+02  0.32464886665E+03  0.34479250912E+03  0.47000000000E+01 0. -1.
        -15    1    5    5    0    0  0.25615306666E+02  0.78298571069E+01  0.35719334610E+02  0.44681978380E+02  0.17770000000E+01 0.  1.
         16    1    5    5    0    0  0.59846030726E+00 -0.35607894096E+02  0.39808456186E+02  0.53413420230E+02  0.00000000000E+00 0. -1.
         -5    1    3    3    0  503 -0.39793437860E+02  0.89554641949E+01  0.10593644588E+02  0.42403223242E+02  0.47000000000E+01 0.  1.
         15    1    4    4    0    0  0.88495372501E+02 -0.85309282834E+01  0.58045877926E+02  0.10619175752E+03  0.17770000000E+01 0. -1.
        -16    1    4    4    0    0  0.13578436096E+02 -0.47691054476E+02 -0.10513708517E+02  0.50688743036E+02  0.00000000000E+00 0.  1.
<mgrwt>
<rscale>  2 0.19040313E+03</rscale>
<asrwt>0</asrwt>
<pdfrwt beam="1">  1       21 0.84651852E-01 0.19061845E+03</pdfrwt>
<pdfrwt beam="2">  1       21 0.14143782E-01 0.19061845E+03</pdfrwt>
<totfact> 0.52848148E+04</totfact>
</mgrwt>
</event>
<event>
12    2  0.4090627E-002  0.2428061E+03  0.7546771E-02  0.1117963E+00
         21   -1    0    0  503  502  0.00000000000E+00  0.00000000000E+00  0.24223630314E+04  0.24223630314E+04  0.00000000000E+00 0. -1.
         21   -1    0    0  501  503 -0.00000000000E+00 -0.00000000000E+00 -0.33590300163E+02  0.33590300163E+02  0.00000000000E+00 0. -1.
          6    2    1    2  501    0  0.70120325084E+01  0.17041835751E+03  0.18396978166E+04  0.18556515958E+04  0.17280973209E+03 0.  0.
         24    2    3    3    0    0 -0.16621445828E+02  0.81495518521E+02  0.52160296178E+03  0.53434090227E+03  0.80825479289E+02 0.  0.
         -6    2    1    2    0  502 -0.70120325084E+01 -0.17041835751E+03  0.54907491462E+03  0.60030173572E+03  0.17259005438E+03 0.  0.
        -24    2    5    5    0    0 -0.29620381837E+02 -0.16737780254E+03  0.32683143469E+03  0.37684114231E+03  0.79358452836E+02 0.  0.
          5    1    3    3  501    0  0.23633478337E+02  0.88922838985E+02  0.13180948548E+04  0.13213106935E+04  0.47000000000E+01 0. -1.
        -15    1    4    4    0    0 -0.18016384309E+02  0.11477250690E+02  0.32375789482E+03  0.32446671566E+03  0.17770000000E+01 0.  1.
         16    1    4    4    0    0  0.13949384808E+01  0.70018267832E+02  0.19784506696E+03  0.20987418660E+03  0.00000000000E+00 0. -1.
         -5    1    5    5    0  502  0.22608349328E+02 -0.30405549646E+01  0.22224347993E+03  0.22346059341E+03  0.47000000000E+01 0.  1.
         15    1    6    6    0    0 -0.62670862351E+01 -0.90566324599E+02  0.24893746383E+03  0.26498029011E+03  0.17770000000E+01 0. -1.
        -16    1    6    6    0    0 -0.23353295601E+02 -0.76811477943E+02  0.77893970859E+02  0.11186085220E+03  0.00000000000E+00 0.  1.
<mgrwt>
<rscale>  2 0.24276699E+03</rscale>
<asrwt>0</asrwt>
<pdfrwt beam="1">  1       21 0.37267110E+00 0.24280607E+03</pdfrwt>
<pdfrwt beam="2">  1       21 0.51677404E-02 0.24280607E+03</pdfrwt>
<totfact> 0.30636281E+03</totfact>
</mgrwt>
</event>
<event>
12    2  0.4090627E-002  0.3662395E+03  0.7546771E-02  0.1056581E+00
         21   -1    0    0  501  502  0.00000000000E+00  0.00000000000E+00  0.56008410826E+03  0.56008410826E+03  0.00000000000E+00 0. -1.
         21   -1    0    0  502  503 -0.00000000000E+00 -0.00000000000E+00 -0.25673319630E+03  0.25673319630E+03  0.00000000000E+00 0.  1.
         -6    2    1    2    0  503  0.31064103037E+03  0.52626481083E+02  0.36271887057E+02  0.36353752531E+03  0.17769773846E+03 0.  0.
        -24    2    3    3    0    0  0.16402078248E+03  0.13511423859E+02  0.87578180518E+02  0.20328175929E+03  0.81044187308E+02 0.  0.
          6    2    1    2  501    0 -0.31064103037E+03 -0.52626481083E+02  0.26707902491E+03  0.45327977925E+03  0.18671892370E+03 0.  0.
         24    2    5    5    0    0 -0.23477268002E+03 -0.12205871916E+02  0.10522415181E+03  0.26995241583E+03  0.80839285598E+02 0.  0.
          5    1    5    5  501    0 -0.75868350352E+02 -0.40420609166E+02  0.16185487310E+03  0.18332736342E+03  0.47000000000E+01 0. -1.
        -15    1    6    6    0    0 -0.19334271556E+03 -0.25403403472E+02  0.11357731309E+03  0.22567610052E+03  0.17770000000E+01 0.  1.
         16    1    6    6    0    0 -0.41429964458E+02  0.13197531556E+02 -0.83531612784E+01  0.44276315311E+02  0.00000000000E+00 0. -1.
         -5    1    3    3    0  503  0.14662024790E+03  0.39115057224E+02 -0.51306293461E+02  0.16025576602E+03  0.47000000000E+01 0.  1.
         15    1    4    4    0    0  0.14690511636E+03  0.32625132705E+02  0.51605608573E+02  0.15909685434E+03  0.17770000000E+01 0. -1.
        -16    1    4    4    0    0  0.17115666118E+02 -0.19113708846E+02  0.35972571945E+02  0.44184904943E+02  0.00000000000E+00 0.  1.
<mgrwt>
<rscale>  2 0.36510522E+03</rscale>
<asrwt>0</asrwt>
<pdfrwt beam="1">  1       21 0.86166786E-01 0.36623947E+03</pdfrwt>
<pdfrwt beam="2">  1       21 0.39497415E-01 0.36623947E+03</pdfrwt>
<totfact> 0.65310228E+03</totfact>
</mgrwt>
</event>
<event>
12    2  0.4090627E-002  0.2165630E+03  0.7546771E-02  0.1136668E+00
         21   -1    0    0  501  502  0.00000000000E+00  0.00000000000E+00  0.58143954818E+03  0.58143954818E+03  0.00000000000E+00 0. -1.
         21   -1    0    0  502  503 -0.00000000000E+00 -0.00000000000E+00 -0.12166545087E+03  0.12166545087E+03  0.00000000000E+00 0. -1.
         -6    2    1    2    0  503  0.61560018375E+02  0.11247612309E+03  0.24484317205E+02  0.21691909508E+03  0.17324519588E+03 0.  0.
        -24    2    3    3    0    0 -0.29912836411E+02  0.30990587315E+02  0.69526015154E+01  0.93077959920E+02  0.82219059048E+02 0.  0.
          6    2    1    2  501    0 -0.61560018375E+02 -0.11247612309E+03  0.43528978011E+03  0.48618590397E+03  0.17452514553E+03 0.  0.
         24    2    5    5    0    0 -0.77708377393E+02 -0.17286632078E+02  0.17608189281E+03  0.20954059398E+03  0.81024736879E+02 0.  0.
          5    1    5    5  501    0  0.16148359018E+02 -0.95189491011E+02  0.25920788730E+03  0.27664530998E+03  0.47000000000E+01 0. -1.
        -15    1    6    6    0    0 -0.70764613754E+01  0.45223774274E+01 -0.76482310876E+01  0.11497015742E+02  0.17770000000E+01 0.  1.
         16    1    6    6    0    0 -0.70631916018E+02 -0.21809009505E+02  0.18373012390E+03  0.19804357824E+03  0.00000000000E+00 0. -1.
         -5    1    3    3    0  503  0.91472854786E+02  0.81485535774E+02  0.17531715689E+02  0.12384113516E+03  0.47000000000E+01 0.  1.
         15    1    4    4    0    0  0.26867755904E+02  0.23119889866E+02  0.30839043690E+01  0.35624062232E+02  0.17770000000E+01 0. -1.
        -16    1    4    4    0    0 -0.56780592315E+02  0.78706974489E+01  0.38686971465E+01  0.57453897688E+02  0.00000000000E+00 0.  1.
<mgrwt>
<rscale>  2 0.21630502E+03</rscale>
<asrwt>0</asrwt>
<pdfrwt beam="1">  1       21 0.89452236E-01 0.21656302E+03</pdfrwt>
<pdfrwt beam="2">  1       21 0.18717762E-01 0.21656302E+03</pdfrwt>
<totfact> 0.27453466E+04</totfact>
</mgrwt>
</event>
<event>
12    2  0.4090627E-002  0.1759675E+03  0.7546771E-02  0.1171770E+00
         21   -1    0    0  503  502  0.00000000000E+00  0.00000000000E+00  0.12757350458E+03  0.12757350458E+03  0.00000000000E+00 0.  1.
         21   -1    0    0  501  503 -0.00000000000E+00 -0.00000000000E+00 -0.29981984364E+03  0.29981984364E+03  0.00000000000E+00 0.  1.
          6    2    1    2  501    0 -0.29535187720E+01 -0.30756273507E+02 -0.17941543422E+03  0.25130550094E+03  0.17323361433E+03 0.  0.
         24    2    3    3    0    0 -0.55674514550E+02  0.81466330205E+01 -0.15009678256E+03  0.17937071890E+03  0.80490940265E+02 0.  0.
         -6    2    1    2    0  502  0.29535187720E+01  0.30756273507E+02  0.71690951602E+01  0.17608784728E+03  0.17320757028E+03 0.  0.
        -24    2    5    5    0    0  0.62914115575E+02  0.39164484678E+00 -0.97091709273E+01  0.10663102826E+03  0.85542789666E+02 0.  0.
          5    1    3    3  501    0  0.52720995778E+02 -0.38902906528E+02 -0.29318651661E+02  0.71934782042E+02  0.47000000000E+01 0. -1.
        -15    1    4    4    0    0 -0.51149126120E+02 -0.27072483822E+02 -0.11828913031E+03  0.13169900744E+03  0.17770000000E+01 0.  1.
         16    1    4    4    0    0 -0.45253884294E+01  0.35219116843E+02 -0.31807652244E+02  0.47671711454E+02  0.00000000000E+00 0. -1.
         -5    1    5    5    0  502 -0.59960596803E+02  0.30364628661E+02  0.16878266088E+02  0.69456819023E+02  0.47000000000E+01 0.  1.
         15    1    6    6    0    0 -0.26757538291E+01 -0.11613262202E+02 -0.33682575159E+02  0.35772910363E+02  0.17770000000E+01 0. -1.
        -16    1    6    6    0    0  0.65589869404E+02  0.12004907048E+02  0.23973404231E+02  0.70858117899E+02  0.00000000000E+00 0.  1.
<mgrwt>
<rscale>  2 0.17596108E+03</rscale>
<asrwt>0</asrwt>
<pdfrwt beam="1">  1       21 0.19626693E-01 0.17596749E+03</pdfrwt>
<pdfrwt beam="2">  1       21 0.46126130E-01 0.17596749E+03</pdfrwt>
<totfact> 0.10834703E+05</totfact>
</mgrwt>
</event>
<event>
12    2  0.4090627E-002  0.2051387E+03  0.7546771E-02  0.1145600E+00
         21   -1    0    0  503  502  0.00000000000E+00  0.00000000000E+00  0.53572960097E+02  0.53572960097E+02  0.00000000000E+00 0. -1.
         21   -1    0    0  501  503 -0.00000000000E+00 -0.00000000000E+00 -0.13014068604E+04  0.13014068604E+04  0.00000000000E+00 0.  1.
          6    2    1    2  501    0  0.84938101555E+02 -0.70991965231E+02 -0.10508823245E+04  0.10706001142E+04  0.17197849954E+03 0.  0.
         24    2    3    3    0    0 -0.18615307526E+02 -0.84819169671E+01 -0.39967103334E+03  0.40823386322E+03  0.80619350043E+02 0.  0.
         -6    2    1    2    0  502 -0.84938101555E+02  0.70991965231E+02 -0.19695157583E+03  0.28437970634E+03  0.17270655441E+03 0.  0.
        -24    2    5    5    0    0  0.72019657046E+01  0.43968287082E+02 -0.39377056629E+02  0.99793980257E+02  0.80144914547E+02 0.  0.
          5    1    3    3  501    0  0.10355340908E+03 -0.62510048264E+02 -0.65121129117E+03  0.66236625096E+03  0.47000000000E+01 0. -1.
        -15    1    4    4    0    0  0.21669142360E+02  0.38927891896E+01 -0.28848397362E+03  0.28932830194E+03  0.17770000000E+01 0.  1.
         16    1    4    4    0    0 -0.40284449886E+02 -0.12374706157E+02 -0.11118705972E+03  0.11890556128E+03  0.00000000000E+00 0. -1.
         -5    1    5    5    0  502 -0.92140067260E+02  0.27023678149E+02 -0.15757451920E+03  0.18458572609E+03  0.47000000000E+01 0.  1.
         15    1    6    6    0    0 -0.29265179240E+02  0.31875384993E+02 -0.43216563162E+02  0.61182676837E+02  0.17770000000E+01 0. -1.
        -16    1    6    6    0    0  0.36467144945E+02  0.12092902089E+02  0.38395065327E+01  0.38611303420E+02  0.00000000000E+00 0.  1.
<mgrwt>
<rscale>  2 0.20498540E+03</rscale>
<asrwt>0</asrwt>
<pdfrwt beam="1">  1       21 0.82419944E-02 0.20513872E+03</pdfrwt>
<pdfrwt beam="2">  1       21 0.20021643E+00 0.20513872E+03</pdfrwt>
<totfact> 0.15099504E+04</totfact>
</mgrwt>
</event>
<event>
12    2  0.4090627E-002  0.2177770E+03  0.7546771E-02  0.1135599E+00
         21   -1    0    0  503  502  0.00000000000E+00  0.00000000000E+00  0.54837736693E+02  0.54837736693E+02  0.00000000000E+00 0.  1.
         21   -1    0    0  501  503 -0.00000000000E+00 -0.00000000000E+00 -0.10746671731E+04  0.10746671731E+04  0.00000000000E+00 0.  1.
          6    2    1    2  501    0 -0.40382398087E+02 -0.12593154321E+03 -0.76027678031E+03  0.79085244464E+03  0.17302402973E+03 0.  0.
         24    2    3    3    0    0 -0.47501856997E+02 -0.72698986851E+02 -0.69931160025E+03  0.70946918511E+03  0.82269321562E+02 0.  0.
         -6    2    1    2    0  502  0.40382398087E+02  0.12593154321E+03 -0.25955265615E+03  0.33865246520E+03  0.17270905947E+03 0.  0.
        -24    2    5    5    0    0  0.48592010600E+02  0.14723963155E+03 -0.26321268628E+03  0.31505335109E+03  0.77051951449E+02 0.  0.
          5    1    3    3  501    0  0.71194589095E+01 -0.53232556362E+02 -0.60965180063E+02  0.81383259533E+02  0.47000000000E+01 0. -1.
        -15    1    4    4    0    0 -0.24441152195E+02 -0.82274561377E+02 -0.39949467424E+03  0.40861427514E+03  0.17770000000E+01 0.  1.
         16    1    4    4    0    0 -0.23060704801E+02  0.95755745260E+01 -0.29981692600E+03  0.30085490997E+03  0.00000000000E+00 0. -1.
         -5    1    5    5    0  502 -0.82096125129E+01 -0.21308088337E+02  0.36600301344E+01  0.23599114110E+02  0.47000000000E+01 0.  1.
         15    1    6    6    0    0  0.33245058435E+01  0.69341293223E+02 -0.17790470113E+03  0.19097776755E+03  0.17770000000E+01 0. -1.
        -16    1    6    6    0    0  0.45267504756E+02  0.77898338327E+02 -0.85307985149E+02  0.12407558354E+03  0.00000000000E+00 0.  1.
<mgrwt>
<rscale>  2 0.21771440E+03</rscale>
<asrwt>0</asrwt>
<pdfrwt beam="1">  1       21 0.84365756E-02 0.21777697E+03</pdfrwt>
<pdfrwt beam="2">  1       21 0.16533340E+00 0.21777697E+03</pdfrwt>
<totfact> 0.24778657E+04</totfact>
</mgrwt>
</event>
<event>
12    2  0.4090627E-002  0.2314443E+03  0.7546771E-02  0.1125781E+00
         21   -1    0    0  501  502  0.00000000000E+00  0.00000000000E+00  0.11775202931E+03  0.11775202931E+03  0.00000000000E+00 0. -1.
         21   -1    0    0  502  503 -0.00000000000E+00 -0.00000000000E+00 -0.81682268098E+03  0.81682268098E+03  0.00000000000E+00 0. -1.
         -6    2    1    2    0  503 -0.10266664744E+03  0.11240273306E+03 -0.66168926928E+03  0.70099867520E+03  0.17433197829E+03 0.  0.
        -24    2    3    3    0    0  0.92193745639E+01  0.52635058400E+02 -0.20393519634E+03  0.22597074113E+03  0.81349648432E+02 0.  0.
          6    2    1    2  501    0  0.10266664744E+03 -0.11240273306E+03 -0.37381382383E+02  0.23357603509E+03  0.17316345319E+03 0.  0.
         24    2    5    5    0    0  0.50150383410E+02 -0.14002279259E+03 -0.19867850200E+02  0.17153057203E+03  0.83105729467E+02 0.  0.
          5    1    5    5  501    0  0.52516264034E+02  0.27620059523E+02 -0.17513532183E+02  0.62045463055E+02  0.47000000000E+01 0. -1.
        -15    1    6    6    0    0 -0.21512261197E+02 -0.48764643531E+02 -0.14990980850E+02  0.55395442740E+02  0.17770000000E+01 0.  1.
         16    1    6    6    0    0  0.71662644607E+02 -0.91258149055E+02 -0.48768693502E+01  0.11613512929E+03  0.00000000000E+00 0. -1.
         -5    1    3    3    0  503 -0.11188602201E+03  0.59767674664E+02 -0.45775407294E+03  0.47502793407E+03  0.47000000000E+01 0.  1.
         15    1    4    4    0    0 -0.38746005147E+01  0.65535945447E+02 -0.94970939161E+02  0.11546692032E+03  0.17770000000E+01 0. -1.
        -16    1    4    4    0    0  0.13093975079E+02 -0.12900887048E+02 -0.10896425718E+03  0.11050382081E+03  0.00000000000E+00 0.  1.
<mgrwt>
<rscale>  2 0.23122424E+03</rscale>
<asrwt>0</asrwt>
<pdfrwt beam="1">  1       21 0.18115698E-01 0.23144428E+03</pdfrwt>
<pdfrwt beam="2">  1       21 0.12566502E+00 0.23144428E+03</pdfrwt>
<totfact> 0.12730211E+04</totfact>
</mgrwt>
</event>
<event>
12    2  0.4090627E-002  0.2229247E+03  0.7546771E-02  0.1131738E+00
         21   -1    0    0  503  502  0.00000000000E+00  0.00000000000E+00  0.59373046742E+03  0.59373046742E+03  0.00000000000E+00 0.  1.
         21   -1    0    0  501  503 -0.00000000000E+00 -0.00000000000E+00 -0.16823422038E+03  0.16823422038E+03  0.00000000000E+00 0. -1.
          6    2    1    2  501    0  0.37248495581E+02  0.13518395602E+03 -0.57346045561E+02  0.23018250826E+03  0.17330108418E+03 0.  0.
         24    2    3    3    0    0 -0.28175830929E+01  0.20290998099E+02  0.18690008803E+02  0.86623273082E+02  0.82064679565E+02 0.  0.
         -6    2    1    2    0  502 -0.37248495581E+02 -0.13518395602E+03  0.48284229260E+03  0.53178217955E+03  0.17318618471E+03 0.  0.
        -24    2    5    5    0    0 -0.82913327679E+02 -0.11203743913E+03  0.28044269010E+03  0.32295515250E+03  0.78898164883E+02 0.  0.
          5    1    3    3  501    0  0.40066078674E+02  0.11489295792E+03 -0.76036054364E+02  0.14355923517E+03  0.47000000000E+01 0. -1.
        -15    1    4    4    0    0  0.19123121298E+01  0.50826800669E+02  0.22199356697E+02  0.55524677132E+02  0.17770000000E+01 0.  1.
         16    1    4    4    0    0 -0.47298952227E+01 -0.30535802570E+02 -0.35093478940E+01  0.31098595950E+02  0.00000000000E+00 0. -1.
         -5    1    5    5    0  502  0.45664832098E+02 -0.23146516893E+02  0.20239960250E+03  0.20882702705E+03  0.47000000000E+01 0.  1.
         15    1    6    6    0    0 -0.23130346706E+02 -0.87368855739E+02  0.12215190804E+03  0.15196241726E+03  0.17770000000E+01 0. -1.
        -16    1    6    6    0    0 -0.59782980973E+02 -0.24668583390E+02  0.15829078206E+03  0.17099273524E+03  0.00000000000E+00 0.  1.
<mgrwt>
<rscale>  2 0.22290236E+03</rscale>
<asrwt>0</asrwt>
<pdfrwt beam="1">  1       21 0.91343148E-01 0.22292469E+03</pdfrwt>
<pdfrwt beam="2">  1       21 0.25882188E-01 0.22292469E+03</pdfrwt>
<totfact> 0.14115943E+04</totfact>
</mgrwt>
</event>
<event>
12    2  0.4090627E-002  0.1790838E+03  0.7546771E-02  0.1168833E+00
         21   -1    0    0  501  502  0.00000000000E+00  0.00000000000E+00  0.30533593467E+03  0.30533593467E+03  0.00000000000E+00 0. -1.
         21   -1    0    0  502  503 -0.00000000000E+00 -0.00000000000E+00 -0.15785695075E+03  0.15785695075E+03  0.00000000000E+00 0. -1.
         -6    2    1    2    0  503 -0.38131142520E+02 -0.25348781525E+02  0.20805757001E+03  0.27414057814E+03  0.17253567569E+03 0.  0.
        -24    2    3    3    0    0 -0.91410510544E+02 -0.22228312656E+02  0.13397116608E+03  0.18271129601E+03  0.81149029732E+02 0.  0.
          6    2    1    2  501    0  0.38131142520E+02  0.25348781525E+02 -0.60578586096E+02  0.18905230728E+03  0.17313135199E+03 0.  0.
         24    2    5    5    0    0  0.56184718012E+02 -0.89849728236E+00  0.19083030754E+02  0.10312841985E+03  0.84343221909E+02 0.  0.
          5    1    5    5  501    0 -0.18053575492E+02  0.26247278807E+02 -0.79661616850E+02  0.85923887435E+02  0.47000000000E+01 0. -1.
        -15    1    6    6    0    0  0.38335733131E+02  0.21132599568E+02 -0.25203356866E+02  0.50542874132E+02  0.17770000000E+01 0.  1.
         16    1    6    6    0    0  0.17848984881E+02 -0.22031096850E+02  0.44286387620E+02  0.52585545715E+02  0.00000000000E+00 0. -1.
         -5    1    3    3    0  503  0.53279368023E+02 -0.31204688688E+01  0.74086403929E+02  0.91429282126E+02  0.47000000000E+01 0.  1.
         15    1    4    4    0    0 -0.30182940007E+02 -0.36815083927E+02  0.10096753486E+03  0.11164211166E+03  0.17770000000E+01 0. -1.
        -16    1    4    4    0    0 -0.61227570537E+02  0.14586771270E+02  0.33003631228E+02  0.71069184350E+02  0.00000000000E+00 0.  1.
<mgrwt>
<rscale>  2 0.17893968E+03</rscale>
<asrwt>0</asrwt>
<pdfrwt beam="1">  1       21 0.46974759E-01 0.17908381E+03</pdfrwt>
<pdfrwt beam="2">  1       21 0.24285685E-01 0.17908381E+03</pdfrwt>
<totfact> 0.69833860E+04</totfact>
</mgrwt>
</event>
<event>
12    2  0.4090627E-002  0.2055807E+03  0.7546771E-02  0.1145646E+00
         21   -1    0    0  501  502  0.00000000000E+00  0.00000000000E+00  0.17235203091E+03  0.17235203091E+03  0.00000000000E+00 0.  1.
         21   -1    0    0  502  503 -0.00000000000E+00 -0.00000000000E+00 -0.74839189638E+03  0.74839189638E+03  0.00000000000E+00 0.  1.
         -6    2    1    2    0  503  0.10769124505E+03  0.14827908790E+02 -0.66725480554E+03  0.69820655355E+03  0.17448823676E+03 0.  0.
        -24    2    3    3    0    0 -0.68766104315E+01  0.35789866428E+02 -0.21811473729E+03  0.23418706249E+03  0.77080083710E+02 0.  0.
          6    2    1    2  501    0 -0.10769124505E+03 -0.14827908790E+02  0.91214940064E+02  0.22253737374E+03  0.17142183724E+03 0.  0.
         24    2    5    5    0    0 -0.37389905954E+01 -0.46199275880E+02  0.60327962016E+02  0.10954919165E+03  0.78823912916E+02 0.  0.
          5    1    5    5  501    0 -0.10395225446E+03  0.31371367090E+02  0.30886978048E+02  0.11298818209E+03  0.47000000000E+01 0. -1.
        -15    1    6    6    0    0  0.15472749517E+02  0.13694512902E+02  0.37089848697E+02  0.42494238040E+02  0.17770000000E+01 0.  1.
         16    1    6    6    0    0 -0.19211740112E+02 -0.59893788782E+02  0.23238113319E+02  0.67054953609E+02  0.00000000000E+00 0. -1.
         -5    1    3    3    0  503  0.11456785548E+03 -0.20961957638E+02 -0.44914006825E+03  0.46401949106E+03  0.47000000000E+01 0.  1.
         15    1    4    4    0    0 -0.16369137549E+01 -0.85118163363E+01  0.24300836431E+01  0.91757037603E+01  0.17770000000E+01 0. -1.
        -16    1    4    4    0    0 -0.52396966766E+01  0.44301682764E+02 -0.22054482094E+03  0.22501135873E+03  0.00000000000E+00 0.  1.
<mgrwt>
<rscale>  2 0.20492854E+03</rscale>
<asrwt>0</asrwt>
<pdfrwt beam="1">  1       21 0.26515697E-01 0.20558068E+03</pdfrwt>
<pdfrwt beam="2">  1       21 0.11513721E+00 0.20558068E+03</pdfrwt>
<totfact> 0.78346958E+03</totfact>
</mgrwt>
</event>
<event>
12    2  0.4090627E-002  0.1755839E+03  0.7546771E-02  0.1173279E+00
         21   -1    0    0  501  502  0.00000000000E+00  0.00000000000E+00  0.90535621207E+02  0.90535621207E+02  0.00000000000E+00 0. -1.
         21   -1    0    0  502  503 -0.00000000000E+00 -0.00000000000E+00 -0.50100314886E+03  0.50100314886E+03  0.00000000000E+00 0. -1.
         -6    2    1    2    0  503 -0.54105857064E+01  0.11735641077E+02 -0.37529830025E+03  0.41246730967E+03  0.17062669096E+03 0.  0.
        -24    2    3    3    0    0 -0.63394721099E+02  0.83459012578E+01 -0.30739069023E+03  0.32298444097E+03  0.75771814916E+02 0.  0.
          6    2    1    2  501    0  0.54105857064E+01 -0.11735641077E+02 -0.35169227401E+02  0.17907146039E+03  0.17510772017E+03 0.  0.
         24    2    5    5    0    0 -0.23152824984E+02 -0.70999116966E+02 -0.18865068448E+02  0.11113072443E+03  0.80107547641E+02 0.  0.
          5    1    5    5  501    0  0.28563410690E+02  0.59263475888E+02 -0.16304158953E+02  0.67940735967E+02  0.47000000000E+01 0. -1.
        -15    1    6    6    0    0 -0.21599549990E+00 -0.31758921898E+02 -0.47678279475E+02  0.57315371733E+02  0.17770000000E+01 0.  1.
         16    1    6    6    0    0 -0.22936829484E+02 -0.39240195068E+02  0.28813211027E+02  0.53815352693E+02  0.00000000000E+00 0. -1.
         -5    1    3    3    0  503  0.57984135392E+02  0.33897398195E+01 -0.67907610023E+02  0.89482868708E+02  0.47000000000E+01 0.  1.
         15    1    4    4    0    0  0.25877837838E+01 -0.22074281433E+02 -0.11895058510E+03  0.12102218784E+03  0.17770000000E+01 0. -1.
        -16    1    4    4    0    0 -0.65982504883E+02  0.30420182690E+02 -0.18844010513E+03  0.20196225312E+03  0.00000000000E+00 0.  1.
<mgrwt>
<rscale>  2 0.17445596E+03</rscale>
<asrwt>0</asrwt>
<pdfrwt beam="1">  1       21 0.13928557E-01 0.17558392E+03</pdfrwt>
<pdfrwt beam="2">  1       21 0.77077409E-01 0.17558392E+03</pdfrwt>
<totfact> 0.67633233E+04</totfact>
</mgrwt>
</event>
<event>
12    2  0.4090627E-002  0.2046592E+03  0.7546771E-02  0.1145933E+00
         21   -1    0    0  501  502  0.00000000000E+00  0.00000000000E+00  0.47079833883E+03  0.47079833883E+03  0.00000000000E+00 0.  1.
         21   -1    0    0  502  503 -0.00000000000E+00 -0.00000000000E+00 -0.35051325521E+03  0.35051325521E+03  0.00000000000E+00 0.  1.
         -6    2    1    2    0  503 -0.26837174317E+02  0.10537609391E+03 -0.29467296999E+03  0.35877229672E+03  0.17338121744E+03 0.  0.
        -24    2    3    3    0    0  0.57336725032E+01  0.10417117192E+03 -0.11231229867E+03  0.17346224210E+03  0.81182442331E+02 0.  0.
          6    2    1    2  501    0  0.26837174317E+02 -0.10537609391E+03  0.41495805361E+03  0.46253929731E+03  0.17299728382E+03 0.  0.
         24    2    5    5    0    0 -0.42095550865E+02 -0.55525309872E+02  0.13918282700E+03  0.17390304373E+03  0.77558454393E+02 0.  0.
          5    1    5    5  501    0  0.68932725182E+02 -0.49850784039E+02  0.27577522661E+03  0.28863625358E+03  0.47000000000E+01 0. -1.
        -15    1    6    6    0    0  0.18398501976E+02 -0.33784687018E+02  0.66723331402E+02  0.77039409618E+02  0.17770000000E+01 0.  1.
         16    1    6    6    0    0 -0.60494052841E+02 -0.21740622854E+02  0.72459495602E+02  0.96863634116E+02  0.00000000000E+00 0. -1.
         -5    1    3    3    0  503 -0.32570846820E+02  0.12049219911E+01 -0.18236067132E+03  0.18531005462E+03  0.47000000000E+01 0.  1.
         15    1    4    4    0    0 -0.20835766072E+02  0.11721398592E+02  0.20083190117E+01  0.24056421326E+02  0.17770000000E+01 0. -1.
        -16    1    4    4    0    0  0.26569438575E+02  0.92449773329E+02 -0.11432061768E+03  0.14940582077E+03  0.00000000000E+00 0.  1.
<mgrwt>
<rscale>  2 0.20457790E+03</rscale>
<asrwt>0</asrwt>
<pdfrwt beam="1">  1       21 0.72430514E-01 0.20465923E+03</pdfrwt>
<pdfrwt beam="2">  1       21 0.53925116E-01 0.20465923E+03</pdfrwt>
<totfact> 0.55365195E+03</totfact>
</mgrwt>
</event>
<event>
12    2  0.4090627E-002  0.2057823E+03  0.7546771E-02  0.1144977E+00
         21   -1    0    0  501  502  0.00000000000E+00  0.00000000000E+00  0.26452610187E+04  0.26452610187E+04  0.00000000000E+00 0.  1.
         21   -1    0    0  502  503 -0.00000000000E+00 -0.00000000000E+00 -0.16241412449E+02  0.16241412449E+02  0.00000000000E+00 0.  1.
         -6    2    1    2    0  503  0.23394573443E+02 -0.10929568524E+03  0.11520475602E+04  0.11702819927E+04  0.17278167864E+03 0.  0.
        -24    2    3    3    0    0  0.69563863818E+02 -0.11587756790E+03  0.76341395653E+03  0.77883200548E+03  0.74240702056E+02 0.  0.
          6    2    1    2  501    0 -0.23394573443E+02  0.10929568524E+03  0.14769720460E+04  0.14912204385E+04  0.17262421184E+03 0.  0.
         24    2    5    5    0    0 -0.58707676472E+01  0.48733184839E+00  0.91373039279E+03  0.91727828854E+03  0.80383608474E+02 0.  0.
          5    1    5    5  501    0 -0.17523805796E+02  0.10880835339E+03  0.56324165325E+03  0.57394214995E+03  0.47000000000E+01 0. -1.
        -15    1    6    6    0    0 -0.22207694201E+02 -0.11405714328E+02  0.93290543159E+02  0.96589622491E+02  0.17770000000E+01 0.  1.
         16    1    6    6    0    0  0.16336926554E+02  0.11893046176E+02  0.82043984963E+03  0.82068866605E+03  0.00000000000E+00 0. -1.
         -5    1    3    3    0  503 -0.46169290375E+02  0.65818826578E+01  0.38863360370E+03  0.39144998720E+03  0.47000000000E+01 0.  1.
         15    1    4    4    0    0  0.67755049667E+01 -0.77989146573E+02  0.32310416476E+03  0.33245702499E+03  0.17770000000E+01 0. -1.
        -16    1    4    4    0    0  0.62788358851E+02 -0.37888421323E+02  0.44030979177E+03  0.44637498049E+03  0.00000000000E+00 0.  1.
<mgrwt>
<rscale>  2 0.20574926E+03</rscale>
<asrwt>0</asrwt>
<pdfrwt beam="1">  1       21 0.40696289E+00 0.20578232E+03</pdfrwt>
<pdfrwt beam="2">  1       21 0.24986809E-02 0.20578232E+03</pdfrwt>
<totfact> 0.66282825E+03</totfact>
</mgrwt>
</event>
<event>
12    2  0.4090627E-002  0.1812897E+03  0.7546771E-02  0.1166976E+00
         21   -1    0    0  503  502  0.00000000000E+00  0.00000000000E+00  0.99650794112E+03  0.99650794112E+03  0.00000000000E+00 0.  1.
         21   -1    0    0  501  503 -0.00000000000E+00 -0.00000000000E+00 -0.42728332485E+02  0.42728332485E+02  0.00000000000E+00 0.  1.
          6    2    1    2  501    0 -0.78633746776E+01 -0.48288996293E+02  0.22650415214E+03  0.29012082757E+03  0.17456318004E+03 0.  0.
         24    2    3    3    0    0 -0.39468266187E+02  0.29556185167E+02  0.14242082650E+03  0.17116353651E+03  0.81129232049E+02 0.  0.
         -6    2    1    2    0  502  0.78633746776E+01  0.48288996293E+02  0.72727545649E+03  0.74911544604E+03  0.17277355717E+03 0.  0.
        -24    2    5    5    0    0 -0.35949138481E+02 -0.26530541689E+02  0.37037407609E+03  0.38180333774E+03  0.81244213752E+02 0.  0.
          5    1    3    3  501    0  0.31604891510E+02 -0.77845181459E+02  0.84083325647E+02  0.11895729106E+03  0.47000000000E+01 0. -1.
        -15    1    4    4    0    0 -0.30056151130E+02 -0.24549579014E+02  0.72514302137E+02  0.82265033847E+02  0.17770000000E+01 0.  1.
         16    1    4    4    0    0 -0.94121150576E+01  0.54105764181E+02  0.69906524360E+02  0.88898502662E+02  0.00000000000E+00 0. -1.
         -5    1    5    5    0  502  0.43812513158E+02  0.74819537982E+02  0.35690138040E+03  0.36731210830E+03  0.47000000000E+01 0.  1.
         15    1    6    6    0    0 -0.44702240166E+02  0.58143462895E+01  0.30523577581E+03  0.30855167065E+03  0.17770000000E+01 0. -1.
        -16    1    6    6    0    0  0.87531016854E+01 -0.32344887978E+02  0.65138300279E+02  0.73251667085E+02  0.00000000000E+00 0.  1.
<mgrwt>
<rscale>  2 0.18085754E+03</rscale>
<asrwt>0</asrwt>
<pdfrwt beam="1">  1       21 0.15330890E+00 0.18128972E+03</pdfrwt>
<pdfrwt beam="2">  1       21 0.65735904E-02 0.18128972E+03</pdfrwt>
<totfact> 0.47877550E+04</totfact>
</mgrwt>
</event>
<event>
12    2  0.4090627E-002  0.2041611E+03  0.7546771E-02  0.1146828E+00
         21   -1    0    0  501  502  0.00000000000E+00  0.00000000000E+00  0.24026278372E+03  0.24026278372E+03  0.00000000000E+00 0.  1.
         21   -1    0    0  502  503 -0.00000000000E+00 -0.00000000000E+00 -0.19184547612E+03  0.19184547612E+03  0.00000000000E+00 0.  1.
         -6    2    1    2    0  503  0.10433457905E+03  0.29498832878E+02  0.94907958469E+02  0.22272073777E+03  0.16982673796E+03 0.  0.
        -24    2    3    3    0    0  0.12309551989E+03  0.63243094894E+02  0.88365374504E+02  0.18328035839E+03  0.81431285704E+02 0.  0.
          6    2    1    2  501    0 -0.10433457905E+03 -0.29498832878E+02 -0.46490650871E+02  0.20938752208E+03  0.17299094849E+03 0.  0.
         24    2    5    5    0    0  0.14601227193E+02 -0.11233361438E+02 -0.10038443578E+02  0.83569372081E+02  0.80893048872E+02 0.  0.
          5    1    5    5  501    0 -0.11893580624E+03 -0.18265471440E+02 -0.36452207293E+02  0.12581815000E+03  0.47000000000E+01 0. -1.
        -15    1    6    6    0    0 -0.94370278274E+01  0.11611532183E+02 -0.37563102054E+02  0.40472577615E+02  0.17770000000E+01 0.  1.
         16    1    6    6    0    0  0.24038255020E+02 -0.22844893621E+02  0.27524658477E+02  0.43096794466E+02  0.00000000000E+00 0. -1.
         -5    1    3    3    0  503 -0.18760940847E+02 -0.33744262016E+02  0.65425839651E+01  0.39440379377E+02  0.47000000000E+01 0.  1.
         15    1    4    4    0    0  0.13429539589E+03  0.54309015389E+02  0.86758990825E+02  0.16886385856E+03  0.17770000000E+01 0. -1.
        -16    1    4    4    0    0 -0.11199875995E+02  0.89340795046E+01  0.16063836788E+01  0.14416499833E+02  0.00000000000E+00 0.  1.
<mgrwt>
<rscale>  2 0.20348926E+03</rscale>
<asrwt>0</asrwt>
<pdfrwt beam="1">  1       21 0.36963505E-01 0.20416110E+03</pdfrwt>
<pdfrwt beam="2">  1       21 0.29514689E-01 0.20416110E+03</pdfrwt>
<totfact> 0.77260269E+04</totfact>
</mgrwt>
</event>
<event>
12    2  0.4090627E-002  0.1836520E+03  0.7546771E-02  0.1164444E+00
         21   -1    0    0  501  502  0.00000000000E+00  0.00000000000E+00  0.10981427643E+04  0.10981427643E+04  0.00000000000E+00 0. -1.
         21   -1    0    0  502  503 -0.00000000000E+00 -0.00000000000E+00 -0.30706789907E+02  0.30706789907E+02  0.00000000000E+00 0. -1.
         -6    2    1    2    0  503 -0.98474249090E+01 -0.59466443541E+02  0.56414710495E+03  0.59328744738E+03  0.17347855633E+03 0.  0.
        -24    2    3    3    0    0 -0.92409552067E+01 -0.20127716792E+02  0.54081449401E+03  0.54730479890E+03  0.81066057817E+02 0.  0.
          6    2    1    2  501    0  0.98474249090E+01  0.59466443541E+02  0.50328886942E+03  0.53556210680E+03  0.17289839352E+03 0.  0.
         24    2    5    5    0    0  0.23082131371E+02  0.52548997761E+02  0.13805442528E+03  0.16999228078E+03  0.80896039661E+02 0.  0.
          5    1    5    5  501    0 -0.13234706462E+02  0.69174457803E+01  0.36523444414E+03  0.36556982602E+03  0.47000000000E+01 0. -1.
        -15    1    6    6    0    0  0.42253759125E+02 -0.97434105756E+00  0.61066914086E+02  0.74287651906E+02  0.17770000000E+01 0.  1.
         16    1    6    6    0    0 -0.19171627755E+02  0.53523338818E+02  0.76987511189E+02  0.95704628875E+02  0.00000000000E+00 0. -1.
         -5    1    3    3    0  503 -0.60646970231E+00 -0.39338726749E+02  0.23332610942E+02  0.45982648479E+02  0.47000000000E+01 0.  1.
         15    1    4    4    0    0  0.41636861722E+01 -0.50406208576E+02  0.34964471822E+03  0.35328842162E+03  0.17770000000E+01 0. -1.
        -16    1    4    4    0    0 -0.13404641379E+02  0.30278491784E+02  0.19116977579E+03  0.19401637728E+03  0.00000000000E+00 0.  1.
<mgrwt>
<rscale>  2 0.18351482E+03</rscale>
<asrwt>0</asrwt>
<pdfrwt beam="1">  1       21 0.16894501E+00 0.18365195E+03</pdfrwt>
<pdfrwt beam="2">  1       21 0.47241224E-02 0.18365195E+03</pdfrwt>
<totfact> 0.64601761E+04</totfact>
</mgrwt>
</event>
<event>
12    2  0.4090627E-002  0.2213616E+03  0.7546771E-02  0.1133581E+00
         21   -1    0    0  501  502  0.00000000000E+00  0.00000000000E+00  0.33498842311E+03  0.33498842311E+03  0.00000000000E+00 0.  1.
         21   -1    0    0  502  503 -0.00000000000E+00 -0.00000000000E+00 -0.25359458389E+03  0.25359458389E+03  0.00000000000E+00 0.  1.
         -6    2    1    2    0  503  0.12934779523E+03  0.48607635780E+02 -0.15276097307E+03  0.26895515266E+03  0.17293757505E+03 0.  0.
        -24    2    3    3    0    0  0.11377161001E+03  0.67238203524E+02 -0.49357229639E+02  0.16263422454E+03  0.80924653950E+02 0.  0.
          6    2    1    2  501    0 -0.12934779523E+03 -0.48607635780E+02  0.23415481229E+03  0.31962785434E+03  0.16804741821E+03 0.  0.
         24    2    5    5    0    0 -0.22570583547E+02 -0.34693500468E+02  0.37239872985E+02  0.95144983241E+02  0.77153674440E+02 0.  0.
          5    1    5    5  501    0 -0.10677721168E+03 -0.13914135312E+02  0.19691493931E+03  0.22448287110E+03  0.47000000000E+01 0. -1.
        -15    1    6    6    0    0  0.48973550934E+01 -0.75217214169E+01  0.52730642455E+02  0.53518583339E+02  0.17770000000E+01 0.  1.
         16    1    6    6    0    0 -0.27467938641E+02 -0.27171779051E+02 -0.15490769470E+02  0.41626399901E+02  0.00000000000E+00 0. -1.
         -5    1    3    3    0  503  0.15576185213E+02 -0.18630567745E+02 -0.10340374343E+03  0.10632092811E+03  0.47000000000E+01 0.  1.
         15    1    4    4    0    0  0.47441925823E+01  0.90063689776E+01 -0.36998004755E+02  0.38413957493E+02  0.17770000000E+01 0. -1.
        -16    1    4    4    0    0  0.10902741743E+03  0.58231834547E+02 -0.12359224884E+02  0.12422026705E+03  0.00000000000E+00 0.  1.
<mgrwt>
<rscale>  2 0.22040568E+03</rscale>
<asrwt>0</asrwt>
<pdfrwt beam="1">  1       21 0.51536681E-01 0.22136160E+03</pdfrwt>
<pdfrwt beam="2">  1       21 0.39014551E-01 0.22136160E+03</pdfrwt>
<totfact> 0.22290310E+04</totfact>
</mgrwt>
</event>
<event>
12    2  0.4090627E-002  0.1985335E+03  0.7546771E-02  0.1151068E+00
         21   -1    0    0  501  502  0.00000000000E+00  0.00000000000E+00  0.13391329983E+03  0.13391329983E+03  0.00000000000E+00 0.  1.
         21   -1    0    0  502  503 -0.00000000000E+00 -0.00000000000E+00 -0.36493035548E+03  0.36493035548E+03  0.00000000000E+00 0.  1.
         -6    2    1    2    0  503  0.94257446111E+02 -0.22370109629E+02 -0.54383441842E+01  0.19860800930E+03  0.17329361736E+03 0.  0.
        -24    2    3    3    0    0  0.71850102771E+02 -0.33475273591E+02 -0.65884857494E+02  0.13302382925E+03  0.84092172585E+02 0.  0.
          6    2    1    2  501    0 -0.94257446111E+02  0.22370109629E+02 -0.22557871147E+03  0.30023564600E+03  0.17283171037E+03 0.  0.
         24    2    5    5    0    0  0.16717573172E+01  0.37594361204E+02 -0.60863978954E+02  0.10895777741E+03  0.82165945239E+02 0.  0.
          5    1    5    5  501    0 -0.95929203429E+02 -0.15224251575E+02 -0.16471473251E+03  0.19127786859E+03  0.47000000000E+01 0. -1.
        -15    1    6    6    0    0 -0.10358876694E+02  0.57416765787E+02 -0.62740564828E+02  0.85694384435E+02  0.17770000000E+01 0.  1.
         16    1    6    6    0    0  0.12030634011E+02 -0.19822404583E+02  0.18765858739E+01  0.23263392975E+02  0.00000000000E+00 0. -1.
         -5    1    3    3    0  503  0.22407343340E+02  0.11105163962E+02  0.60446513310E+02  0.65584180055E+02  0.47000000000E+01 0.  1.
         15    1    4    4    0    0  0.26414432290E+02 -0.58116199001E+02 -0.35445419844E+02  0.73039375246E+02  0.17770000000E+01 0. -1.
        -16    1    4    4    0    0  0.45435670481E+02  0.24640925410E+02 -0.30439437650E+02  0.59984453999E+02  0.00000000000E+00 0.  1.
<mgrwt>
<rscale>  2 0.19843270E+03</rscale>
<asrwt>0</asrwt>
<pdfrwt beam="1">  1       21 0.20602046E-01 0.19853354E+03</pdfrwt>
<pdfrwt beam="2">  1       21 0.56143131E-01 0.19853354E+03</pdfrwt>
<totfact> 0.65034260E+04</totfact>
</mgrwt>
</event>
<event>
12    2  0.4090627E-002  0.1960491E+03  0.7546771E-02  0.1153925E+00
         21   -1    0    0  501  502  0.00000000000E+00  0.00000000000E+00  0.95727944248E+02  0.95727944248E+02  0.00000000000E+00 0. -1.
         21   -1    0    0  502  503 -0.00000000000E+00 -0.00000000000E+00 -0.39882433953E+03  0.39882433953E+03  0.00000000000E+00 0.  1.
         -6    2    1    2    0  503  0.24222960905E+02  0.87900721450E+02 -0.12281819069E+03  0.22821511510E+03  0.16936511485E+03 0.  0.
        -24    2    3    3    0    0  0.22281453287E+02 -0.62551318192E+01 -0.37234974619E+02  0.10087434775E+03  0.90849330567E+02 0.  0.
          6    2    1    2  501    0 -0.24222960905E+02 -0.87900721450E+02 -0.18027820460E+03  0.26633716868E+03  0.17355681405E+03 0.  0.
         24    2    5    5    0    0  0.30728327149E+01 -0.12502228959E+03 -0.12490553569E+03  0.19414787839E+03  0.80324284260E+02 0.  0.
          5    1    5    5  501    0 -0.27295793620E+02  0.37121568143E+02 -0.55372668902E+02  0.72189290286E+02  0.47000000000E+01 0. -1.
        -15    1    6    6    0    0 -0.17228750267E+02 -0.13922687860E+02 -0.59780114509E+02  0.63776883686E+02  0.17770000000E+01 0.  1.
         16    1    6    6    0    0  0.20301582982E+02 -0.11109960173E+03 -0.65125421186E+02  0.13037099471E+03  0.00000000000E+00 0. -1.
         -5    1    3    3    0  503  0.19415076179E+01  0.94155853269E+02 -0.85583216068E+02  0.12734076735E+03  0.47000000000E+01 0.  1.
         15    1    4    4    0    0  0.49329619585E+02 -0.20980104687E+01 -0.50338451233E+02  0.70533186642E+02  0.17770000000E+01 0. -1.
        -16    1    4    4    0    0 -0.27048166298E+02 -0.41571213505E+01  0.13103476614E+02  0.30341161108E+02  0.00000000000E+00 0.  1.
<mgrwt>
<rscale>  2 0.19511727E+03</rscale>
<asrwt>0</asrwt>
<pdfrwt beam="1">  1       21 0.14727376E-01 0.19604912E+03</pdfrwt>
<pdfrwt beam="2">  1       21 0.61357590E-01 0.19604912E+03</pdfrwt>
<totfact> 0.10002356E+05</totfact>
</mgrwt>
</event>
<event>
12    2  0.4090627E-002  0.1832208E+03  0.7546771E-02  0.1164905E+00
         21   -1    0    0  503  502  0.00000000000E+00  0.00000000000E+00  0.59842561059E+02  0.59842561059E+02  0.00000000000E+00 0. -1.
         21   -1    0    0  501  503 -0.00000000000E+00 -0.00000000000E+00 -0.55891676854E+03  0.55891676854E+03  0.00000000000E+00 0. -1.
          6    2    1    2  501    0 -0.20960492549E+02  0.55542829624E+02 -0.24274935707E+03  0.30413336218E+03  0.17333638817E+03 0.  0.
         24    2    3    3    0    0 -0.54363795577E+02  0.54419507478E+01 -0.66658065763E+02  0.11797184201E+03  0.80554457848E+02 0.  0.
         -6    2    1    2    0  502  0.20960492549E+02 -0.55542829624E+02 -0.25632485041E+03  0.31462596742E+03  0.17251875917E+03 0.  0.
        -24    2    5    5    0    0 -0.27167598511E+01 -0.10220231846E+03 -0.19016838696E+03  0.23014823168E+03  0.79696288889E+02 0.  0.
          5    1    3    3  501    0  0.33403303028E+02  0.50100878876E+02 -0.17609129131E+03  0.18616152017E+03  0.47000000000E+01 0. -1.
        -15    1    4    4    0    0 -0.17566178881E+02  0.20712246170E+02  0.12042664261E+02  0.29761573772E+02  0.17770000000E+01 0.  1.
         16    1    4    4    0    0 -0.36797616696E+02 -0.15270295422E+02 -0.78700730025E+02  0.88210268241E+02  0.00000000000E+00 0. -1.
         -5    1    5    5    0  502  0.23677252400E+02  0.46659488835E+02 -0.66156463449E+02  0.84477735739E+02  0.47000000000E+01 0.  1.
         15    1    6    6    0    0  0.13491562187E+02 -0.63387795051E+02 -0.17294198545E+03  0.18469467473E+03  0.17770000000E+01 0. -1.
        -16    1    6    6    0    0 -0.16208322038E+02 -0.38814523408E+02 -0.17226401513E+02  0.45453556954E+02  0.00000000000E+00 0.  1.
<mgrwt>
<rscale>  2 0.18302713E+03</rscale>
<asrwt>0</asrwt>
<pdfrwt beam="1">  1       21 0.92065475E-02 0.18322077E+03</pdfrwt>
<pdfrwt beam="2">  1       21 0.85987199E-01 0.18322077E+03</pdfrwt>
<totfact> 0.10994016E+05</totfact>
</mgrwt>
</event>
<event>
12    2  0.4090627E-002  0.2368345E+03  0.7546771E-02  0.1122120E+00
         21   -1    0    0  501  502  0.00000000000E+00  0.00000000000E+00  0.68803692062E+02  0.68803692062E+02  0.00000000000E+00 0. -1.
         21   -1    0    0  502  503 -0.00000000000E+00 -0.00000000000E+00 -0.82125630853E+03  0.82125630853E+03  0.00000000000E+00 0. -1.
         -6    2    1    2    0  503  0.22100402066E+02 -0.15909962703E+03 -0.32600289689E+03  0.40225886244E+03  0.17243313062E+03 0.  0.
        -24    2    3    3    0    0 -0.22790177698E+02 -0.26305907739E+02 -0.17946645269E+03  0.19941814780E+03  0.79674318634E+02 0.  0.
          6    2    1    2  501    0 -0.22100402066E+02  0.15909962703E+03 -0.42644971958E+03  0.48780113815E+03  0.17403869674E+03 0.  0.
         24    2    5    5    0    0  0.21288272777E+02  0.16968175309E+03 -0.37097069633E+03  0.41642487797E+03  0.80903235858E+02 0.  0.
          5    1    5    5  501    0 -0.43388674843E+02 -0.10582126058E+02 -0.55479023252E+02  0.71376260181E+02  0.47000000000E+01 0. -1.
        -15    1    6    6    0    0  0.18724606195E+02  0.43003929110E+02 -0.18864572603E+03  0.19439731602E+03  0.17770000000E+01 0.  1.
         16    1    6    6    0    0  0.25636665822E+01  0.12667782398E+03 -0.18232497030E+03  0.22202756196E+03  0.00000000000E+00 0. -1.
         -5    1    3    3    0  503  0.44890579764E+02 -0.13279371929E+03 -0.14653644420E+03  0.20284071464E+03  0.47000000000E+01 0.  1.
         15    1    4    4    0    0  0.12582638094E+02 -0.45083622104E+02 -0.10032192068E+03  0.11071811623E+03  0.17770000000E+01 0. -1.
        -16    1    4    4    0    0 -0.35372815792E+02  0.18777714364E+02 -0.79144532015E+02  0.88700031576E+02  0.00000000000E+00 0.  1.
<mgrwt>
<rscale>  2 0.23653963E+03</rscale>
<asrwt>0</asrwt>
<pdfrwt beam="1">  1       21 0.10585184E-01 0.23683451E+03</pdfrwt>
<pdfrwt beam="2">  1       21 0.12634712E+00 0.23683451E+03</pdfrwt>
<totfact> 0.33258290E+04</totfact>
</mgrwt>
</event>
<event>
12    2  0.4090627E-002  0.1833003E+03  0.7546771E-02  0.1165742E+00
         21   -1    0    0  503  502  0.00000000000E+00  0.00000000000E+00  0.30392020608E+03  0.30392020608E+03  0.00000000000E+00 0.  1.
         21   -1    0    0  501  503 -0.00000000000E+00 -0.00000000000E+00 -0.11744646129E+03  0.11744646129E+03  0.00000000000E+00 0.  1.
          6    2    1    2  501    0  0.73070886996E+00  0.70997351314E+02  0.15465934891E+03  0.23983016416E+03  0.16899063763E+03 0.  0.
         24    2    3    3    0    0  0.19811399092E+02  0.79274456168E+02  0.17479278785E+03  0.21050392050E+03  0.84157298711E+02 0.  0.
         -6    2    1    2    0  502 -0.73070886996E+00 -0.70997351314E+02  0.31814395873E+02  0.18153650321E+03  0.16401886594E+03 0.  0.
        -24    2    5    5    0    0  0.51709863833E+02 -0.16594738638E+02  0.39131736096E+02  0.10547540014E+03  0.81513630135E+02 0.  0.
          5    1    3    3  501    0 -0.19080690222E+02 -0.82771048535E+01 -0.20133438934E+02  0.29326243663E+02  0.47000000000E+01 0. -1.
        -15    1    4    4    0    0  0.19615589055E+02  0.59683699114E+02  0.40452926859E+02  0.74742974883E+02  0.17770000000E+01 0.  1.
         16    1    4    4    0    0  0.19581003678E+00  0.19590757054E+02  0.13433986099E+03  0.13576094561E+03  0.00000000000E+00 0. -1.
         -5    1    5    5    0  502 -0.52440572703E+02 -0.54402612677E+02 -0.73173402228E+01  0.76061103064E+02  0.47000000000E+01 0.  1.
         15    1    6    6    0    0 -0.13553777380E+01  0.22029587295E+02 -0.91882812346E+01  0.23973360345E+02  0.17770000000E+01 0. -1.
        -16    1    6    6    0    0  0.53065241571E+02 -0.38624325933E+02  0.48320017330E+02  0.81502039800E+02  0.00000000000E+00 0.  1.
<mgrwt>
<rscale>  2 0.18214611E+03</rscale>
<asrwt>0</asrwt>
<pdfrwt beam="1">  1       21 0.46756955E-01 0.18330028E+03</pdfrwt>
<pdfrwt beam="2">  1       21 0.18068686E-01 0.18330028E+03</pdfrwt>
<totfact> 0.12248833E+05</totfact>
</mgrwt>
</event>
<event>
12    2  0.4090627E-002  0.2180198E+03  0.7546771E-02  0.1135645E+00
         21   -1    0    0  503  502  0.00000000000E+00  0.00000000000E+00  0.98473677399E+03  0.98473677399E+03  0.00000000000E+00 0.  1.
         21   -1    0    0  501  503 -0.00000000000E+00 -0.00000000000E+00 -0.51304488896E+02  0.51304488896E+02  0.00000000000E+00 0.  1.
          6    2    1    2  501    0  0.33785877481E+02 -0.12836006955E+03  0.60072585760E+03  0.63906507837E+03  0.17295902821E+03 0.  0.
         24    2    3    3    0    0  0.54398401600E+02 -0.14657878305E+03  0.41255046755E+03  0.44883136661E+03  0.82505646112E+02 0.  0.
         -6    2    1    2    0  502 -0.33785877481E+02  0.12836006955E+03  0.33270642750E+03  0.39697618451E+03  0.17111028958E+03 0.  0.
        -24    2    5    5    0    0  0.20589792165E+02  0.11318662540E+02  0.18924786575E+03  0.20395324976E+03  0.72319580553E+02 0.  0.
          5    1    3    3  501    0 -0.20612524119E+02  0.18218713498E+02  0.18817539005E+03  0.19023371176E+03  0.47000000000E+01 0. -1.
        -15    1    4    4    0    0 -0.89178488602E+01 -0.27339418022E+02  0.15888210323E+03  0.16147337942E+03  0.17770000000E+01 0.  1.
         16    1    4    4    0    0  0.63316250460E+02 -0.11923936502E+03  0.25366836432E+03  0.28735798719E+03  0.00000000000E+00 0. -1.
         -5    1    5    5    0  502 -0.54375669646E+02  0.11704140701E+03  0.14345856174E+03  0.19302293476E+03  0.47000000000E+01 0.  1.
         15    1    6    6    0    0 -0.20686475748E+02  0.13069131267E+02  0.12628801374E+03  0.12864895108E+03  0.17770000000E+01 0. -1.
        -16    1    6    6    0    0  0.41276267913E+02 -0.17504687264E+01  0.62959852016E+02  0.75304298679E+02  0.00000000000E+00 0.  1.
<mgrwt>
<rscale>  2 0.21765291E+03</rscale>
<asrwt>0</asrwt>
<pdfrwt beam="1">  1       21 0.15149795E+00 0.21801977E+03</pdfrwt>
<pdfrwt beam="2">  1       21 0.78929990E-02 0.21801977E+03</pdfrwt>
<totfact> 0.35234448E+04</totfact>
</mgrwt>
</event>
<event>
12    2  0.4090627E-002  0.2489561E+03  0.7546771E-02  0.1116165E+00
         21   -1    0    0  501  502  0.00000000000E+00  0.00000000000E+00  0.53207166280E+03  0.53207166280E+03  0.00000000000E+00 0. -1.
         21   -1    0    0  502  503 -0.00000000000E+00 -0.00000000000E+00 -0.11549967406E+03  0.11549967406E+03  0.00000000000E+00 0.  1.
         -6    2    1    2    0  503 -0.15470889932E+03  0.39360111722E+02  0.14502956424E+03  0.28811926262E+03  0.19103683693E+03 0.  0.
        -24    2    3    3    0    0 -0.11498754219E+03 -0.18200720354E+02  0.18054525496E+02  0.14308207406E+03  0.81197986094E+02 0.  0.
          6    2    1    2  501    0  0.15470889932E+03 -0.39360111722E+02  0.27154242450E+03  0.35945207424E+03  0.17316594194E+03 0.  0.
         24    2    5    5    0    0  0.11422084953E+03  0.76702079925E+01  0.88889751769E+02  0.16648777183E+03  0.81924084628E+02 0.  0.
          5    1    5    5  501    0  0.40488049791E+02 -0.47030319715E+02  0.18265267273E+03  0.19296430241E+03  0.47000000000E+01 0. -1.
        -15    1    6    6    0    0  0.55015220216E+02 -0.32368329586E+02  0.65024242145E+02  0.91135574893E+02  0.17770000000E+01 0.  1.
         16    1    6    6    0    0  0.59205629315E+02  0.40038537579E+02  0.23865509624E+02  0.75352196940E+02  0.00000000000E+00 0. -1.
         -5    1    3    3    0  503 -0.39721357131E+02  0.57560832076E+02  0.12697503874E+03  0.14503718856E+03  0.47000000000E+01 0.  1.
         15    1    4    4    0    0 -0.21562648011E+02 -0.93677700610E+01  0.40254235059E+02  0.46650445596E+02  0.17770000000E+01 0. -1.
        -16    1    4    4    0    0 -0.93424894180E+02 -0.88329502927E+01 -0.22199709563E+02  0.96431628463E+02  0.00000000000E+00 0.  1.
<mgrwt>
<rscale>  2 0.24552732E+03</rscale>
<asrwt>0</asrwt>
<pdfrwt beam="1">  1       21 0.81857177E-01 0.24895609E+03</pdfrwt>
<pdfrwt beam="2">  1       21 0.17769181E-01 0.24895609E+03</pdfrwt>
<totfact> 0.36520451E+04</totfact>
</mgrwt>
</event>
<event>
12    2  0.4090627E-002  0.1770355E+03  0.7546771E-02  0.1170750E+00
         21   -1    0    0  501  502  0.00000000000E+00  0.00000000000E+00  0.65389086842E+02  0.65389086842E+02  0.00000000000E+00 0.  1.
         21   -1    0    0  502  503 -0.00000000000E+00 -0.00000000000E+00 -0.59011262056E+03  0.59011262056E+03  0.00000000000E+00 0.  1.
         -6    2    1    2    0  503  0.33627681815E+02 -0.27667418009E+01 -0.40482516151E+03  0.44184272484E+03  0.17379040899E+03 0.  0.
        -24    2    3    3    0    0  0.11499800568E+02 -0.57077315498E+02 -0.16064669990E+03  0.19067645987E+03  0.84617284299E+02 0.  0.
          6    2    1    2  501    0 -0.33627681815E+02  0.27667418009E+01 -0.11989837221E+03  0.21365898257E+03  0.17359742316E+03 0.  0.
         24    2    5    5    0    0  0.13032763959E+02 -0.53539527616E+02 -0.40418753820E+02  0.10555397383E+03  0.80446452850E+02 0.  0.
          5    1    5    5  501    0 -0.46660445774E+02  0.56306269417E+02 -0.79479618391E+02  0.10810500874E+03  0.47000000000E+01 0. -1.
        -15    1    6    6    0    0 -0.99891315326E+01 -0.46515328092E+02  0.10926714811E+02  0.48846794386E+02  0.17770000000E+01 0.  1.
         16    1    6    6    0    0  0.23021895491E+02 -0.70241995244E+01 -0.51345468631E+02  0.56707179439E+02  0.00000000000E+00 0. -1.
         -5    1    3    3    0  503  0.22127881248E+02  0.54310573697E+02 -0.24417846161E+03  0.25116626497E+03  0.47000000000E+01 0.  1.
         15    1    4    4    0    0  0.36951704925E+02 -0.58011317075E+02 -0.77109528866E+02  0.10334301416E+03  0.17770000000E+01 0. -1.
        -16    1    4    4    0    0 -0.25451904358E+02  0.93400157757E+00 -0.83537171033E+02  0.87333445704E+02  0.00000000000E+00 0.  1.
<mgrwt>
<rscale>  2 0.17698816E+03</rscale>
<asrwt>0</asrwt>
<pdfrwt beam="1">  1       21 0.10059860E-01 0.17703554E+03</pdfrwt>
<pdfrwt beam="2">  1       21 0.90786557E-01 0.17703554E+03</pdfrwt>
<totfact> 0.83227074E+04</totfact>
</mgrwt>
</event>
<event>
12    2  0.4090627E-002  0.2555658E+03  0.7546771E-02  0.1110341E+00
         21   -1    0    0  501  502  0.00000000000E+00  0.00000000000E+00  0.26510897064E+03  0.26510897064E+03  0.00000000000E+00 0.  1.
         21   -1    0    0  502  503 -0.00000000000E+00 -0.00000000000E+00 -0.86590114200E+03  0.86590114200E+03  0.00000000000E+00 0.  1.
         -6    2    1    2    0  503 -0.13556496877E+03 -0.12367304952E+03 -0.77939789574E+03  0.81921869481E+03  0.17316265791E+03 0.  0.
        -24    2    3    3    0    0 -0.50978574250E+01 -0.53152575323E+02 -0.42103862754E+03  0.43135498223E+03  0.77087031347E+02 0.  0.
          6    2    1    2  501    0  0.13556496877E+03  0.12367304952E+03  0.17860572438E+03  0.31179141784E+03  0.17787917112E+03 0.  0.
         24    2    5    5    0    0  0.15735841343E+02  0.32250116154E+02  0.12140557765E+03  0.15051178703E+03  0.81405141469E+02 0.  0.
          5    1    5    5  501    0  0.11982912743E+03  0.91422933371E+02  0.57200146734E+02  0.16127963081E+03  0.47000000000E+01 0. -1.
        -15    1    6    6    0    0 -0.32810176601E+02  0.48418051913E+01  0.44905735708E+02  0.55853680224E+02  0.17770000000E+01 0.  1.
         16    1    6    6    0    0  0.48546017944E+02  0.27408310962E+02  0.76499841940E+02  0.94658106810E+02  0.00000000000E+00 0. -1.
         -5    1    3    3    0  503 -0.13046711135E+03 -0.70520474202E+02 -0.35835926820E+03  0.38786371257E+03  0.47000000000E+01 0.  1.
         15    1    4    4    0    0 -0.30719757833E+02  0.12888350068E+01 -0.19629309319E+03  0.19869449106E+03  0.17770000000E+01 0. -1.
        -16    1    4    4    0    0  0.25621900408E+02 -0.54441410330E+02 -0.22474553435E+03  0.23266049117E+03  0.00000000000E+00 0.  1.
<mgrwt>
<rscale>  2 0.25474687E+03</rscale>
<asrwt>0</asrwt>
<pdfrwt beam="1">  1       21 0.40785995E-01 0.25556581E+03</pdfrwt>
<pdfrwt beam="2">  1       21 0.13321556E+00 0.25556581E+03</pdfrwt>
<totfact> 0.22353388E+03</totfact>
</mgrwt>
</event>
<event>
11    2  0.4090627E-002  0.1829651E+03  0.7546771E-02  0.1165462E+00
         21   -1    0    0  503  502  0.00000000000E+00  0.00000000000E+00  0.65706777348E+03  0.65706777348E+03  0.00000000000E+00 0. -1.
         21   -1    0    0  501  503 -0.00000000000E+00 -0.00000000000E+00 -0.58368559932E+02  0.58368559932E+02  0.00000000000E+00 0. -1.
          6    2    1    2  501    0  0.43888512727E+02 -0.30092381826E+02  0.16542009677E+03  0.24510982088E+03  0.17286776126E+03 0.  0.
         -6    2    1    2    0  502 -0.43888512727E+02  0.30092381826E+02  0.43327911679E+03  0.47032651254E+03  0.17505565503E+03 0.  0.
        -24    2    4    4    0    0 -0.58211698221E+02 -0.21718167885E+02  0.14479815389E+03  0.17684253911E+03  0.80290084338E+02 0.  0.
          5    1    3    3  501    0 -0.36252493024E+02 -0.44230031794E+02 -0.17792956339E+01  0.57409013716E+02  0.47000000000E+01 0. -1.
        -15    1    3    3    0    0  0.38062693170E+02 -0.49341136649E+01  0.64276287306E+02  0.74884664170E+02  0.17770000000E+01 0.  1.
         16    1    3    3    0    0  0.42078312581E+02  0.19071763632E+02  0.10292310509E+03  0.11281614299E+03  0.00000000000E+00 0. -1.
         -5    1    4    4    0  502  0.14323185494E+02  0.51810549711E+02  0.28848096290E+03  0.29348397343E+03  0.47000000000E+01 0.  1.
         15    1    5    5    0    0 -0.64159910609E+02 -0.24145412407E+02  0.15226348778E+03  0.16699348044E+03  0.17770000000E+01 0. -1.
        -16    1    5    5    0    0  0.59482123879E+01  0.24272445218E+01 -0.74653338907E+01  0.98490586697E+01  0.00000000000E+00 0.  1.
<mgrwt>
<rscale>  2 0.18243981E+03</rscale>
<asrwt>0</asrwt>
<pdfrwt beam="1">  1       21 0.10108734E+00 0.18296512E+03</pdfrwt>
<pdfrwt beam="2">  1       21 0.89797789E-02 0.18296512E+03</pdfrwt>
<totfact> 0.78800587E+04</totfact>
</mgrwt>
</event>
<event>
12    2  0.4090627E-002  0.2194910E+03  0.7546771E-02  0.1134543E+00
         21   -1    0    0  503  502  0.00000000000E+00  0.00000000000E+00  0.23357863034E+03  0.23357863034E+03  0.00000000000E+00 0. -1.
         21   -1    0    0  501  503 -0.00000000000E+00 -0.00000000000E+00 -0.26258597121E+03  0.26258597121E+03  0.00000000000E+00 0.  1.
          6    2    1    2  501    0 -0.13764237463E+03 -0.33116063077E+01 -0.13086451797E+03  0.25554217382E+03  0.17093826519E+03 0.  0.
         24    2    3    3    0    0 -0.62656266341E+02  0.60350171335E+02 -0.51453783466E+02  0.12903567943E+03  0.80216979750E+02 0.  0.
         -6    2    1    2    0  502  0.13764237463E+03  0.33116063077E+01  0.10185717710E+03  0.24062242773E+03  0.16902034839E+03 0.  0.
        -24    2    5    5    0    0  0.51169520236E+02  0.62076974187E+02  0.55365133507E+02  0.12610376931E+03  0.79780900599E+02 0.  0.
          5    1    3    3  501    0 -0.74986108286E+02 -0.63661777643E+02 -0.79410734504E+02  0.12650649439E+03  0.47000000000E+01 0. -1.
        -15    1    4    4    0    0  0.15770595180E+02  0.54433612061E+00 -0.19949698351E+02  0.25498160079E+02  0.17770000000E+01 0.  1.
         16    1    4    4    0    0 -0.78426861521E+02  0.59805835214E+02 -0.31504085115E+02  0.10353751935E+03  0.00000000000E+00 0. -1.
         -5    1    5    5    0  502  0.86472854391E+02 -0.58765367879E+02  0.46492043597E+02  0.11451865842E+03  0.47000000000E+01 0.  1.
         15    1    6    6    0    0  0.48454783264E+02  0.24900845108E+01  0.43707359886E+02  0.65326545747E+02  0.17770000000E+01 0. -1.
        -16    1    6    6    0    0  0.27147369711E+01  0.59586889676E+02  0.11657773621E+02  0.60777223562E+02  0.00000000000E+00 0.  1.
<mgrwt>
<rscale>  2 0.21911742E+03</rscale>
<asrwt>0</asrwt>
<pdfrwt beam="1">  1       21 0.35935174E-01 0.21949096E+03</pdfrwt>
<pdfrwt beam="2">  1       21 0.40397841E-01 0.21949096E+03</pdfrwt>
<totfact> 0.43513385E+04</totfact>
</mgrwt>
</event>
<event>
12    2  0.4090627E-002  0.2195793E+03  0.7546771E-02  0.1134224E+00
         21   -1    0    0  501  502  0.00000000000E+00  0.00000000000E+00  0.59676694604E+03  0.59676694604E+03  0.00000000000E+00 0.  1.
         21   -1    0    0  502  503 -0.00000000000E+00 -0.00000000000E+00 -0.80869608220E+02  0.80869608220E+02  0.00000000000E+00 0.  1.
         -6    2    1    2    0  503  0.11264403343E+03 -0.71317055678E+02  0.24446718902E+03  0.32860201420E+03  0.17447142039E+03 0.  0.
        -24    2    3    3    0    0  0.13328097518E+03 -0.69080368408E+02  0.25291631679E+03  0.30570302089E+03  0.83377203338E+02 0.  0.
          6    2    1    2  501    0 -0.11264403343E+03  0.71317055678E+02  0.27143014880E+03  0.34903454006E+03  0.17428707289E+03 0.  0.
         24    2    5    5    0    0 -0.12395317545E+03  0.11283063744E+02  0.23361145055E+03  0.27703231219E+03  0.81736741655E+02 0.  0.
          5    1    5    5  501    0  0.11309142026E+02  0.60033991933E+02  0.37818698255E+02  0.72002227872E+02  0.47000000000E+01 0. -1.
        -15    1    6    6    0    0 -0.98947126264E+02  0.43461754849E+02  0.16592476883E+03  0.19802435348E+03  0.17770000000E+01 0.  1.
         16    1    6    6    0    0 -0.25006049190E+02 -0.32178691105E+02  0.67686681722E+02  0.79007958712E+02  0.00000000000E+00 0. -1.
         -5    1    3    3    0  503 -0.20636941754E+02 -0.22366872697E+01 -0.84491277681E+01  0.22898993317E+02  0.47000000000E+01 0.  1.
         15    1    4    4    0    0  0.83190573991E+01  0.14243123633E+02  0.80406037575E+01  0.18435897717E+02  0.17770000000E+01 0. -1.
        -16    1    4    4    0    0  0.12496191778E+03 -0.83323492041E+02  0.24487571303E+03  0.28726712317E+03  0.00000000000E+00 0.  1.
<mgrwt>
<rscale>  2 0.21954270E+03</rscale>
<asrwt>0</asrwt>
<pdfrwt beam="1">  1       21 0.91810297E-01 0.21957932E+03</pdfrwt>
<pdfrwt beam="2">  1       21 0.12441479E-01 0.21957932E+03</pdfrwt>
<totfact> 0.54464746E+04</totfact>
</mgrwt>
</event>
<event>
12    2  0.4090627E-002  0.2104177E+03  0.7546771E-02  0.1141498E+00
         21   -1    0    0  501  502  0.00000000000E+00  0.00000000000E+00  0.11149427418E+04  0.11149427418E+04  0.00000000000E+00 0. -1.
         21   -1    0    0  502  503 -0.00000000000E+00 -0.00000000000E+00 -0.14260285751E+03  0.14260285751E+03  0.00000000000E+00 0. -1.
         -6    2    1    2    0  503  0.87091068801E+02  0.78815710371E+02 -0.48148640287E+02  0.21585619710E+03  0.17458188852E+03 0.  0.
        -24    2    3    3    0    0  0.11277690630E+03  0.41826263734E+02  0.62293592036E+01  0.14509576862E+03  0.80906799608E+02 0.  0.
          6    2    1    2  501    0 -0.87091068801E+02 -0.78815710371E+02  0.10204885246E+04  0.10416894023E+04  0.17298326922E+03 0.  0.
         24    2    5    5    0    0 -0.96281937299E+02 -0.10426779532E+02  0.81946080897E+03  0.82909648049E+03  0.80659948848E+02 0.  0.
          5    1    5    5  501    0  0.91908684981E+01 -0.68388930839E+02  0.20102771564E+03  0.21259292176E+03  0.47000000000E+01 0. -1.
        -15    1    6    6    0    0 -0.73401674075E+01 -0.19439750792E+02  0.38337239951E+03  0.38393923530E+03  0.17770000000E+01 0.  1.
         16    1    6    6    0    0 -0.88941769892E+02  0.90129712599E+01  0.43608840946E+03  0.44515724519E+03  0.00000000000E+00 0. -1.
         -5    1    3    3    0  503 -0.25685837499E+02  0.36989446637E+02 -0.54377999490E+02  0.70760428483E+02  0.47000000000E+01 0.  1.
         15    1    4    4    0    0  0.89564798485E+02  0.56832879981E+02 -0.18876020904E+02  0.10775570179E+03  0.17770000000E+01 0. -1.
        -16    1    4    4    0    0  0.23212107815E+02 -0.15006616247E+02  0.25105380107E+02  0.37340066828E+02  0.00000000000E+00 0.  1.
<mgrwt>
<rscale>  2 0.21008580E+03</rscale>
<asrwt>0</asrwt>
<pdfrwt beam="1">  1       21 0.17152965E+00 0.21041769E+03</pdfrwt>
<pdfrwt beam="2">  1       21 0.21938902E-01 0.21041769E+03</pdfrwt>
<totfact> 0.39766648E+03</totfact>
</mgrwt>
</event>
<event>
12    2  0.4090627E-002  0.2201687E+03  0.7546771E-02  0.1133852E+00
         21   -1    0    0  501  502  0.00000000000E+00  0.00000000000E+00  0.20214339571E+03  0.20214339571E+03  0.00000000000E+00 0. -1.
         21   -1    0    0  502  503 -0.00000000000E+00 -0.00000000000E+00 -0.53048544586E+03  0.53048544586E+03  0.00000000000E+00 0.  1.
         -6    2    1    2    0  503  0.11884674959E+03  0.68271031401E+02 -0.43567519429E+03  0.48814664213E+03  0.17230434032E+03 0.  0.
        -24    2    3    3    0    0  0.12174136317E+03  0.73572364880E+02 -0.44607136574E+03  0.47523721514E+03  0.81467140273E+02 0.  0.
          6    2    1    2  501    0 -0.11884674959E+03 -0.68271031401E+02  0.10733314414E+03  0.24448219944E+03  0.17165563899E+03 0.  0.
         24    2    5    5    0    0 -0.77514779706E+02 -0.85960840524E+02  0.13103782609E+03  0.19344042217E+03  0.82767613748E+02 0.  0.
          5    1    5    5  501    0 -0.41331969880E+02  0.17689809123E+02 -0.23704681948E+02  0.51041777274E+02  0.47000000000E+01 0. -1.
        -15    1    6    6    0    0 -0.42536088894E+02 -0.16742002775E+02  0.57714702757E+01  0.46109447117E+02  0.17770000000E+01 0.  1.
         16    1    6    6    0    0 -0.34978690812E+02 -0.69218837749E+02  0.12526635581E+03  0.14733097505E+03  0.00000000000E+00 0. -1.
         -5    1    3    3    0  503 -0.28946135844E+01 -0.53013334789E+01  0.10396171449E+02  0.12909426992E+02  0.47000000000E+01 0.  1.
         15    1    4    4    0    0  0.24551708251E+02  0.94907632867E+01 -0.18812287396E+02  0.32402482187E+02  0.17770000000E+01 0.  1.
        -16    1    4    4    0    0  0.97189654919E+02  0.64081601593E+02 -0.42725907834E+03  0.44283473295E+03  0.00000000000E+00 0.  1.
<mgrwt>
<rscale>  2 0.22004179E+03</rscale>
<asrwt>0</asrwt>
<pdfrwt beam="1">  1       21 0.31098984E-01 0.22016873E+03</pdfrwt>
<pdfrwt beam="2">  1       21 0.81613145E-01 0.22016873E+03</pdfrwt>
<totfact> 0.12828836E+04</totfact>
</mgrwt>
</event>
<event>
12    2  0.4090627E-002  0.2836018E+03  0.7546771E-02  0.1093980E+00
         21   -1    0    0  503  502  0.00000000000E+00  0.00000000000E+00  0.66354327400E+02  0.66354327400E+02  0.00000000000E+00 0.  1.
         21   -1    0    0  501  503 -0.00000000000E+00 -0.00000000000E+00 -0.22233271755E+04  0.22233271755E+04  0.00000000000E+00 0. -1.
          6    2    1    2  501    0  0.21689415981E+03  0.55666321910E+02 -0.18516259079E+04  0.18729481220E+04  0.17109748413E+03 0.  0.
         24    2    3    3    0    0  0.76815973429E+02  0.38241975085E+01 -0.91705762912E+03  0.92650770560E+03  0.10726842568E+03 0.  0.
         -6    2    1    2    0  502 -0.21689415981E+03 -0.55666321910E+02 -0.30534694020E+03  0.41673338086E+03  0.17403488410E+03 0.  0.
        -24    2    5    5    0    0 -0.18131019372E+03  0.15424613165E+02 -0.25052321029E+03  0.32004899198E+03  0.80982549588E+02 0.  0.
          5    1    3    3  501    0  0.14007818638E+03  0.51842124402E+02 -0.93456827877E+03  0.94644041642E+03  0.47000000000E+01 0. -1.
        -15    1    4    4    0    0  0.75531013699E+02 -0.40823001410E+02 -0.53504819384E+03  0.54189591153E+03  0.17770000000E+01 0.  1.
         16    1    4    4    0    0  0.12849597301E+01  0.44647198919E+02 -0.38200943528E+03  0.38461179407E+03  0.00000000000E+00 0. -1.
         -5    1    5    5    0  502 -0.35583966091E+02 -0.71090935075E+02 -0.54823729914E+02  0.96684388886E+02  0.47000000000E+01 0.  1.
         15    1    6    6    0    0 -0.47520201104E+02  0.40878831536E+02 -0.86899869267E+02  0.10716339575E+03  0.17770000000E+01 0. -1.
        -16    1    6    6    0    0 -0.13378999261E+03 -0.25454218370E+02 -0.16362334102E+03  0.21288559623E+03  0.00000000000E+00 0.  1.
<mgrwt>
<rscale>  2 0.28315244E+03</rscale>
<asrwt>0</asrwt>
<pdfrwt beam="1">  1       21 0.10208359E-01 0.28360176E+03</pdfrwt>
<pdfrwt beam="2">  1       21 0.34205031E+00 0.28360176E+03</pdfrwt>
<totfact> 0.13725667E+03</totfact>
</mgrwt>
</event>
<event>
12    2  0.4090627E-002  0.2079239E+03  0.7546771E-02  0.1143287E+00
         21   -1    0    0  501  502  0.00000000000E+00  0.00000000000E+00  0.11608622450E+03  0.11608622450E+03  0.00000000000E+00 0. -1.
         21   -1    0    0  502  503 -0.00000000000E+00 -0.00000000000E+00 -0.38277101122E+03  0.38277101122E+03  0.00000000000E+00 0. -1.
         -6    2    1    2    0  503 -0.26793881500E+02  0.11147506521E+03 -0.17542669570E+03  0.27178808467E+03  0.17305962889E+03 0.  0.
        -24    2    3    3    0    0  0.37786309610E+02  0.10943993540E+03 -0.13644892014E+03  0.19618319180E+03  0.80402937031E+02 0.  0.
          6    2    1    2  501    0  0.26793881500E+02 -0.11147506521E+03 -0.91258091008E+02  0.22706915105E+03  0.17345823110E+03 0.  0.
         24    2    5    5    0    0 -0.12369412281E+02 -0.12991280466E+03 -0.37483838918E+02  0.15787757640E+03  0.80560236928E+02 0.  0.
          5    1    5    5  501    0  0.39163293781E+02  0.18437739445E+02 -0.53774252090E+02  0.69191574657E+02  0.47000000000E+01 0. -1.
        -15    1    6    6    0    0 -0.18020155314E+02 -0.31535197868E+02  0.22264690728E+02  0.42638818984E+02  0.17770000000E+01 0.  1.
         16    1    6    6    0    0  0.56507430338E+01 -0.98377606792E+02 -0.59748529646E+02  0.11523875741E+03  0.00000000000E+00 0. -1.
         -5    1    3    3    0  503 -0.64580191111E+02  0.20351298100E+01 -0.38977775563E+02  0.75604892865E+02  0.47000000000E+01 0.  1.
         15    1    4    4    0    0  0.77793694248E+01  0.11046271842E+03 -0.10313300057E+03  0.15133441210E+03  0.17770000000E+01 0. -1.
        -16    1    4    4    0    0  0.30006940186E+02 -0.10227830133E+01 -0.33315919565E+02  0.44848779703E+02  0.00000000000E+00 0.  1.
<mgrwt>
<rscale>  2 0.20784078E+03</rscale>
<asrwt>0</asrwt>
<pdfrwt beam="1">  1       21 0.17859419E-01 0.20792393E+03</pdfrwt>
<pdfrwt beam="2">  1       21 0.58887847E-01 0.20792393E+03</pdfrwt>
<totfact> 0.76320642E+04</totfact>
</mgrwt>
</event>
<event>
12    2  0.4090627E-002  0.1878444E+03  0.7546771E-02  0.1160540E+00
         21   -1    0    0  503  502  0.00000000000E+00  0.00000000000E+00  0.12218737363E+04  0.12218737363E+04  0.00000000000E+00 0.  1.
         21   -1    0    0  501  503 -0.00000000000E+00 -0.00000000000E+00 -0.48961522569E+02  0.48961522569E+02  0.00000000000E+00 0.  1.
          6    2    1    2  501    0 -0.47078216777E+02 -0.56536763884E+02  0.17916600099E+03  0.25958809026E+03  0.17283737017E+03 0.  0.
         24    2    3    3    0    0 -0.79350178584E+02 -0.88038326834E+02  0.11389747956E+03  0.18011546681E+03  0.73632517971E+02 0.  0.
         -6    2    1    2    0  502  0.47078216777E+02  0.56536763884E+02  0.99374621274E+03  0.10112471686E+04  0.17226879150E+03 0.  0.
        -24    2    5    5    0    0 -0.21406541768E+02  0.42990587189E+02  0.30663867005E+03  0.32058623424E+03  0.80261005426E+02 0.  0.
          5    1    3    3  501    0  0.32271961807E+02  0.31501562950E+02  0.65268521431E+02  0.79472623443E+02  0.47000000000E+01 0. -1.
        -15    1    4    4    0    0 -0.75102179638E+02 -0.48810906016E+02  0.10783754586E+03  0.14019606257E+03  0.17770000000E+01 0.  1.
         16    1    4    4    0    0 -0.42479989453E+01 -0.39227420818E+02  0.60599336971E+01  0.39919404248E+02  0.00000000000E+00 0. -1.
         -5    1    5    5    0  502  0.68484758545E+02  0.13546176695E+02  0.68710754269E+03  0.69066093437E+03  0.47000000000E+01 0.  1.
         15    1    6    6    0    0 -0.94166702160E+01 -0.23022328389E+02  0.59785550809E+02  0.64777859619E+02  0.17770000000E+01 0. -1.
        -16    1    6    6    0    0 -0.11989871552E+02  0.66012915578E+02  0.24685311925E+03  0.25580837462E+03  0.00000000000E+00 0.  1.
<mgrwt>
<rscale>  2 0.18771351E+03</rscale>
<asrwt>0</asrwt>
<pdfrwt beam="1">  1       21 0.18798055E+00 0.18784441E+03</pdfrwt>
<pdfrwt beam="2">  1       21 0.75325428E-02 0.18784441E+03</pdfrwt>
<totfact> 0.21504663E+04</totfact>
</mgrwt>
</event>
<event>
12    2  0.4090627E-002  0.3423284E+03  0.7546771E-02  0.1065918E+00
         21   -1    0    0  501  502  0.00000000000E+00  0.00000000000E+00  0.39615663097E+03  0.39615663097E+03  0.00000000000E+00 0.  1.
         21   -1    0    0  502  503 -0.00000000000E+00 -0.00000000000E+00 -0.29705095794E+03  0.29705095794E+03  0.00000000000E+00 0.  1.
         -6    2    1    2    0  503 -0.29005459629E+03 -0.49984851547E+02  0.20105898922E+02  0.34188198448E+03  0.17276831285E+03 0.  0.
        -24    2    3    3    0    0 -0.11061370348E+03  0.37140612237E+02  0.10752366706E+02  0.14213349508E+03  0.80445637285E+02 0.  0.
          6    2    1    2  501    0  0.29005459629E+03  0.49984851547E+02  0.78999774103E+02  0.35132560443E+03  0.17481007353E+03 0.  0.
         24    2    5    5    0    0  0.16151162133E+03 -0.38605292472E+02  0.19322255813E+02  0.18412809781E+03  0.77158501826E+02 0.  0.
          5    1    5    5  501    0  0.12854297496E+03  0.88590144019E+02  0.59677518291E+02  0.16719750662E+03  0.47000000000E+01 0. -1.
        -15    1    6    6    0    0  0.11496682235E+03 -0.10021606180E+01  0.38554937062E+02  0.12127660726E+03  0.17770000000E+01 0.  1.
         16    1    6    6    0    0  0.46544798979E+02 -0.37603131854E+02 -0.19232681249E+02  0.62851490557E+02  0.00000000000E+00 0. -1.
         -5    1    3    3    0  503 -0.17944089281E+03 -0.87125463785E+02  0.93535322160E+01  0.19974848940E+03  0.47000000000E+01 0.  1.
         15    1    4    4    0    0  0.11888098185E+02  0.11263913222E+02  0.24413886038E+01  0.16652949494E+02  0.17770000000E+01 0. -1.
        -16    1    4    4    0    0 -0.12250180166E+03  0.25876699015E+02  0.83109781026E+01  0.12548054558E+03  0.00000000000E+00 0.  1.
<mgrwt>
<rscale>  2 0.34206855E+03</rscale>
<asrwt>0</asrwt>
<pdfrwt beam="1">  1       21 0.60947174E-01 0.34232837E+03</pdfrwt>
<pdfrwt beam="2">  1       21 0.45700147E-01 0.34232837E+03</pdfrwt>
<totfact> 0.10647430E+04</totfact>
</mgrwt>
</event>
<event>
12    2  0.4090627E-002  0.2270510E+03  0.7546771E-02  0.1129118E+00
         21   -1    0    0  503  502  0.00000000000E+00  0.00000000000E+00  0.43835011745E+03  0.43835011745E+03  0.00000000000E+00 0.  1.
         21   -1    0    0  501  503 -0.00000000000E+00 -0.00000000000E+00 -0.20720321803E+03  0.20720321803E+03  0.00000000000E+00 0.  1.
          6    2    1    2  501    0 -0.11658067186E+03  0.82351646254E+02 -0.98293097649E+02  0.24544977917E+03  0.17381373466E+03 0.  0.
         24    2    3    3    0    0 -0.89932227262E+02  0.10510894473E+03 -0.12241972904E+03  0.20264535678E+03  0.83323794952E+02 0.  0.
         -6    2    1    2    0  502  0.11658067186E+03 -0.82351646254E+02  0.32943999707E+03  0.40010355630E+03  0.17657660492E+03 0.  0.
        -24    2    5    5    0    0  0.85261865919E+02  0.35747853531E+01  0.96721735272E+02  0.15001537460E+03  0.76597347683E+02 0.  0.
          5    1    3    3  501    0 -0.26648444599E+02 -0.22757298479E+02  0.24126631389E+02  0.42804422386E+02  0.47000000000E+01 0. -1.
        -15    1    4    4    0    0 -0.35530700760E+02  0.10208512809E+02 -0.74571224938E+02  0.83250644130E+02  0.17770000000E+01 0.  1.
         16    1    4    4    0    0 -0.54401526502E+02  0.94900431924E+02 -0.47848504100E+02  0.11939471265E+03  0.00000000000E+00 0. -1.
         -5    1    5    5    0  502  0.31318805942E+02 -0.85926431607E+02  0.23271826180E+03  0.25008818170E+03  0.47000000000E+01 0.  1.
         15    1    6    6    0    0  0.66296839592E+02  0.48107349079E+01  0.10878993317E+03  0.12750224076E+03  0.17770000000E+01 0. -1.
        -16    1    6    6    0    0  0.18965026327E+02 -0.12359495548E+01 -0.12068197898E+02  0.22513133842E+02  0.00000000000E+00 0.  1.
<mgrwt>
<rscale>  2 0.22651358E+03</rscale>
<asrwt>0</asrwt>
<pdfrwt beam="1">  1       21 0.67438480E-01 0.22705097E+03</pdfrwt>
<pdfrwt beam="2">  1       21 0.31877418E-01 0.22705097E+03</pdfrwt>
<totfact> 0.18652419E+04</totfact>
</mgrwt>
</event>
<event>
12    2  0.4090627E-002  0.2340308E+03  0.7546771E-02  0.1124284E+00
         21   -1    0    0  501  502  0.00000000000E+00  0.00000000000E+00  0.73166521736E+02  0.73166521736E+02  0.00000000000E+00 0. -1.
         21   -1    0    0  502  503 -0.00000000000E+00 -0.00000000000E+00 -0.83003292092E+03  0.83003292092E+03  0.00000000000E+00 0. -1.
         -6    2    1    2    0  503 -0.15290536373E+03  0.14235428428E+00 -0.52881503788E+03  0.57828692103E+03  0.17717321533E+03 0.  0.
        -24    2    3    3    0    0 -0.17626119663E+03 -0.52413408117E+01 -0.36926167105E+03  0.41687488316E+03  0.79592747251E+02 0.  0.
          6    2    1    2  501    0  0.15290536373E+03 -0.14235428428E+00 -0.22805136130E+03  0.32491252162E+03  0.17372579771E+03 0.  0.
         24    2    5    5    0    0  0.90625458611E+02  0.21079327211E+01 -0.23283412007E+03  0.26223226034E+03  0.79602850229E+02 0.  0.
          5    1    5    5  501    0  0.62279905119E+02 -0.22502870054E+01  0.47827587643E+01  0.62680261284E+02  0.47000000000E+01 0. -1.
        -15    1    6    6    0    0  0.97343214379E+02 -0.14642455328E+02 -0.16596510645E+03  0.19297066402E+03  0.17770000000E+01 0.  1.
         16    1    6    6    0    0 -0.67177557682E+01  0.16750388049E+02 -0.66869013617E+02  0.69261596318E+02  0.00000000000E+00 0. -1.
         -5    1    3    3    0  503  0.23355832900E+02  0.53836950960E+01 -0.15955336683E+03  0.16141203787E+03  0.47000000000E+01 0.  1.
         15    1    4    4    0    0 -0.68741333462E+02  0.31620953571E+02 -0.19111484590E+03  0.20555606944E+03  0.17770000000E+01 0. -1.
        -16    1    4    4    0    0 -0.10751986317E+03 -0.36862294383E+02 -0.17814682515E+03  0.21131881373E+03  0.00000000000E+00 0.  1.
<mgrwt>
<rscale>  2 0.23337836E+03</rscale>
<asrwt>0</asrwt>
<pdfrwt beam="1">  1       21 0.11256388E-01 0.23403081E+03</pdfrwt>
<pdfrwt beam="2">  1       21 0.12769737E+00 0.23403081E+03</pdfrwt>
<totfact> 0.29051557E+04</totfact>
</mgrwt>
</event>
<event>
12    2  0.4090627E-002  0.1782089E+03  0.7546771E-02  0.1169647E+00
         21   -1    0    0  501  502  0.00000000000E+00  0.00000000000E+00  0.59924438048E+02  0.59924438048E+02  0.00000000000E+00 0.  1.
         21   -1    0    0  502  503 -0.00000000000E+00 -0.00000000000E+00 -0.79716062075E+03  0.79716062075E+03  0.00000000000E+00 0.  1.
         -6    2    1    2    0  503  0.23740186122E+02  0.32891628660E+02 -0.61755326207E+03  0.64275225144E+03  0.17353088938E+03 0.  0.
        -24    2    3    3    0    0 -0.38072896599E+02  0.35280185087E+02 -0.22961978116E+03  0.24988963168E+03  0.83817344298E+02 0.  0.
          6    2    1    2  501    0 -0.23740186122E+02 -0.32891628660E+02 -0.11968292063E+03  0.21433280735E+03  0.17311584314E+03 0.  0.
         24    2    5    5    0    0 -0.28781636319E+02 -0.85430040903E+02 -0.60835769795E+02  0.13514456238E+03  0.80227098761E+02 0.  0.
          5    1    5    5  501    0  0.50414501964E+01  0.52538412243E+02 -0.58847150836E+02  0.79188244978E+02  0.47000000000E+01 0. -1.
        -15    1    6    6    0    0 -0.59412896635E+00  0.83471746834E+01 -0.31914167278E+02  0.33040885528E+02  0.17770000000E+01 0.  1.
         16    1    6    6    0    0 -0.28187507352E+02 -0.93777215587E+02 -0.28921602517E+02  0.10210367685E+03  0.00000000000E+00 0. -1.
         -5    1    3    3    0  503  0.61813082721E+02 -0.23885564273E+01 -0.38793348091E+03  0.39286261976E+03  0.47000000000E+01 0.  1.
         15    1    4    4    0    0 -0.50044805047E+02  0.55709556772E+02 -0.17393306481E+03  0.18937768082E+03  0.17770000000E+01 0. -1.
        -16    1    4    4    0    0  0.11971908448E+02 -0.20429371685E+02 -0.55686716353E+02  0.60511950865E+02  0.00000000000E+00 0.  1.
<mgrwt>
<rscale>  2 0.17810782E+03</rscale>
<asrwt>0</asrwt>
<pdfrwt beam="1">  1       21 0.92191438E-02 0.17820894E+03</pdfrwt>
<pdfrwt beam="2">  1       21 0.12264010E+00 0.17820894E+03</pdfrwt>
<totfact> 0.47209123E+04</totfact>
</mgrwt>
</event>
<event>
12    2  0.4090627E-002  0.1844395E+03  0.7546771E-02  0.1163793E+00
         21   -1    0    0  503  502  0.00000000000E+00  0.00000000000E+00  0.29525697979E+04  0.29525697979E+04  0.00000000000E+00 0.  1.
         21   -1    0    0  501  503 -0.00000000000E+00 -0.00000000000E+00 -0.12457077273E+02  0.12457077273E+02  0.00000000000E+00 0.  1.
          6    2    1    2  501    0  0.11348394643E+02 -0.67850518682E+02  0.10547882433E+04  0.10707923043E+04  0.17112989744E+03 0.  0.
         24    2    3    3    0    0 -0.39040141429E+01 -0.10881038589E+03  0.67142467104E+03  0.68491659214E+03  0.80278938137E+02 0.  0.
         -6    2    1    2    0  502 -0.11348394643E+02  0.67850518682E+02  0.18853244773E+04  0.18942345708E+04  0.17012861529E+03 0.  0.
        -24    2    5    5    0    0 -0.72740474288E+00  0.66855274385E+02  0.18771159048E+04  0.18799774112E+04  0.79251434499E+02 0.  0.
          5    1    3    3  501    0  0.15252408786E+02  0.40959867211E+02  0.38336357230E+03  0.38587571219E+03  0.47000000000E+01 0. -1.
        -15    1    4    4    0    0 -0.41749437474E+02 -0.48823070267E+02  0.33126285949E+03  0.33743880560E+03  0.17770000000E+01 0.  1.
         16    1    4    4    0    0  0.37845423331E+02 -0.59987315626E+02  0.34016181155E+03  0.34747778654E+03  0.00000000000E+00 0. -1.
         -5    1    5    5    0  502 -0.10620989900E+02  0.99524429703E+00  0.82085724959E+01  0.14257159608E+02  0.47000000000E+01 0.  1.
         15    1    6    6    0    0 -0.31958875976E+02  0.29708780931E+02  0.46991039388E+03  0.47193528944E+03  0.17770000000E+01 0. -1.
        -16    1    6    6    0    0  0.31231471234E+02  0.37146493454E+02  0.14072055109E+04  0.14080421218E+04  0.00000000000E+00 0.  1.
<mgrwt>
<rscale>  2 0.18420688E+03</rscale>
<asrwt>0</asrwt>
<pdfrwt beam="1">  1       21 0.45424095E+00 0.18443948E+03</pdfrwt>
<pdfrwt beam="2">  1       21 0.19164758E-02 0.18443948E+03</pdfrwt>
<totfact> 0.52067945E+03</totfact>
</mgrwt>
</event>
<event>
12    2  0.4090627E-002  0.2199577E+03  0.7546771E-02  0.1134426E+00
         21   -1    0    0  501  502  0.00000000000E+00  0.00000000000E+00  0.53874520641E+02  0.53874520641E+02  0.00000000000E+00 0. -1.
         21   -1    0    0  502  503 -0.00000000000E+00 -0.00000000000E+00 -0.10354120956E+04  0.10354120956E+04  0.00000000000E+00 0.  1.
         -6    2    1    2    0  503  0.87937661589E+02  0.97955182674E+02 -0.69961449692E+03  0.73337701200E+03  0.17621903212E+03 0.  0.
        -24    2    3    3    0    0  0.11367151635E+02  0.96366104080E+02 -0.55936129127E+03  0.57350637723E+03  0.81294971549E+02 0.  0.
          6    2    1    2  501    0 -0.87937661589E+02 -0.97955182674E+02 -0.28192307808E+03  0.35590960429E+03  0.17280849033E+03 0.  0.
         24    2    5    5    0    0 -0.17481947285E+02  0.98227868317E+01 -0.15276402106E+03  0.17346988713E+03  0.79704767646E+02 0.  0.
          5    1    5    5  501    0 -0.70455714304E+02 -0.10777796951E+03 -0.12915905701E+03  0.18243971716E+03  0.47000000000E+01 0. -1.
        -15    1    6    6    0    0 -0.28097369120E+02 -0.21582013864E+02 -0.12589676040E+03  0.13079907295E+03  0.17770000000E+01 0.  1.
         16    1    6    6    0    0  0.10615421835E+02  0.31404800696E+02 -0.26867260659E+02  0.42670814180E+02  0.00000000000E+00 0. -1.
         -5    1    3    3    0  503  0.76570509954E+02  0.15890785946E+01 -0.14025320565E+03  0.15987063477E+03  0.47000000000E+01 0.  1.
         15    1    4    4    0    0 -0.96327820034E+01  0.19605147554E+02 -0.24977282255E+02  0.33229123636E+02  0.17770000000E+01 0. -1.
        -16    1    4    4    0    0  0.20999933638E+02  0.76760956526E+02 -0.53438400901E+03  0.54027725359E+03  0.00000000000E+00 0.  1.
<mgrwt>
<rscale>  2 0.21927384E+03</rscale>
<asrwt>0</asrwt>
<pdfrwt beam="1">  1       21 0.82883880E-02 0.21995772E+03</pdfrwt>
<pdfrwt beam="2">  1       21 0.15929416E+00 0.21995772E+03</pdfrwt>
<totfact> 0.28248303E+04</totfact>
</mgrwt>
</event>
<event>
12    2  0.4090627E-002  0.1913296E+03  0.7546771E-02  0.1158378E+00
         21   -1    0    0  503  502  0.00000000000E+00  0.00000000000E+00  0.23523066186E+03  0.23523066186E+03  0.00000000000E+00 0.  1.
         21   -1    0    0  501  503 -0.00000000000E+00 -0.00000000000E+00 -0.15307852127E+03  0.15307852127E+03  0.00000000000E+00 0.  1.
          6    2    1    2  501    0  0.76179403051E+02  0.15814935352E+02  0.22925223435E+02  0.19269814483E+03  0.17479586815E+03 0.  0.
         24    2    3    3    0    0  0.30425257761E+02  0.71848043466E+02  0.37491394844E+02  0.11875617863E+03  0.81299370334E+02 0.  0.
         -6    2    1    2    0  502 -0.76179403051E+02 -0.15814935352E+02  0.59226917157E+02  0.19561103829E+03  0.16941793575E+03 0.  0.
        -24    2    5    5    0    0 -0.46073457403E+02  0.32896213570E+02 -0.17063661683E+02  0.10010456515E+03  0.80776426441E+02 0.  0.
          5    1    3    3  501    0  0.45754145290E+02 -0.56033108113E+02 -0.14566171409E+02  0.73941966201E+02  0.47000000000E+01 0. -1.
        -15    1    4    4    0    0  0.42121685350E+01  0.32022541762E+01 -0.22945259987E+02  0.23614391384E+02  0.17770000000E+01 0.  1.
         16    1    4    4    0    0  0.26213089226E+02  0.68645789289E+02  0.60436654831E+02  0.95141787250E+02  0.00000000000E+00 0. -1.
         -5    1    5    5    0  502 -0.30105945648E+02 -0.48711148922E+02  0.76290578840E+02  0.95506473144E+02  0.47000000000E+01 0.  1.
         15    1    6    6    0    0 -0.55119104801E+02  0.18109776066E+02  0.18182781548E+02  0.60826400329E+02  0.17770000000E+01 0. -1.
        -16    1    6    6    0    0  0.90456473972E+01  0.14786437504E+02 -0.35246443231E+02  0.39278164816E+02  0.00000000000E+00 0.  1.
<mgrwt>
<rscale>  2 0.19009254E+03</rscale>
<asrwt>0</asrwt>
<pdfrwt beam="1">  1       21 0.36189333E-01 0.19132958E+03</pdfrwt>
<pdfrwt beam="2">  1       21 0.23550542E-01 0.19132958E+03</pdfrwt>
<totfact> 0.12502115E+05</totfact>
</mgrwt>
</event>
<event>
12    2  0.4090627E-002  0.3174713E+03  0.7546771E-02  0.1076843E+00
         21   -1    0    0  503  502  0.00000000000E+00  0.00000000000E+00  0.14346043022E+03  0.14346043022E+03  0.00000000000E+00 0.  1.
         21   -1    0    0  501  503 -0.00000000000E+00 -0.00000000000E+00 -0.73501640961E+03  0.73501640961E+03  0.00000000000E+00 0.  1.
          6    2    1    2  501    0 -0.24819582790E+03  0.96784179216E+02 -0.38884178054E+03  0.50198199842E+03  0.17268367068E+03 0.  0.
         24    2    3    3    0    0 -0.20182851199E+03  0.22612286573E+02 -0.33194284781E+03  0.39752638016E+03  0.81210251507E+02 0.  0.
         -6    2    1    2    0  502  0.24819582790E+03 -0.96784179216E+02 -0.20271419886E+03  0.37649484141E+03  0.17229907968E+03 0.  0.
        -24    2    5    5    0    0  0.10819056142E+02 -0.25819991606E+02 -0.49903433392E+02  0.85364513662E+02  0.63348430021E+02 0.  0.
          5    1    3    3  501    0 -0.46367315910E+02  0.74171892643E+02 -0.56898932721E+02  0.10445561827E+03  0.47000000000E+01 0. -1.
        -15    1    4    4    0    0 -0.10688811507E+03  0.23140317838E+02 -0.24699081919E+03  0.27012620374E+03  0.17770000000E+01 0.  1.
         16    1    4    4    0    0 -0.94940396917E+02 -0.52803126507E+00 -0.84952028623E+02  0.12740017642E+03  0.00000000000E+00 0. -1.
         -5    1    5    5    0  502  0.23737677175E+03 -0.70964187610E+02 -0.15281076547E+03  0.29113032775E+03  0.47000000000E+01 0.  1.
         15    1    6    6    0    0 -0.16151682887E+02 -0.34042688015E+02 -0.15246937200E+02  0.40686709013E+02  0.17770000000E+01 0. -1.
        -16    1    6    6    0    0  0.26970739028E+02  0.82226964088E+01 -0.34656496191E+02  0.44677804649E+02  0.00000000000E+00 0.  1.
<mgrwt>
<rscale>  2 0.31741898E+03</rscale>
<asrwt>0</asrwt>
<pdfrwt beam="1">  1       21 0.22070835E-01 0.31747125E+03</pdfrwt>
<pdfrwt beam="2">  1       21 0.11307945E+00 0.31747125E+03</pdfrwt>
<totfact> 0.10931377E+04</totfact>
</mgrwt>
</event>
<event>
12    2  0.4090627E-002  0.2137499E+03  0.7546771E-02  0.1139004E+00
         21   -1    0    0  501  502  0.00000000000E+00  0.00000000000E+00  0.33410904888E+03  0.33410904888E+03  0.00000000000E+00 0. -1.
         21   -1    0    0  502  503 -0.00000000000E+00 -0.00000000000E+00 -0.31037720039E+03  0.31037720039E+03  0.00000000000E+00 0.  1.
         -6    2    1    2    0  503  0.61278759180E+02  0.10895648384E+03 -0.23002393515E+03  0.31270163016E+03  0.17101080980E+03 0.  0.
        -24    2    3    3    0    0  0.26939596382E+02  0.13968696195E+03 -0.19616104950E+03  0.25532284130E+03  0.80451269465E+02 0.  0.
          6    2    1    2  501    0 -0.61278759180E+02 -0.10895648384E+03  0.25375578365E+03  0.33178461910E+03  0.17338521864E+03 0.  0.
         24    2    5    5    0    0 -0.45806314036E+02 -0.21194272859E+02  0.21648484414E+03  0.23507466529E+03  0.76465645316E+02 0.  0.
          5    1    5    5  501    0 -0.15472445144E+02 -0.87762210977E+02  0.37270939507E+02  0.96709953811E+02  0.47000000000E+01 0. -1.
        -15    1    6    6    0    0 -0.64771437223E+01 -0.23527369493E+02  0.17909526765E+03  0.18075885353E+03  0.17770000000E+01 0.  1.
         16    1    6    6    0    0 -0.39329170314E+02  0.23330966341E+01  0.37389576488E+02  0.54315811763E+02  0.00000000000E+00 0. -1.
         -5    1    3    3    0  503  0.34339162798E+02 -0.30730478111E+02 -0.33862885647E+02  0.57378788859E+02  0.47000000000E+01 0.  1.
         15    1    4    4    0    0  0.78429667558E+01  0.33343374423E+02 -0.35566677091E+01  0.34483334520E+02  0.17770000000E+01 0. -1.
        -16    1    4    4    0    0  0.19096629626E+02  0.10634358752E+03 -0.19260438179E+03  0.22083950678E+03  0.00000000000E+00 0.  1.
<mgrwt>
<rscale>  2 0.21326794E+03</rscale>
<asrwt>0</asrwt>
<pdfrwt beam="1">  1       21 0.51401392E-01 0.21374994E+03</pdfrwt>
<pdfrwt beam="2">  1       21 0.47750339E-01 0.21374994E+03</pdfrwt>
<totfact> 0.14882483E+04</totfact>
</mgrwt>
</event>
<event>
12    2  0.4090627E-002  0.1800946E+03  0.7546771E-02  0.1168083E+00
         21   -1    0    0  501  502  0.00000000000E+00  0.00000000000E+00  0.71304298924E+03  0.71304298924E+03  0.00000000000E+00 0. -1.
         21   -1    0    0  502  503 -0.00000000000E+00 -0.00000000000E+00 -0.50308839925E+02  0.50308839925E+02  0.00000000000E+00 0. -1.
         -6    2    1    2    0  503 -0.16023562857E+02  0.39546414595E+02  0.20730534141E+03  0.27360753612E+03  0.17339234634E+03 0.  0.
        -24    2    3    3    0    0  0.33817837839E+01  0.88933570952E+02  0.17488712700E+03  0.21124817982E+03  0.78228318315E+02 0.  0.
          6    2    1    2  501    0  0.16023562857E+02 -0.39546414595E+02  0.45542880791E+03  0.48974429305E+03  0.17496685409E+03 0.  0.
         24    2    5    5    0    0 -0.28315203900E+02 -0.81766763001E+02  0.25566931589E+03  0.28076001444E+03  0.77277631398E+02 0.  0.
          5    1    5    5  501    0  0.44338766756E+02  0.42220348407E+02  0.19975949202E+03  0.20898427861E+03  0.47000000000E+01 0. -1.
        -15    1    6    6    0    0 -0.32919975847E+02 -0.21008726153E+02  0.37240688188E+02  0.53991832439E+02  0.17770000000E+01 0.  1.
         16    1    6    6    0    0  0.46047719474E+01 -0.60758036848E+02  0.21842862770E+03  0.22676818200E+03  0.00000000000E+00 0. -1.
         -5    1    3    3    0  503 -0.19405346641E+02 -0.49387156358E+02  0.32418214414E+02  0.62359356292E+02  0.47000000000E+01 0.  1.
         15    1    4    4    0    0 -0.10505517091E+02 -0.50005079841E+01 -0.52788594465E+00  0.11781653620E+02  0.17770000000E+01 0. -1.
        -16    1    4    4    0    0  0.13887300875E+02  0.93934078937E+02  0.17541501294E+03  0.19946652620E+03  0.00000000000E+00 0.  1.
<mgrwt>
<rscale>  2 0.17971108E+03</rscale>
<asrwt>0</asrwt>
<pdfrwt beam="1">  1       21 0.10969891E+00 0.18009462E+03</pdfrwt>
<pdfrwt beam="2">  1       21 0.77398220E-02 0.18009462E+03</pdfrwt>
<totfact> 0.84031071E+04</totfact>
</mgrwt>
</event>
<event>
12    2  0.4090627E-002  0.1830529E+03  0.7546771E-02  0.1165256E+00
         21   -1    0    0  503  502  0.00000000000E+00  0.00000000000E+00  0.33040173089E+03  0.33040173089E+03  0.00000000000E+00 0.  1.
         21   -1    0    0  501  503 -0.00000000000E+00 -0.00000000000E+00 -0.10434511634E+03  0.10434511634E+03  0.00000000000E+00 0.  1.
          6    2    1    2  501    0  0.58581922514E+02 -0.92562355665E+01  0.15404675929E+03  0.23803946293E+03  0.17150761593E+03 0.  0.
         24    2    3    3    0    0  0.25287864403E+02  0.17263831994E+02  0.83735005468E+01  0.86202061078E+02  0.80144643249E+02 0.  0.
         -6    2    1    2    0  502 -0.58581922514E+02  0.92562355665E+01  0.72009855261E+02  0.19670738429E+03  0.17317868298E+03 0.  0.
        -24    2    5    5    0    0 -0.38543921347E+02 -0.33093486910E+02 -0.15318082205E+02  0.97494083032E+02  0.81790218456E+02 0.  0.
          5    1    3    3  501    0  0.33294058111E+02 -0.26520067561E+02  0.14567325874E+03  0.15183740185E+03  0.47000000000E+01 0. -1.
        -15    1    4    4    0    0  0.14849025745E+02 -0.30854886508E+02 -0.62182632928E+01  0.34847411875E+02  0.17770000000E+01 0.  1.
         16    1    4    4    0    0  0.10438838658E+02  0.48118718502E+02  0.14591763840E+02  0.51354649203E+02  0.00000000000E+00 0. -1.
         -5    1    5    5    0  502 -0.20038001167E+02  0.42349722476E+02  0.87327937467E+02  0.99213301259E+02  0.47000000000E+01 0.  1.
         15    1    6    6    0    0 -0.63212039875E+02 -0.25197505362E+02 -0.13917184492E+01  0.68086495511E+02  0.17770000000E+01 0. -1.
        -16    1    6    6    0    0  0.24668118528E+02 -0.78959815483E+01 -0.13926363756E+02  0.29407587521E+02  0.00000000000E+00 0.  1.
<mgrwt>
<rscale>  2 0.18265662E+03</rscale>
<asrwt>0</asrwt>
<pdfrwt beam="1">  1       21 0.50831035E-01 0.18305293E+03</pdfrwt>
<pdfrwt beam="2">  1       21 0.16053095E-01 0.18305293E+03</pdfrwt>
<totfact> 0.12801558E+05</totfact>
</mgrwt>
</event>
<event>
12    2  0.4090627E-002  0.2897265E+03  0.7546771E-02  0.1090562E+00
         21   -1    0    0  503  502  0.00000000000E+00  0.00000000000E+00  0.50303173316E+03  0.50303173316E+03  0.00000000000E+00 0.  1.
         21   -1    0    0  501  503 -0.00000000000E+00 -0.00000000000E+00 -0.17234136215E+03  0.17234136215E+03  0.00000000000E+00 0. -1.
          6    2    1    2  501    0 -0.22306087441E+03 -0.62526507845E+02  0.10337695155E+03  0.30711660491E+03  0.17311296031E+03 0.  0.
         24    2    3    3    0    0 -0.56910810933E+02  0.61030470826E+01  0.77572436875E+02  0.12544706322E+03  0.80270761316E+02 0.  0.
         -6    2    1    2    0  502  0.22306087441E+03  0.62526507845E+02  0.22731341946E+03  0.36825649040E+03  0.17399923615E+03 0.  0.
        -24    2    5    5    0    0  0.14973965001E+03  0.51550819847E+01  0.21502436092E+03  0.27423206054E+03  0.80741622348E+02 0.  0.
          5    1    3    3  501    0 -0.16615006348E+03 -0.68629554927E+02  0.25804514678E+02  0.18166954170E+03  0.47000000000E+01 0. -1.
        -15    1    4    4    0    0 -0.44287645428E+02 -0.26042242648E+02  0.74851962483E+02  0.90805109747E+02  0.17770000000E+01 0.  1.
         16    1    4    4    0    0 -0.12623165506E+02  0.32145289731E+02  0.27204743923E+01  0.34641953470E+02  0.00000000000E+00 0. -1.
         -5    1    5    5    0  502  0.73321224396E+02  0.57371425860E+02  0.12289058538E+02  0.94024429867E+02  0.47000000000E+01 0.  1.
         15    1    6    6    0    0  0.53787393840E+02  0.16783405056E+02  0.26320101156E+02  0.62214723942E+02  0.17770000000E+01 0. -1.
        -16    1    6    6    0    0  0.95952256174E+02 -0.11628323071E+02  0.18870425977E+03  0.21201733659E+03  0.00000000000E+00 0.  1.
<mgrwt>
<rscale>  2 0.28959357E+03</rscale>
<asrwt>0</asrwt>
<pdfrwt beam="1">  1       21 0.77389497E-01 0.28972651E+03</pdfrwt>
<pdfrwt beam="2">  1       21 0.26514056E-01 0.28972651E+03</pdfrwt>
<totfact> 0.19083211E+04</totfact>
</mgrwt>
</event>
<event>
12    2  0.4090627E-002  0.1816557E+03  0.7546771E-02  0.1166952E+00
         21   -1    0    0  501  502  0.00000000000E+00  0.00000000000E+00  0.14710153769E+03  0.14710153769E+03  0.00000000000E+00 0.  1.
         21   -1    0    0  502  503 -0.00000000000E+00 -0.00000000000E+00 -0.22709880636E+03  0.22709880636E+03  0.00000000000E+00 0.  1.
         -6    2    1    2    0  503  0.34037973655E+02  0.39990008574E+02 -0.72113071337E+02  0.19544590941E+03  0.17389946524E+03 0.  0.
        -24    2    3    3    0    0 -0.38155164208E+02  0.39866384208E+02 -0.63949524629E+01  0.97707352098E+02  0.80378393187E+02 0.  0.
          6    2    1    2  501    0 -0.34037973655E+02 -0.39990008574E+02 -0.78841973352E+01  0.17875443464E+03  0.17068451277E+03 0.  0.
         24    2    5    5    0    0 -0.49879038010E+02  0.33145685738E+02 -0.16578748502E+02  0.10327295133E+03  0.82485711850E+02 0.  0.
          5    1    5    5  501    0  0.15841064354E+02 -0.73135694312E+02  0.86945511666E+01  0.75481483308E+02  0.47000000000E+01 0. -1.
        -15    1    6    6    0    0 -0.36773565751E+02  0.33357245876E+02  0.27847872651E+02  0.56953162605E+02  0.17770000000E+01 0.  1.
         16    1    6    6    0    0 -0.13105472258E+02 -0.21156013790E+00 -0.44426621153E+02  0.46319788729E+02  0.00000000000E+00 0. -1.
         -5    1    3    3    0  503  0.72193137864E+02  0.12362436621E+00 -0.65718118874E+02  0.97738557315E+02  0.47000000000E+01 0.  1.
         15    1    4    4    0    0  0.18392175020E+02  0.27105510970E+02  0.14795042142E+02  0.35986550653E+02  0.17770000000E+01 0. -1.
        -16    1    4    4    0    0 -0.56547339229E+02  0.12760873238E+02 -0.21189994605E+02  0.61720801445E+02  0.00000000000E+00 0.  1.
<mgrwt>
<rscale>  2 0.18088200E+03</rscale>
<asrwt>0</asrwt>
<pdfrwt beam="1">  1       21 0.22631006E-01 0.18165574E+03</pdfrwt>
<pdfrwt beam="2">  1       21 0.34938278E-01 0.18165574E+03</pdfrwt>
<totfact> 0.14503119E+05</totfact>
</mgrwt>
</event>
<event>
12    2  0.4090627E-002  0.1995299E+03  0.7546771E-02  0.1150162E+00
         21   -1    0    0  503  502  0.00000000000E+00  0.00000000000E+00  0.99769008729E+02  0.99769008729E+02  0.00000000000E+00 0. -1.
         21   -1    0    0  501  503 -0.00000000000E+00 -0.00000000000E+00 -0.13719462924E+04  0.13719462924E+04  0.00000000000E+00 0.  1.
          6    2    1    2  501    0  0.97855594684E+01 -0.10003634952E+03 -0.12558931892E+04  0.12716445550E+04  0.17236340424E+03 0.  0.
         24    2    3    3    0    0 -0.15470258923E+02 -0.46368011965E+02 -0.11176719011E+04  0.11211607974E+04  0.73632422245E+02 0.  0.
         -6    2    1    2    0  502 -0.97855594684E+01  0.10003634952E+03 -0.16284094522E+02  0.20007074620E+03  0.17222108858E+03 0.  0.
        -24    2    5    5    0    0 -0.27942471395E+02  0.90782250001E+01  0.36902751859E+02  0.93047456708E+02  0.80204864118E+02 0.  0.
          5    1    3    3  501    0  0.25255818392E+02 -0.53668337554E+02 -0.13822128807E+03  0.15048375757E+03  0.47000000000E+01 0. -1.
        -15    1    4    4    0    0 -0.42394969821E+02 -0.42785062694E+02 -0.68943272235E+03  0.69206107493E+03  0.17770000000E+01 0.  1.
         16    1    4    4    0    0  0.26924710897E+02 -0.35829492719E+01 -0.42823917876E+03  0.42909972245E+03  0.00000000000E+00 0. -1.
         -5    1    5    5    0  502  0.18156911926E+02  0.90958124519E+02 -0.53186846382E+02  0.10702328950E+03  0.47000000000E+01 0.  1.
         15    1    6    6    0    0  0.20095145869E+02  0.21423446192E+02 -0.27382715941E+01  0.29553930273E+02  0.17770000000E+01 0. -1.
        -16    1    6    6    0    0 -0.48037617264E+02 -0.12345221192E+02  0.39641023453E+02  0.63493526435E+02  0.00000000000E+00 0.  1.
<mgrwt>
<rscale>  2 0.19949914E+03</rscale>
<asrwt>0</asrwt>
<pdfrwt beam="1">  1       21 0.15349078E-01 0.19952988E+03</pdfrwt>
<pdfrwt beam="2">  1       21 0.21106867E+00 0.19952988E+03</pdfrwt>
<totfact> 0.42700765E+03</totfact>
</mgrwt>
</event>
<event>
12    2  0.4090627E-002  0.1912504E+03  0.7546771E-02  0.1157426E+00
         21   -1    0    0  501  502  0.00000000000E+00  0.00000000000E+00  0.12582450632E+03  0.12582450632E+03  0.00000000000E+00 0. -1.
         21   -1    0    0  502  503 -0.00000000000E+00 -0.00000000000E+00 -0.37601592120E+03  0.37601592120E+03  0.00000000000E+00 0. -1.
         -6    2    1    2    0  503 -0.48728720897E+02 -0.66995957860E+02 -0.24513665804E+03  0.31091587533E+03  0.17237677862E+03 0.  0.
        -24    2    3    3    0    0 -0.11671269443E+02 -0.72066537448E+02 -0.48792555247E+02  0.11098573206E+03  0.67877204739E+02 0.  0.
          6    2    1    2  501    0  0.48728720897E+02  0.66995957860E+02 -0.50547568424E+01  0.19092455219E+03  0.17194094175E+03 0.  0.
         24    2    5    5    0    0 -0.16834056288E+02  0.56422475606E+01  0.40266099095E+02  0.90232817160E+02  0.78774247997E+02 0.  0.
          5    1    5    5  501    0  0.65562777185E+02  0.61353710300E+02 -0.45320855938E+02  0.10069173503E+03  0.47000000000E+01 0. -1.
        -15    1    6    6    0    0 -0.21194664430E+02 -0.17801075380E+02 -0.13919626099E+02  0.31032334825E+02  0.17770000000E+01 0.  1.
         16    1    6    6    0    0  0.43606081421E+01  0.23443322940E+02  0.54185725194E+02  0.59200482334E+02  0.00000000000E+00 0. -1.
         -5    1    3    3    0  503 -0.37057451454E+02  0.50705795878E+01 -0.19634410279E+03  0.19993014327E+03  0.47000000000E+01 0.  1.
         15    1    4    4    0    0  0.19888956481E+02 -0.62262579057E+02 -0.40501048960E+02  0.76913536108E+02  0.17770000000E+01 0. -1.
        -16    1    4    4    0    0 -0.31560225924E+02 -0.98039583912E+01 -0.82915062868E+01  0.34072195952E+02  0.00000000000E+00 0.  1.
<mgrwt>
<rscale>  2 0.19115210E+03</rscale>
<asrwt>0</asrwt>
<pdfrwt beam="1">  1       21 0.19357617E-01 0.19125036E+03</pdfrwt>
<pdfrwt beam="2">  1       21 0.57848602E-01 0.19125036E+03</pdfrwt>
<totfact> 0.68780773E+04</totfact>
</mgrwt>
</event>
<event>
12    2  0.4090627E-002  0.2398302E+03  0.7546771E-02  0.1120052E+00
         21   -1    0    0  501  502  0.00000000000E+00  0.00000000000E+00  0.20581577792E+03  0.20581577792E+03  0.00000000000E+00 0.  1.
         21   -1    0    0  502  503 -0.00000000000E+00 -0.00000000000E+00 -0.58723928283E+03  0.58723928283E+03  0.00000000000E+00 0. -1.
         -6    2    1    2    0  503  0.15666139003E+02 -0.16300820061E+03 -0.47841593288E+03  0.53516385289E+03  0.17521827312E+03 0.  0.
        -24    2    3    3    0    0  0.20595488624E+02 -0.13806617618E+03 -0.25450895615E+03  0.30976902754E+03  0.10814619042E+03 0.  0.
          6    2    1    2  501    0 -0.15666139003E+02  0.16300820061E+03  0.96992427969E+02  0.25789120786E+03  0.17402081091E+03 0.  0.
         24    2    5    5    0    0  0.58374812847E+02  0.10305308801E+03  0.72950780903E+02  0.15952063872E+03  0.78086234514E+02 0.  0.
          5    1    5    5  501    0 -0.74040951850E+02  0.59955112603E+02  0.24041647065E+02  0.98370569134E+02  0.47000000000E+01 0. -1.
        -15    1    6    6    0    0  0.47330174090E+02  0.33884678507E+02  0.67667673843E+02  0.89277033045E+02  0.17770000000E+01 0.  1.
         16    1    6    6    0    0  0.11044638757E+02  0.69168409501E+02  0.52831070601E+01  0.70243605676E+02  0.00000000000E+00 0. -1.
         -5    1    3    3    0  503 -0.49293496214E+01 -0.24942024428E+02 -0.22390697672E+03  0.22539482535E+03  0.47000000000E+01 0.  1.
         15    1    4    4    0    0  0.44529964184E+02 -0.27475071872E+02 -0.13688603077E+03  0.14655627053E+03  0.17770000000E+01 0. -1.
        -16    1    4    4    0    0 -0.23934475560E+02 -0.11059110431E+03 -0.11762292539E+03  0.16321275701E+03  0.00000000000E+00 0.  1.
<mgrwt>
<rscale>  2 0.23961158E+03</rscale>
<asrwt>0</asrwt>
<pdfrwt beam="1">  1       21 0.31663966E-01 0.23983024E+03</pdfrwt>
<pdfrwt beam="2">  1       21 0.90344504E-01 0.23983024E+03</pdfrwt>
<totfact> 0.96831989E+03</totfact>
</mgrwt>
</event>
<event>
12    2  0.4090627E-002  0.3270870E+03  0.7546771E-02  0.1072451E+00
         21   -1    0    0  501  502  0.00000000000E+00  0.00000000000E+00  0.17295925073E+03  0.17295925073E+03  0.00000000000E+00 0.  1.
         21   -1    0    0  502  503 -0.00000000000E+00 -0.00000000000E+00 -0.62604180101E+03  0.62604180101E+03  0.00000000000E+00 0. -1.
         -6    2    1    2    0  503 -0.16821975483E+03  0.22094334884E+03 -0.18192765802E+03  0.37413531499E+03  0.17252742349E+03 0.  0.
        -24    2    3    3    0    0 -0.24257672235E+02  0.66056133232E+02 -0.22451523463E+02  0.10923937640E+03  0.80481818142E+02 0.  0.
          6    2    1    2  501    0  0.16821975483E+03 -0.22094334884E+03 -0.27115489226E+03  0.42486573676E+03  0.17283538228E+03 0.  0.
         24    2    5    5    0    0  0.18500384071E+03 -0.19431929085E+03 -0.27553596523E+03  0.39274362906E+03  0.79630912081E+02 0.  0.
          5    1    5    5  501    0 -0.16784085881E+02 -0.26624057995E+02  0.43810729698E+01  0.32122107704E+02  0.47000000000E+01 0. -1.
        -15    1    6    6    0    0  0.11878762243E+03 -0.71993530983E+02 -0.11507474525E+03  0.18038548298E+03  0.17770000000E+01 0.  1.
         16    1    6    6    0    0  0.66216218280E+02 -0.12232575986E+03 -0.16046121998E+03  0.21235814608E+03  0.00000000000E+00 0. -1.
         -5    1    3    3    0  503 -0.14396208259E+03  0.15488721561E+03 -0.15947613456E+03  0.26489593858E+03  0.47000000000E+01 0.  1.
         15    1    4    4    0    0  0.12476322973E+02  0.48498121252E+02 -0.40764563108E+02  0.64595926608E+02  0.17770000000E+01 0. -1.
        -16    1    4    4    0    0 -0.36733995207E+02  0.17558011979E+02  0.18313039646E+02  0.44643449795E+02  0.00000000000E+00 0.  1.
<mgrwt>
<rscale>  2 0.32704636E+03</rscale>
<asrwt>0</asrwt>
<pdfrwt beam="1">  1       21 0.26609115E-01 0.32708702E+03</pdfrwt>
<pdfrwt beam="2">  1       21 0.96314125E-01 0.32708702E+03</pdfrwt>
<totfact> 0.11218595E+04</totfact>
</mgrwt>
</event>
<event>
12    2  0.4090627E-002  0.1847160E+03  0.7546771E-02  0.1167320E+00
         21   -1    0    0  501  502  0.00000000000E+00  0.00000000000E+00  0.10377644731E+02  0.10377644731E+02  0.00000000000E+00 0.  1.
         21   -1    0    0  502  503 -0.00000000000E+00 -0.00000000000E+00 -0.30639624247E+04  0.30639624247E+04  0.00000000000E+00 0.  1.
         -6    2    1    2    0  503 -0.50932496351E+02 -0.42303983472E+02 -0.16721453075E+04  0.16806058766E+04  0.15486263970E+03 0.  0.
        -24    2    3    3    0    0 -0.35919761517E+02 -0.52111221974E+01 -0.49427330685E+03  0.50204497352E+03  0.80160267670E+02 0.  0.
          6    2    1    2  501    0  0.50932496351E+02  0.42303983472E+02 -0.13814394725E+04  0.13937341927E+04  0.17244198361E+03 0.  0.
         24    2    5    5    0    0  0.66230228674E+02 -0.48447789638E+01 -0.12301265602E+04  0.12344397677E+04  0.78868694779E+02 0.  0.
          5    1    5    5  501    0 -0.15297732322E+02  0.47148762436E+02 -0.15131291227E+03  0.15929442499E+03  0.47000000000E+01 0. -1.
        -15    1    6    6    0    0 -0.75770294773E+01 -0.19995625532E+02 -0.49434122159E+03  0.49480666680E+03  0.17770000000E+01 0.  1.
         16    1    6    6    0    0  0.73807258151E+02  0.15150846568E+02 -0.73578533861E+03  0.73963310095E+03  0.00000000000E+00 0. -1.
         -5    1    3    3    0  503 -0.15012734835E+02 -0.37092861274E+02 -0.11778720006E+04  0.11785609031E+04  0.47000000000E+01 0.  1.
         15    1    4    4    0    0 -0.40178814742E+02  0.40809832436E+01 -0.48876447819E+03  0.49043334353E+03  0.17770000000E+01 0. -1.
        -16    1    4    4    0    0  0.42590532248E+01 -0.92921054411E+01 -0.55088286646E+01  0.11611629996E+02  0.00000000000E+00 0.  1.
<mgrwt>
<rscale>  2 0.18050050E+03</rscale>
<asrwt>0</asrwt>
<pdfrwt beam="1">  1       21 0.15965594E-02 0.18471595E+03</pdfrwt>
<pdfrwt beam="2">  1       21 0.47137922E+00 0.18471595E+03</pdfrwt>
<totfact> 0.53633193E+03</totfact>
</mgrwt>
</event>
<event>
12    2  0.4090627E-002  0.2868047E+03  0.7546771E-02  0.1092487E+00
         21   -1    0    0  501  502  0.00000000000E+00  0.00000000000E+00  0.22932573498E+04  0.22932573498E+04  0.00000000000E+00 0. -1.
         21   -1    0    0  502  503 -0.00000000000E+00 -0.00000000000E+00 -0.76367549619E+02  0.76367549619E+02  0.00000000000E+00 0.  1.
         -6    2    1    2    0  503  0.53473072136E+02  0.21662830131E+03  0.23800128194E+03  0.37006077721E+03  0.17468021712E+03 0.  0.
        -24    2    3    3    0    0  0.35029608997E+02  0.13392121890E+03  0.56489832796E+02  0.16968832655E+03  0.80256218321E+02 0.  0.
          6    2    1    2  501    0 -0.53473072136E+02 -0.21662830131E+03  0.19788885182E+04  0.19995641222E+04  0.18019356492E+03 0.  0.
         24    2    5    5    0    0 -0.52143503171E+02 -0.10224045266E+03  0.60817332471E+03  0.62407563463E+03  0.80147050952E+02 0.  0.
          5    1    5    5  501    0 -0.13295689647E+01 -0.11438784864E+03  0.13707151935E+04  0.13754884876E+04  0.47000000000E+01 0. -1.
        -15    1    6    6    0    0  0.49777249137E+01 -0.77421688545E+02  0.34920449294E+03  0.35772312090E+03  0.17770000000E+01 0.  1.
         16    1    6    6    0    0 -0.57121228085E+02 -0.24818764117E+02  0.25896883176E+03  0.26635251374E+03  0.00000000000E+00 0. -1.
         -5    1    3    3    0  503  0.18443463139E+02  0.82707082405E+02  0.18151144915E+03  0.20037245066E+03  0.47000000000E+01 0.  1.
         15    1    4    4    0    0  0.34150607903E+02  0.35163631535E+02 -0.10744826145E+02  0.50213086150E+02  0.17770000000E+01 0. -1.
        -16    1    4    4    0    0  0.87900109388E+00  0.98757587367E+02  0.67234658940E+02  0.11947524040E+03  0.00000000000E+00 0.  1.
<mgrwt>
<rscale>  2 0.28594292E+03</rscale>
<asrwt>0</asrwt>
<pdfrwt beam="1">  1       21 0.35280877E+00 0.28680466E+03</pdfrwt>
<pdfrwt beam="2">  1       21 0.11748856E-01 0.28680466E+03</pdfrwt>
<totfact> 0.91658880E+02</totfact>
</mgrwt>
</event>
<event>
12    2  0.4090627E-002  0.2910079E+03  0.7546771E-02  0.1089889E+00
         21   -1    0    0  501  502  0.00000000000E+00  0.00000000000E+00  0.11738913313E+04  0.11738913313E+04  0.00000000000E+00 0. -1.
         21   -1    0    0  502  503 -0.00000000000E+00 -0.00000000000E+00 -0.80415341177E+02  0.80415341177E+02  0.00000000000E+00 0.  1.
         -6    2    1    2    0  503 -0.22969238619E+03  0.38866109951E+02  0.34449257468E+03  0.45095535740E+03  0.17440307790E+03 0.  0.
        -24    2    3    3    0    0 -0.83490164047E+02 -0.27260205538E+02  0.20849969851E+03  0.24056540581E+03  0.81767132132E+02 0.  0.
          6    2    1    2  501    0  0.22969238619E+03 -0.38866109951E+02  0.74898341541E+03  0.80335131505E+03  0.17357422632E+03 0.  0.
         24    2    5    5    0    0  0.16989235136E+03 -0.14307964936E+02  0.33580054755E+03  0.38511535420E+03  0.80521421932E+02 0.  0.
          5    1    5    5  501    0  0.59800034832E+02 -0.24558145015E+02  0.41318286786E+03  0.41823596085E+03  0.47000000000E+01 0. -1.
        -15    1    6    6    0    0  0.10399851822E+03 -0.10091331862E+02  0.11846157247E+03  0.15796780891E+03  0.17770000000E+01 0.  1.
         16    1    6    6    0    0  0.65893833144E+02 -0.42166330747E+01  0.21733897508E+03  0.22714754529E+03  0.00000000000E+00 0. -1.
         -5    1    3    3    0  503 -0.14620222215E+03  0.66126315489E+02  0.13599287617E+03  0.21038995159E+03  0.47000000000E+01 0.  1.
         15    1    4    4    0    0 -0.65081857131E+02  0.20902184342E+02  0.12257830307E+03  0.14036077640E+03  0.17770000000E+01 0. -1.
        -16    1    4    4    0    0 -0.18408306917E+02 -0.48162389880E+02  0.85921395438E+02  0.10020462942E+03  0.00000000000E+00 0.  1.
<mgrwt>
<rscale>  2 0.29088383E+03</rscale>
<asrwt>0</asrwt>
<pdfrwt beam="1">  1       21 0.18059865E+00 0.29100790E+03</pdfrwt>
<pdfrwt beam="2">  1       21 0.12371592E-01 0.29100790E+03</pdfrwt>
<totfact> 0.93745155E+03</totfact>
</mgrwt>
</event>
<event>
12    2  0.4090627E-002  0.1953483E+03  0.7546771E-02  0.1154495E+00
         21   -1    0    0  501  502  0.00000000000E+00  0.00000000000E+00  0.22590442086E+04  0.22590442086E+04  0.00000000000E+00 0.  1.
         21   -1    0    0  502  503 -0.00000000000E+00 -0.00000000000E+00 -0.20664286664E+02  0.20664286664E+02  0.00000000000E+00 0. -1.
         -6    2    1    2    0  503  0.85465771003E+02 -0.32523449702E+02  0.16171373931E+04  0.16284763997E+04  0.16864122640E+03 0.  0.
        -24    2    3    3    0    0  0.80653320376E+02 -0.71297964720E+02  0.14762140342E+04  0.14821613089E+04  0.77497825622E+02 0.  0.
          6    2    1    2  501    0 -0.85465771003E+02  0.32523449702E+02  0.62124252877E+03  0.65123209555E+03  0.17262326012E+03 0.  0.
         24    2    5    5    0    0 -0.59445787582E+02 -0.11628571940E+02  0.56969931633E+03  0.57839506307E+03  0.79463907594E+02 0.  0.
          5    1    5    5  501    0 -0.26019983422E+02  0.44152021643E+02  0.51543212436E+02  0.72837032481E+02  0.47000000000E+01 0. -1.
        -15    1    6    6    0    0  0.87611701042E+01  0.21599947988E+02  0.10774453513E+03  0.11025134210E+03  0.17770000000E+01 0.  1.
         16    1    6    6    0    0 -0.68206957686E+02 -0.33228519928E+02  0.46195478120E+03  0.46814372098E+03  0.00000000000E+00 0. -1.
         -5    1    3    3    0  503  0.48124506278E+01  0.38774515017E+02  0.14092335897E+03  0.14631509081E+03  0.47000000000E+01 0.  1.
         15    1    4    4    0    0  0.47493655244E+02 -0.38586367116E+02  0.37512157046E+03  0.38008407671E+03  0.17770000000E+01 0. -1.
        -16    1    4    4    0    0  0.33159665132E+02 -0.32711597604E+02  0.11010924637E+04  0.11020772322E+04  0.00000000000E+00 0.  1.
<mgrwt>
<rscale>  2 0.19446490E+03</rscale>
<asrwt>0</asrwt>
<pdfrwt beam="1">  1       21 0.34754507E+00 0.19534831E+03</pdfrwt>
<pdfrwt beam="2">  1       21 0.31791228E-02 0.19534831E+03</pdfrwt>
<totfact> 0.10358014E+04</totfact>
</mgrwt>
</event>
<event>
12    2  0.4090627E-002  0.2362501E+03  0.7546771E-02  0.1122920E+00
         21   -1    0    0  503  502  0.00000000000E+00  0.00000000000E+00  0.28417971250E+03  0.28417971250E+03  0.00000000000E+00 0. -1.
         21   -1    0    0  501  503 -0.00000000000E+00 -0.00000000000E+00 -0.23582822977E+03  0.23582822977E+03  0.00000000000E+00 0. -1.
          6    2    1    2  501    0 -0.78994876522E+02 -0.14020619785E+03  0.13449066095E+03  0.27184896722E+03  0.17296287076E+03 0.  0.
         24    2    3    3    0    0 -0.50931473605E+02 -0.15988398998E+03  0.14542600161E+03  0.23556616465E+03  0.78649798018E+02 0.  0.
         -6    2    1    2    0  502  0.78994876522E+02  0.14020619785E+03 -0.86139178217E+02  0.24815897505E+03  0.16812183213E+03 0.  0.
        -24    2    5    5    0    0  0.99711915474E+02  0.15520152523E+03 -0.57121068604E+02  0.20919493737E+03  0.80434605870E+02 0.  0.
          5    1    3    3  501    0 -0.28063402917E+02  0.19677792135E+02 -0.10935340662E+02  0.36282802565E+02  0.47000000000E+01 0. -1.
        -15    1    4    4    0    0 -0.10503573638E+02  0.20135347992E+01 -0.40160237762E+01  0.11561382164E+02  0.17770000000E+01 0.  1.
         16    1    4    4    0    0 -0.40427899967E+02 -0.16189752478E+03  0.14944202538E+03  0.22400478249E+03  0.00000000000E+00 0. -1.
         -5    1    5    5    0  502 -0.20717038952E+02 -0.14995327384E+02 -0.29018109613E+02  0.38964037674E+02  0.47000000000E+01 0.  1.
         15    1    6    6    0    0  0.30835385183E+02 -0.55695497144E+00 -0.71628425546E+01  0.31711121404E+02  0.17770000000E+01 0. -1.
        -16    1    6    6    0    0  0.68876530291E+02  0.15575848021E+03 -0.49958226049E+02  0.17748381597E+03  0.00000000000E+00 0.  1.
<mgrwt>
<rscale>  2 0.23536495E+03</rscale>
<asrwt>0</asrwt>
<pdfrwt beam="1">  1       21 0.43719956E-01 0.23625013E+03</pdfrwt>
<pdfrwt beam="2">  1       21 0.36281266E-01 0.23625013E+03</pdfrwt>
<totfact> 0.36046198E+04</totfact>
</mgrwt>
</event>
<event>
12    2  0.4090627E-002  0.1773164E+03  0.7546771E-02  0.1172080E+00
         21   -1    0    0  503  502  0.00000000000E+00  0.00000000000E+00  0.95969992347E+02  0.95969992347E+02  0.00000000000E+00 0.  1.
         21   -1    0    0  501  503 -0.00000000000E+00 -0.00000000000E+00 -0.39149358463E+03  0.39149358463E+03  0.00000000000E+00 0.  1.
          6    2    1    2  501    0 -0.38113514080E+02  0.15190427384E+02 -0.25731717298E+03  0.31249515609E+03  0.17250422032E+03 0.  0.
         24    2    3    3    0    0  0.29124273890E+02  0.52759988801E+02 -0.13834776024E+03  0.17069175964E+03  0.79773017357E+02 0.  0.
         -6    2    1    2    0  502  0.38113514080E+02 -0.15190427384E+02 -0.38206419307E+02  0.17496842089E+03  0.16574326168E+03 0.  0.
        -24    2    5    5    0    0  0.43556635264E+02 -0.13499318852E+02 -0.85316743306E+02  0.12728236377E+03  0.82719050733E+02 0.  0.
          5    1    3    3  501    0 -0.67237787970E+02 -0.37569561417E+02 -0.11896941273E+03  0.14180339644E+03  0.47000000000E+01 0. -1.
        -15    1    4    4    0    0  0.26617136040E+02 -0.15800007594E+02 -0.36477440409E+02  0.47873516256E+02  0.17770000000E+01 0.  1.
         16    1    4    4    0    0  0.25071378503E+01  0.68559996395E+02 -0.10187031983E+03  0.12281824339E+03  0.00000000000E+00 0. -1.
         -5    1    5    5    0  502 -0.54431211837E+01 -0.16911085326E+01  0.47110323999E+02  0.47686057120E+02  0.47000000000E+01 0.  1.
         15    1    6    6    0    0  0.57056819328E+02 -0.18173139448E+02 -0.24354847544E+02  0.64668848429E+02  0.17770000000E+01 0. -1.
        -16    1    6    6    0    0 -0.13500184064E+02  0.46738205963E+01 -0.60961895763E+02  0.62613515344E+02  0.00000000000E+00 0.  1.
<mgrwt>
<rscale>  2 0.17565046E+03</rscale>
<asrwt>0</asrwt>
<pdfrwt beam="1">  1       21 0.14764614E-01 0.17731637E+03</pdfrwt>
<pdfrwt beam="2">  1       21 0.60229782E-01 0.17731637E+03</pdfrwt>
<totfact> 0.10436636E+05</totfact>
</mgrwt>
</event>
<event>
12    2  0.4090627E-002  0.2366840E+03  0.7546771E-02  0.1122121E+00
         21   -1    0    0  501  502  0.00000000000E+00  0.00000000000E+00  0.14224074204E+04  0.14224074204E+04  0.00000000000E+00 0.  1.
         21   -1    0    0  502  503 -0.00000000000E+00 -0.00000000000E+00 -0.85066986822E+02  0.85066986822E+02  0.00000000000E+00 0. -1.
         -6    2    1    2    0  503  0.11002532883E+03 -0.11597758306E+03  0.11610962516E+03  0.26362994366E+03  0.17453632682E+03 0.  0.
        -24    2    3    3    0    0  0.78303548765E+02  0.19449402216E+01  0.74685514518E+02  0.13459491054E+03  0.80016469074E+02 0.  0.
          6    2    1    2  501    0 -0.11002532883E+03  0.11597758306E+03  0.12212308084E+04  0.12438444636E+04  0.17374691182E+03 0.  0.
         24    2    5    5    0    0 -0.70062473605E+02  0.22136040149E+02  0.90813663947E+03  0.91452195659E+03  0.78990497265E+02 0.  0.
          5    1    5    5  501    0 -0.39962855220E+02  0.93841542915E+02  0.31309416896E+03  0.32932250699E+03  0.47000000000E+01 0. -1.
        -15    1    6    6    0    0 -0.90737542152E+01  0.41457773738E+02  0.29210249371E+03  0.29517470179E+03  0.17770000000E+01 0.  1.
         16    1    6    6    0    0 -0.60988719390E+02 -0.19321733590E+02  0.61603414576E+03  0.61934725480E+03  0.00000000000E+00 0. -1.
         -5    1    3    3    0  503  0.31721780060E+02 -0.11792252329E+03  0.41424110644E+02  0.12903503311E+03  0.47000000000E+01 0.  1.
         15    1    4    4    0    0  0.58743490629E+02 -0.33004905429E+02  0.27747098421E+02  0.72891567917E+02  0.17770000000E+01 0. -1.
        -16    1    4    4    0    0  0.19560058137E+02  0.34949845650E+02  0.46938416097E+02  0.61703342624E+02  0.00000000000E+00 0.  1.
<mgrwt>
<rscale>  2 0.23653845E+03</rscale>
<asrwt>0</asrwt>
<pdfrwt beam="1">  1       21 0.21883189E+00 0.23668397E+03</pdfrwt>
<pdfrwt beam="2">  1       21 0.13087230E-01 0.23668397E+03</pdfrwt>
<totfact> 0.49386219E+03</totfact>
</mgrwt>
</event>
<event>
12    2  0.4090627E-002  0.2930536E+03  0.7546771E-02  0.1089601E+00
         21   -1    0    0  501  502  0.00000000000E+00  0.00000000000E+00  0.21679964261E+03  0.21679964261E+03  0.00000000000E+00 0.  1.
         21   -1    0    0  502  503 -0.00000000000E+00 -0.00000000000E+00 -0.73032328815E+03  0.73032328815E+03  0.00000000000E+00 0.  1.
         -6    2    1    2    0  503  0.19697430562E+03  0.11415978584E+03 -0.58270881893E+03  0.65224992879E+03  0.18452389592E+03 0.  0.
        -24    2    3    3    0    0  0.18256176186E+03  0.27845324337E+02 -0.35347969645E+03  0.40684009142E+03  0.80416448598E+02 0.  0.
          6    2    1    2  501    0 -0.19697430562E+03 -0.11415978584E+03  0.69185173387E+02  0.29487300198E+03  0.17416131975E+03 0.  0.
         24    2    5    5    0    0 -0.54073949885E+02 -0.10392583692E+03  0.21233668689E+02  0.14372181216E+03  0.80501670587E+02 0.  0.
          5    1    5    5  501    0 -0.14290035574E+03 -0.10233948920E+02  0.47951504698E+02  0.15115118982E+03  0.47000000000E+01 0. -1.
        -15    1    6    6    0    0 -0.53166282769E+02 -0.23051235934E+02  0.24114655385E+02  0.62790822856E+02  0.17770000000E+01 0.  1.
         16    1    6    6    0    0 -0.90766711563E+00 -0.80874600991E+02 -0.28809866965E+01  0.80930989301E+02  0.00000000000E+00 0. -1.
         -5    1    3    3    0  503  0.14412543762E+02  0.86314461508E+02 -0.22922912248E+03  0.24540983737E+03  0.47000000000E+01 0.  1.
         15    1    4    4    0    0  0.65727987935E+02  0.49614646813E+02 -0.13570026696E+03  0.15874350934E+03  0.17770000000E+01 0. -1.
        -16    1    4    4    0    0  0.11683377393E+03 -0.21769322476E+02 -0.21777942949E+03  0.24809658208E+03  0.00000000000E+00 0.  1.
<mgrwt>
<rscale>  2 0.29143730E+03</rscale>
<asrwt>0</asrwt>
<pdfrwt beam="1">  1       21 0.33353791E-01 0.29305358E+03</pdfrwt>
<pdfrwt beam="2">  1       21 0.11235743E+00 0.29305358E+03</pdfrwt>
<totfact> 0.50264852E+03</totfact>
</mgrwt>
</event>
<event>
12    2  0.4090627E-002  0.1876039E+03  0.7546771E-02  0.1160686E+00
         21   -1    0    0  501  502  0.00000000000E+00  0.00000000000E+00  0.12146902287E+03  0.12146902287E+03  0.00000000000E+00 0.  1.
         21   -1    0    0  502  503 -0.00000000000E+00 -0.00000000000E+00 -0.49707690730E+03  0.49707690730E+03  0.00000000000E+00 0.  1.
         -6    2    1    2    0  503 -0.57111506670E+02  0.25501489035E+02 -0.38774940572E+03  0.43074912983E+03  0.17687046412E+03 0.  0.
        -24    2    3    3    0    0 -0.14583167571E+02  0.29922380867E+02 -0.58361592932E+02  0.98564504775E+02  0.72117046660E+02 0.  0.
          6    2    1    2  501    0  0.57111506670E+02 -0.25501489035E+02  0.12141521288E+02  0.18779680034E+03  0.17665834693E+03 0.  0.
         24    2    5    5    0    0  0.10733740593E+03 -0.16943849911E+02  0.35360027202E+01  0.13591212925E+03  0.81554833100E+02 0.  0.
          5    1    5    5  501    0 -0.50225899258E+02 -0.85576391236E+01  0.86055185678E+01  0.51884671083E+02  0.47000000000E+01 0. -1.
        -15    1    6    6    0    0  0.29884235056E+01  0.19037037654E+01  0.27016776164E+02  0.27306019234E+02  0.17770000000E+01 0.  1.
         16    1    6    6    0    0  0.10434898242E+03 -0.18847553677E+02 -0.23480773444E+02  0.10860611002E+03  0.00000000000E+00 0. -1.
         -5    1    3    3    0  503 -0.42528339099E+02 -0.44208918319E+01 -0.32938781279E+03  0.33218462506E+03  0.47000000000E+01 0.  1.
         15    1    4    4    0    0  0.17464158838E+02  0.34959392008E+02 -0.10080884728E+02  0.40397251137E+02  0.17770000000E+01 0. -1.
        -16    1    4    4    0    0 -0.32047326409E+02 -0.50370111416E+01 -0.48280708204E+02  0.58167253639E+02  0.00000000000E+00 0.  1.
<mgrwt>
<rscale>  2 0.18755386E+03</rscale>
<asrwt>0</asrwt>
<pdfrwt beam="1">  1       21 0.18687541E-01 0.18760387E+03</pdfrwt>
<pdfrwt beam="2">  1       21 0.76473373E-01 0.18760387E+03</pdfrwt>
<totfact> 0.39973726E+04</totfact>
</mgrwt>
</event>
<event>
12    2  0.4090627E-002  0.1853330E+03  0.7546771E-02  0.1163602E+00
         21   -1    0    0  501  502  0.00000000000E+00  0.00000000000E+00  0.25983150656E+03  0.25983150656E+03  0.00000000000E+00 0.  1.
         21   -1    0    0  502  503 -0.00000000000E+00 -0.00000000000E+00 -0.12984241442E+03  0.12984241442E+03  0.00000000000E+00 0. -1.
         -6    2    1    2    0  503 -0.35911481573E+02  0.52687143602E+02  0.72896687964E+02  0.19574641896E+03  0.17010927021E+03 0.  0.
        -24    2    3    3    0    0 -0.50513736983E+01  0.46623985064E+02 -0.21927427552E+02  0.95732364785E+02  0.80526773367E+02 0.  0.
          6    2    1    2  501    0  0.35911481573E+02 -0.52687143602E+02  0.57092404177E+02  0.19392750202E+03  0.17401943517E+03 0.  0.
         24    2    5    5    0    0  0.55902963492E+02 -0.41924001905E+02  0.10011520666E+03  0.14505464553E+03  0.78326447137E+02 0.  0.
          5    1    5    5  501    0 -0.19991481919E+02 -0.10763141697E+02 -0.43022802485E+02  0.48872856497E+02  0.47000000000E+01 0. -1.
        -15    1    6    6    0    0  0.74857607694E+02 -0.24611826907E+02  0.69345617755E+02  0.10498274089E+03  0.17770000000E+01 0.  1.
         16    1    6    6    0    0 -0.18954644202E+02 -0.17312174998E+02  0.30769588906E+02  0.40071904640E+02  0.00000000000E+00 0. -1.
         -5    1    3    3    0  503 -0.30860107875E+02  0.60631585385E+01  0.94824115516E+02  0.10001405418E+03  0.47000000000E+01 0.  1.
         15    1    4    4    0    0 -0.23279642415E+02  0.49718109560E+02  0.12791844278E+02  0.56396996181E+02  0.17770000000E+01 0. -1.
        -16    1    4    4    0    0  0.18228268717E+02 -0.30941244963E+01 -0.34719271830E+02  0.39335368604E+02  0.00000000000E+00 0.  1.
<mgrwt>
<rscale>  2 0.18440953E+03</rscale>
<asrwt>0</asrwt>
<pdfrwt beam="1">  1       21 0.39974078E-01 0.18533303E+03</pdfrwt>
<pdfrwt beam="2">  1       21 0.19975756E-01 0.18533303E+03</pdfrwt>
<totfact> 0.13987729E+05</totfact>
</mgrwt>
</event>
<event>
12    2  0.4090627E-002  0.1874281E+03  0.7546771E-02  0.1160994E+00
         21   -1    0    0  503  502  0.00000000000E+00  0.00000000000E+00  0.23400887575E+04  0.23400887575E+04  0.00000000000E+00 0.  1.
         21   -1    0    0  501  503 -0.00000000000E+00 -0.00000000000E+00 -0.17805677193E+02  0.17805677193E+02  0.00000000000E+00 0.  1.
          6    2    1    2  501    0 -0.27605270324E+02  0.65327498211E+02  0.69077565427E+03  0.71575157216E+03  0.17349229249E+03 0.  0.
         24    2    3    3    0    0 -0.25593166290E+02  0.11184796806E+03  0.52182239525E+03  0.54043615239E+03  0.81287419107E+02 0.  0.
         -6    2    1    2    0  502  0.27605270324E+02 -0.65327498211E+02  0.16315074261E+04  0.16421428626E+04  0.17258901112E+03 0.  0.
        -24    2    5    5    0    0 -0.37274991096E+02 -0.49911263599E+02  0.12993928828E+04  0.13033667293E+04  0.80389103680E+02 0.  0.
          5    1    3    3  501    0 -0.20121040340E+01 -0.46520469853E+02  0.16895325902E+03  0.17531541977E+03  0.47000000000E+01 0. -1.
        -15    1    4    4    0    0 -0.41943003738E+02  0.40759243932E+02  0.33129392447E+03  0.33642139297E+03  0.17770000000E+01 0.  1.
         16    1    4    4    0    0  0.16349837448E+02  0.71088724132E+02  0.19052847078E+03  0.20401475942E+03  0.00000000000E+00 0. -1.
         -5    1    5    5    0  502  0.64880261420E+02 -0.15416234611E+02  0.33211454326E+03  0.33877613324E+03  0.47000000000E+01 0.  1.
         15    1    6    6    0    0 -0.74095572743E+01  0.20409487375E+01  0.84531128168E+03  0.84534808669E+03  0.17770000000E+01 0. -1.
        -16    1    6    6    0    0 -0.29865433822E+02 -0.51952212337E+02  0.45408160116E+03  0.45801864265E+03  0.00000000000E+00 0.  1.
<mgrwt>
<rscale>  2 0.18721884E+03</rscale>
<asrwt>0</asrwt>
<pdfrwt beam="1">  1       21 0.36001341E+00 0.18742814E+03</pdfrwt>
<pdfrwt beam="2">  1       21 0.27393368E-02 0.18742814E+03</pdfrwt>
<totfact> 0.11286438E+04</totfact>
</mgrwt>
</event>
<event>
12    2  0.4090627E-002  0.1998593E+03  0.7546771E-02  0.1150197E+00
         21   -1    0    0  501  502  0.00000000000E+00  0.00000000000E+00  0.44550061002E+02  0.44550061002E+02  0.00000000000E+00 0. -1.
         21   -1    0    0  502  503 -0.00000000000E+00 -0.00000000000E+00 -0.10489673990E+04  0.10489673990E+04  0.00000000000E+00 0. -1.
         -6    2    1    2    0  503  0.61250959912E+02 -0.79082330172E+02 -0.71372081772E+03  0.74074526228E+03  0.17117372140E+03 0.  0.
        -24    2    3    3    0    0  0.10639226926E+03 -0.71511087763E+02 -0.57494531897E+03  0.59454064342E+03  0.80518980613E+02 0.  0.
          6    2    1    2  501    0 -0.61250959912E+02  0.79082330172E+02 -0.29069652028E+03  0.35277219773E+03  0.17302618747E+03 0.  0.
         24    2    5    5    0    0 -0.63114486556E+02 -0.13525290404E+02 -0.16542200262E+03  0.19690225549E+03  0.85086352430E+02 0.  0.
          5    1    5    5  501    0  0.18635266437E+01  0.92607620577E+02 -0.12527451765E+03  0.15586994224E+03  0.47000000000E+01 0. -1.
        -15    1    6    6    0    0 -0.43436011783E+02 -0.15443753431E+02 -0.20237568558E+02  0.50377708858E+02  0.17770000000E+01 0.  1.
         16    1    6    6    0    0 -0.19678474773E+02  0.19184630266E+01 -0.14518443406E+03  0.14652454663E+03  0.00000000000E+00 0. -1.
         -5    1    3    3    0  503 -0.45141309351E+02 -0.75712424097E+01 -0.13877549876E+03  0.14620461886E+03  0.47000000000E+01 0.  1.
         15    1    4    4    0    0  0.55091736024E+02 -0.82204350037E+02 -0.37363710143E+03  0.38652360321E+03  0.17770000000E+01 0. -1.
        -16    1    4    4    0    0  0.51300533239E+02  0.10693262274E+02 -0.20130821754E+03  0.20801704021E+03  0.00000000000E+00 0.  1.
<mgrwt>
<rscale>  2 0.19945774E+03</rscale>
<asrwt>0</asrwt>
<pdfrwt beam="1">  1       21 0.68538560E-02 0.19985934E+03</pdfrwt>
<pdfrwt beam="2">  1       21 0.16137959E+00 0.19985934E+03</pdfrwt>
<totfact> 0.38408695E+04</totfact>
</mgrwt>
</event>
<event>
12    2  0.4090627E-002  0.1833381E+03  0.7546771E-02  0.1164734E+00
         21   -1    0    0  503  502  0.00000000000E+00  0.00000000000E+00  0.10037208750E+03  0.10037208750E+03  0.00000000000E+00 0.  1.
         21   -1    0    0  501  503 -0.00000000000E+00 -0.00000000000E+00 -0.51381812436E+03  0.51381812436E+03  0.00000000000E+00 0.  1.
          6    2    1    2  501    0  0.57066684115E+02 -0.27475926521E+02 -0.38823696990E+03  0.42912711015E+03  0.17149518620E+03 0.  0.
         24    2    3    3    0    0  0.94885694569E+02 -0.49563615428E+02 -0.33029647271E+03  0.35634431845E+03  0.80160254454E+02 0.  0.
         -6    2    1    2    0  502 -0.57066684115E+02  0.27475926521E+02 -0.25209066956E+02  0.18506310171E+03  0.17205034607E+03 0.  0.
        -24    2    5    5    0    0  0.21442025359E+02  0.45774018455E+02  0.10242452637E+02  0.96873885403E+02  0.82003784182E+02 0.  0.
          5    1    3    3  501    0 -0.37819010454E+02  0.22087688907E+02 -0.57940497190E+02  0.72782791700E+02  0.47000000000E+01 0. -1.
        -15    1    4    4    0    0  0.46018238032E+02 -0.63362699459E+02 -0.15252572087E+03  0.17146359139E+03  0.17770000000E+01 0.  1.
         16    1    4    4    0    0  0.48867456537E+02  0.13799084030E+02 -0.17777075184E+03  0.18488072706E+03  0.00000000000E+00 0. -1.
         -5    1    5    5    0  502 -0.78508709474E+02 -0.18298091934E+02 -0.35451519593E+02  0.88189216308E+02  0.47000000000E+01 0.  1.
         15    1    6    6    0    0  0.20314489666E+02  0.76036814074E+01 -0.32780954678E+02  0.39347721407E+02  0.17770000000E+01 0. -1.
        -16    1    6    6    0    0  0.11275356931E+01  0.38170337048E+02  0.43023407316E+02  0.57526163996E+02  0.00000000000E+00 0.  1.
<mgrwt>
<rscale>  2 0.18320773E+03</rscale>
<asrwt>0</asrwt>
<pdfrwt beam="1">  1       21 0.15441859E-01 0.18333809E+03</pdfrwt>
<pdfrwt beam="2">  1       21 0.79048943E-01 0.18333809E+03</pdfrwt>
<totfact> 0.52804608E+04</totfact>
</mgrwt>
</event>
<event>
12    2  0.4090627E-002  0.3077740E+03  0.7546771E-02  0.1081419E+00
         21   -1    0    0  503  502  0.00000000000E+00  0.00000000000E+00  0.12695405837E+03  0.12695405837E+03  0.00000000000E+00 0.  1.
         21   -1    0    0  501  503 -0.00000000000E+00 -0.00000000000E+00 -0.81370942053E+03  0.81370942053E+03  0.00000000000E+00 0. -1.
          6    2    1    2  501    0 -0.19834001408E+03  0.15955601644E+03 -0.47894376045E+03  0.56930829774E+03  0.17299690353E+03 0.  0.
         24    2    3    3    0    0 -0.27890922972E+02  0.36053359893E+02 -0.10687981640E+03  0.14180453483E+03  0.81286423234E+02 0.  0.
         -6    2    1    2    0  502  0.19834001408E+03 -0.15955601644E+03 -0.20781160172E+03  0.37135518116E+03  0.17298012949E+03 0.  0.
        -24    2    5    5    0    0  0.62753996060E+02 -0.11131251096E+03 -0.15195500859E+03  0.21691084459E+03  0.87358175028E+02 0.  0.
          5    1    3    3  501    0 -0.17044909111E+03  0.12350265655E+03 -0.37206394405E+03  0.42750376290E+03  0.47000000000E+01 0. -1.
        -15    1    4    4    0    0  0.54735400586E+01 -0.10759644842E+02 -0.75167715726E+02  0.76151643543E+02  0.17770000000E+01 0.  1.
         16    1    4    4    0    0 -0.33364463031E+02  0.46813004735E+02 -0.31712100671E+02  0.65652891289E+02  0.00000000000E+00 0. -1.
         -5    1    5    5    0  502  0.13558601802E+03 -0.48243505478E+02 -0.55856593123E+02  0.15444433657E+03  0.47000000000E+01 0.  1.
         15    1    6    6    0    0  0.80636857542E+02 -0.10878237705E+03 -0.14226816489E+03  0.19641613177E+03  0.17770000000E+01 0. -1.
        -16    1    6    6    0    0 -0.17882861481E+02 -0.25301339125E+01 -0.96868437083E+01  0.20494712816E+02  0.00000000000E+00 0.  1.
<mgrwt>
<rscale>  2 0.30777161E+03</rscale>
<asrwt>0</asrwt>
<pdfrwt beam="1">  1       21 0.19531394E-01 0.30777396E+03</pdfrwt>
<pdfrwt beam="2">  1       21 0.12518606E+00 0.30777396E+03</pdfrwt>
<totfact> 0.10728196E+04</totfact>
</mgrwt>
</event>
<event>
12    2  0.4090627E-002  0.2174629E+03  0.7546771E-02  0.1136399E+00
         21   -1    0    0  503  502  0.00000000000E+00  0.00000000000E+00  0.32820683745E+03  0.32820683745E+03  0.00000000000E+00 0.  1.
         21   -1    0    0  501  503 -0.00000000000E+00 -0.00000000000E+00 -0.35594461221E+03  0.35594461221E+03  0.00000000000E+00 0. -1.
          6    2    1    2  501    0  0.12817798328E+03 -0.22428694887E+02 -0.27912721967E+03  0.35383914107E+03  0.17423401287E+03 0.  0.
         24    2    3    3    0    0  0.13137990699E+03 -0.36736088066E+01 -0.29220356197E+03  0.33027887160E+03  0.80168797151E+02 0.  0.
         -6    2    1    2    0  502 -0.12817798328E+03  0.22428694887E+02  0.25138944491E+03  0.33031230860E+03  0.17022610390E+03 0.  0.
        -24    2    5    5    0    0 -0.96810527074E+02 -0.42784982032E+02  0.11507837484E+03  0.17591172962E+03  0.80616818483E+02 0.  0.
          5    1    3    3  501    0 -0.32019237098E+01 -0.18755086080E+02  0.13076342302E+02  0.23560269466E+02  0.47000000000E+01 0. -1.
        -15    1    4    4    0    0  0.10820291782E+03 -0.14952047450E+02 -0.14891054350E+03  0.18468606564E+03  0.17770000000E+01 0.  1.
         16    1    4    4    0    0  0.23176989170E+02  0.11278438643E+02 -0.14329301848E+03  0.14559280597E+03  0.00000000000E+00 0. -1.
         -5    1    5    5    0  502 -0.31367456202E+02  0.65213676919E+02  0.13631107007E+03  0.15440057898E+03  0.47000000000E+01 0.  1.
         15    1    6    6    0    0 -0.76026669401E+02  0.21781365936E+01  0.39968113006E+02  0.85938387962E+02  0.17770000000E+01 0. -1.
        -16    1    6    6    0    0 -0.20783857674E+02 -0.44963118625E+02  0.75110261838E+02  0.89973341662E+02  0.00000000000E+00 0.  1.
<mgrwt>
<rscale>  2 0.21665906E+03</rscale>
<asrwt>0</asrwt>
<pdfrwt beam="1">  1       21 0.50493360E-01 0.21746295E+03</pdfrwt>
<pdfrwt beam="2">  1       21 0.54760709E-01 0.21746295E+03</pdfrwt>
<totfact> 0.11563663E+04</totfact>
</mgrwt>
</event>
<event>
12    2  0.4090627E-002  0.2441629E+03  0.7546771E-02  0.1117167E+00
         21   -1    0    0  503  502  0.00000000000E+00  0.00000000000E+00  0.13727704269E+03  0.13727704269E+03  0.00000000000E+00 0.  1.
         21   -1    0    0  501  503 -0.00000000000E+00 -0.00000000000E+00 -0.71658480258E+03  0.71658480258E+03  0.00000000000E+00 0. -1.
          6    2    1    2  501    0  0.16896399200E+03  0.31229510878E+02 -0.55848515933E+03  0.60952538721E+03  0.17346876239E+03 0.  0.
         24    2    3    3    0    0  0.87592378829E+02  0.37649383221E+02 -0.48120030568E+03  0.49701941940E+03  0.79904118681E+02 0.  0.
         -6    2    1    2    0  502 -0.16896399200E+03 -0.31229510878E+02 -0.20822600562E+02  0.24433645806E+03  0.17246046243E+03 0.  0.
        -24    2    5    5    0    0 -0.68777450319E+02 -0.24523622972E+02 -0.72543217299E+02  0.13129034241E+03  0.81503925545E+02 0.  0.
          5    1    3    3  501    0  0.81371613172E+02 -0.64198723428E+01 -0.77284853646E+02  0.11250596782E+03  0.47000000000E+01 0. -1.
        -15    1    4    4    0    0  0.84512947454E+02  0.58590613265E+02 -0.38349448342E+03  0.39704719467E+03  0.17770000000E+01 0.  1.
         16    1    4    4    0    0  0.30794313752E+01 -0.20941230045E+02 -0.97705822263E+02  0.99972224730E+02  0.00000000000E+00 0. -1.
         -5    1    5    5    0  502 -0.10018654168E+03 -0.67058879061E+01  0.51720616737E+02  0.11304611565E+03  0.47000000000E+01 0.  1.
         15    1    6    6    0    0  0.10173265587E+02 -0.91975913491E+01  0.92053267459E+01  0.16612850112E+02  0.17770000000E+01 0. -1.
        -16    1    6    6    0    0 -0.78950715907E+02 -0.15326031623E+02 -0.81748544045E+02  0.11467749230E+03  0.00000000000E+00 0.  1.
<mgrwt>
<rscale>  2 0.24398388E+03</rscale>
<asrwt>0</asrwt>
<pdfrwt beam="1">  1       21 0.21119545E-01 0.24416291E+03</pdfrwt>
<pdfrwt beam="2">  1       21 0.11024382E+00 0.24416291E+03</pdfrwt>
<totfact> 0.13112559E+04</totfact>
</mgrwt>
</event>
<event>
12    2  0.4090627E-002  0.2689041E+03  0.7546771E-02  0.1102038E+00
         21   -1    0    0  503  502  0.00000000000E+00  0.00000000000E+00  0.10416708421E+04  0.10416708421E+04  0.00000000000E+00 0. -1.
         21   -1    0    0  501  503 -0.00000000000E+00 -0.00000000000E+00 -0.70284180677E+02  0.70284180677E+02  0.00000000000E+00 0. -1.
          6    2    1    2  501    0  0.12973055335E+02  0.20432278119E+03  0.41697017337E+03  0.49615879106E+03  0.17433680447E+03 0.  0.
         24    2    3    3    0    0  0.35164445871E+02  0.15085433594E+03  0.39859451139E+03  0.43524009603E+03  0.81011034778E+02 0.  0.
         -6    2    1    2    0  502 -0.12973055335E+02 -0.20432278119E+03  0.55441648806E+03  0.61579623171E+03  0.17294871403E+03 0.  0.
        -24    2    5    5    0    0  0.36535572241E+02 -0.19153779710E+03  0.39090439612E+03  0.44441112667E+03  0.81691045043E+02 0.  0.
          5    1    3    3  501    0 -0.22191390536E+02  0.53468445254E+02  0.18375661977E+02  0.60918695036E+02  0.47000000000E+01 0. -1.
        -15    1    4    4    0    0  0.16666949907E+02 -0.39737352421E+01  0.24503534258E+02  0.29952607752E+02  0.17770000000E+01 0.  1.
         16    1    4    4    0    0  0.18497495964E+02  0.15482807118E+03  0.37409097713E+03  0.40528748828E+03  0.00000000000E+00 0. -1.
         -5    1    5    5    0  502 -0.49508627576E+02 -0.12784984091E+02  0.16351209193E+03  0.17138510505E+03  0.47000000000E+01 0.  1.
         15    1    6    6    0    0 -0.26432170546E+02 -0.59162995846E+02  0.12032857649E+03  0.13667861489E+03  0.17770000000E+01 0. -1.
        -16    1    6    6    0    0  0.62967742787E+02 -0.13237480126E+03  0.27057581963E+03  0.30773251178E+03  0.00000000000E+00 0.  1.
<mgrwt>
<rscale>  2 0.26867937E+03</rscale>
<asrwt>0</asrwt>
<pdfrwt beam="1">  1       21 0.16025704E+00 0.26890411E+03</pdfrwt>
<pdfrwt beam="2">  1       21 0.10812952E-01 0.26890411E+03</pdfrwt>
<totfact> 0.16892394E+04</totfact>
</mgrwt>
</event>
<event>
11    2  0.4090627E-002  0.1802844E+03  0.7546771E-02  0.1169004E+00
         21   -1    0    0  501  502  0.00000000000E+00  0.00000000000E+00  0.37541763251E+03  0.37541763251E+03  0.00000000000E+00 0. -1.
         21   -1    0    0  502  503 -0.00000000000E+00 -0.00000000000E+00 -0.10545124517E+03  0.10545124517E+03  0.00000000000E+00 0. -1.
         -6    2    1    2    0  503  0.87492695090E+01  0.18081943840E+02  0.24032221067E+02  0.17593267168E+03  0.17312206937E+03 0.  0.
        -24    2    3    3    0    0 -0.17037808793E+02  0.55763725737E+02  0.60510649011E+02  0.11730114603E+03  0.81842166268E+02 0.  0.
          6    2    1    2  501    0 -0.87492695090E+01 -0.18081943840E+02  0.24593416627E+03  0.30493620601E+03  0.17916185192E+03 0.  0.
          5    1    5    5  501    0 -0.39549532436E+02 -0.73644140440E+02  0.56516595981E+02  0.10101406119E+03  0.47000000000E+01 0. -1.
        -15    1    5    5    0    0  0.17161686370E+02  0.58298867720E+02  0.16463529484E+03  0.17550276207E+03  0.17770000000E+01 0.  1.
         16    1    5    5    0    0  0.13638576556E+02 -0.27366711198E+01  0.24782275450E+02  0.28419382748E+02  0.00000000000E+00 0. -1.
         -5    1    3    3    0  503  0.25787078302E+02 -0.37681781897E+02 -0.36478427945E+02  0.58631525647E+02  0.47000000000E+01 0.  1.
         15    1    4    4    0    0 -0.12458381164E+02  0.41929245606E+02 -0.10328196002E+02  0.44978909057E+02  0.17770000000E+01 0. -1.
        -16    1    4    4    0    0 -0.45794276298E+01  0.13834480132E+02  0.70838845013E+02  0.72322236973E+02  0.00000000000E+00 0.  1.
<mgrwt>
<rscale>  2 0.17876511E+03</rscale>
<asrwt>0</asrwt>
<pdfrwt beam="1">  1       21 0.57756558E-01 0.18028443E+03</pdfrwt>
<pdfrwt beam="2">  1       21 0.16223269E-01 0.18028443E+03</pdfrwt>
<totfact> 0.96030961E+04</totfact>
</mgrwt>
</event>
<event>
12    2  0.4090627E-002  0.1851382E+03  0.7546771E-02  0.1167909E+00
         21   -1    0    0  501  502  0.00000000000E+00  0.00000000000E+00  0.15848416381E+03  0.15848416381E+03  0.00000000000E+00 0.  1.
         21   -1    0    0  502  503 -0.00000000000E+00 -0.00000000000E+00 -0.24772875599E+03  0.24772875599E+03  0.00000000000E+00 0.  1.
         -6    2    1    2    0  503 -0.50826231111E+02 -0.37503668180E+02 -0.13759977601E+03  0.21486405023E+03  0.15245665228E+03 0.  0.
        -24    2    3    3    0    0 -0.37173180165E+01  0.24615567162E+02 -0.63210656456E+02  0.10700358388E+03  0.82670643355E+02 0.  0.
          6    2    1    2  501    0  0.50826231111E+02  0.37503668180E+02  0.48355183838E+02  0.19134886958E+03  0.17402969629E+03 0.  0.
         24    2    5    5    0    0 -0.29780377440E+02  0.34401993553E+02  0.59753100362E+02  0.10974587804E+03  0.80020976640E+02 0.  0.
          5    1    5    5  501    0  0.80606608551E+02  0.31016746273E+01 -0.11397916524E+02  0.81602991543E+02  0.47000000000E+01 0. -1.
        -15    1    6    6    0    0  0.99064124005E+00 -0.23862147116E+02  0.27238772901E+02  0.36269710685E+02  0.17770000000E+01 0.  1.
         16    1    6    6    0    0 -0.30771018680E+02  0.58264140669E+02  0.32514327461E+02  0.73476167352E+02  0.00000000000E+00 0. -1.
         -5    1    3    3    0  503 -0.47108913094E+02 -0.62119235342E+02 -0.74389119558E+02  0.10786046635E+03  0.47000000000E+01 0.  1.
         15    1    4    4    0    0 -0.22573029818E+02 -0.23928518515E+02 -0.33784196871E+02  0.47187343226E+02  0.17770000000E+01 0. -1.
        -16    1    4    4    0    0  0.18855711801E+02  0.48544085678E+02 -0.29426459585E+02  0.59816240650E+02  0.00000000000E+00 0.  1.
<mgrwt>
<rscale>  2 0.17989072E+03</rscale>
<asrwt>0</asrwt>
<pdfrwt beam="1">  1       21 0.24382179E-01 0.18513824E+03</pdfrwt>
<pdfrwt beam="2">  1       21 0.38112116E-01 0.18513824E+03</pdfrwt>
<totfact> 0.10576842E+05</totfact>
</mgrwt>
</event>
<event>
12    2  0.4090627E-002  0.3402580E+03  0.7546771E-02  0.1066693E+00
         21   -1    0    0  503  502  0.00000000000E+00  0.00000000000E+00  0.83749461059E+03  0.83749461059E+03  0.00000000000E+00 0.  1.
         21   -1    0    0  501  503 -0.00000000000E+00 -0.00000000000E+00 -0.14259112262E+03  0.14259112262E+03  0.00000000000E+00 0.  1.
          6    2    1    2  501    0 -0.18267377808E+03  0.22929308799E+03  0.26161788385E+03  0.42920792028E+03  0.17271506095E+03 0.  0.
         24    2    3    3    0    0 -0.19323045719E+03  0.14830990622E+03  0.20774531825E+03  0.33125863479E+03  0.85090116935E+02 0.  0.
         -6    2    1    2    0  502  0.18267377808E+03 -0.22929308799E+03  0.43328560412E+03  0.55087781293E+03  0.17258308329E+03 0.  0.
        -24    2    5    5    0    0  0.19677022183E+03 -0.24094130756E+03  0.40127036306E+03  0.51370986430E+03  0.78158086721E+02 0.  0.
          5    1    3    3  501    0  0.10556679102E+02  0.80983181772E+02  0.53872565604E+02  0.97949285491E+02  0.47000000000E+01 0. -1.
        -15    1    4    4    0    0 -0.72969804595E+02  0.92979961684E+02  0.58920541000E+02  0.13207820993E+03  0.17770000000E+01 0.  1.
         16    1    4    4    0    0 -0.12026065259E+03  0.55329944536E+02  0.14882477724E+03  0.19918042486E+03  0.00000000000E+00 0. -1.
         -5    1    5    5    0  502 -0.14096443744E+02  0.11648219568E+02  0.32015241062E+02  0.37167948633E+02  0.47000000000E+01 0.  1.
         15    1    6    6    0    0  0.58251932639E+02 -0.24458847011E+02  0.91480029590E+02  0.11119027114E+03  0.17770000000E+01 0. -1.
        -16    1    6    6    0    0  0.13851828919E+03 -0.21648246055E+03  0.30979033347E+03  0.40251959316E+03  0.00000000000E+00 0.  1.
<mgrwt>
<rscale>  2 0.34024128E+03</rscale>
<asrwt>0</asrwt>
<pdfrwt beam="1">  1       21 0.12884532E+00 0.34025802E+03</pdfrwt>
<pdfrwt beam="2">  1       21 0.21937096E-01 0.34025802E+03</pdfrwt>
<totfact> 0.78804289E+03</totfact>
</mgrwt>
</event>
<event>
12    2  0.4090627E-002  0.1858748E+03  0.7546771E-02  0.1162492E+00
         21   -1    0    0  503  502  0.00000000000E+00  0.00000000000E+00  0.24294414835E+02  0.24294414835E+02  0.00000000000E+00 0. -1.
         21   -1    0    0  501  503 -0.00000000000E+00 -0.00000000000E+00 -0.14652480603E+04  0.14652480603E+04  0.00000000000E+00 0. -1.
          6    2    1    2  501    0 -0.65883329195E+02 -0.10093134359E+01 -0.86221629463E+03  0.88202402408E+03  0.17380393708E+03 0.  0.
         24    2    3    3    0    0 -0.52363833190E+02  0.46921303849E+02 -0.31879494823E+03  0.33630525899E+03  0.80792502285E+02 0.  0.
         -6    2    1    2    0  502  0.65883329195E+02  0.10093134359E+01 -0.57873735083E+03  0.60751845106E+03  0.17262709911E+03 0.  0.
        -24    2    5    5    0    0  0.98733279679E+02  0.26685895391E+02 -0.31682637164E+03  0.34226789567E+03  0.79422698992E+02 0.  0.
          5    1    3    3  501    0 -0.13519496005E+02 -0.47930617285E+02 -0.54342134640E+03  0.54571876509E+03  0.47000000000E+01 0. -1.
        -15    1    4    4    0    0 -0.23334807208E+02 -0.22092855792E+02 -0.10054486911E+03  0.10557005228E+03  0.17770000000E+01 0.  1.
         16    1    4    4    0    0 -0.29029025983E+02  0.69014159641E+02 -0.21825007912E+03  0.23073520671E+03  0.00000000000E+00 0. -1.
         -5    1    5    5    0  502 -0.32849950483E+02 -0.25676581955E+02 -0.26191097920E+03  0.26525055538E+03  0.47000000000E+01 0.  1.
         15    1    6    6    0    0 -0.10728921507E+02  0.17508324098E+01 -0.73134669237E+02  0.73959534505E+02  0.17770000000E+01 0. -1.
        -16    1    6    6    0    0  0.10946220119E+03  0.24935062981E+02 -0.24369170240E+03  0.26830836117E+03  0.00000000000E+00 0.  1.
<mgrwt>
<rscale>  2 0.18559920E+03</rscale>
<asrwt>0</asrwt>
<pdfrwt beam="1">  1       21 0.37376007E-02 0.18587480E+03</pdfrwt>
<pdfrwt beam="2">  1       21 0.22542287E+00 0.18587480E+03</pdfrwt>
<totfact> 0.41124117E+04</totfact>
</mgrwt>
</event>
<event>
12    2  0.4090627E-002  0.1808536E+03  0.7546771E-02  0.1167709E+00
         21   -1    0    0  501  502  0.00000000000E+00  0.00000000000E+00  0.51540150519E+03  0.51540150519E+03  0.00000000000E+00 0.  1.
         21   -1    0    0  502  503 -0.00000000000E+00 -0.00000000000E+00 -0.85032880383E+02  0.85032880383E+02  0.00000000000E+00 0.  1.
         -6    2    1    2    0  503  0.43285443154E+02  0.29568271324E+01  0.61662747436E+02  0.19107677598E+03  0.17557239954E+03 0.  0.
        -24    2    3    3    0    0  0.43727703901E+02 -0.17142669300E+02 -0.28285015108E+02  0.98789857414E+02  0.82179137554E+02 0.  0.
          6    2    1    2  501    0 -0.43285443154E+02 -0.29568271324E+01  0.36870587737E+03  0.40935760960E+03  0.17247392878E+03 0.  0.
         24    2    5    5    0    0  0.25090507208E+02 -0.33190393792E+02  0.12410744876E+03  0.15354552931E+03  0.80264780203E+02 0.  0.
          5    1    5    5  501    0 -0.68375950362E+02  0.30233566660E+02  0.24459842862E+03  0.25581208029E+03  0.47000000000E+01 0. -1.
        -15    1    6    6    0    0 -0.21510461849E+01  0.37690769980E+01  0.10283685959E+03  0.10294372424E+03  0.17770000000E+01 0.  1.
         16    1    6    6    0    0  0.27241553393E+02 -0.36959470790E+02  0.21270589166E+02  0.50601805065E+02  0.00000000000E+00 0. -1.
         -5    1    3    3    0  503 -0.44226074735E+00  0.20099496432E+02  0.89947762544E+02  0.92286918564E+02  0.47000000000E+01 0.  1.
         15    1    4    4    0    0 -0.61204380101E+01  0.88799415628E+01  0.21221207379E+02  0.23870703702E+02  0.17770000000E+01 0. -1.
        -16    1    4    4    0    0  0.49848141911E+02 -0.26022610863E+02 -0.49506222487E+02  0.74919153713E+02  0.00000000000E+00 0.  1.
<mgrwt>
<rscale>  2 0.18009730E+03</rscale>
<asrwt>0</asrwt>
<pdfrwt beam="1">  1       21 0.79292538E-01 0.18085364E+03</pdfrwt>
<pdfrwt beam="2">  1       21 0.13081982E-01 0.18085364E+03</pdfrwt>
<totfact> 0.70888990E+04</totfact>
</mgrwt>
</event>
<event>
12    2  0.4090627E-002  0.2751940E+03  0.7546771E-02  0.1098439E+00
         21   -1    0    0  501  502  0.00000000000E+00  0.00000000000E+00  0.80179598646E+03  0.80179598646E+03  0.00000000000E+00 0. -1.
         21   -1    0    0  502  503 -0.00000000000E+00 -0.00000000000E+00 -0.98373114980E+02  0.98373114980E+02  0.00000000000E+00 0.  1.
         -6    2    1    2    0  503  0.16991560847E+03  0.13009004362E+03  0.25962112475E+03  0.37833167528E+03  0.17302310440E+03 0.  0.
        -24    2    3    3    0    0  0.11724200063E+03  0.84886548119E+02  0.26060946602E+03  0.30875487034E+03  0.80379496236E+02 0.  0.
          6    2    1    2  501    0 -0.16991560847E+03 -0.13009004362E+03  0.44380174673E+03  0.52183742616E+03  0.17192898384E+03 0.  0.
         24    2    5    5    0    0 -0.11135155421E+03 -0.10779458639E+03  0.18333370803E+03  0.25389615452E+03  0.82662974163E+02 0.  0.
          5    1    5    5  501    0 -0.58564054254E+02 -0.22295457235E+02  0.26046803870E+03  0.26794127164E+03  0.47000000000E+01 0. -1.
        -15    1    6    6    0    0 -0.54716326819E+02 -0.34941425459E+01  0.77014227078E+02  0.94553870117E+02  0.17770000000E+01 0.  1.
         16    1    6    6    0    0 -0.56635227395E+02 -0.10430044384E+03  0.10631948096E+03  0.15934228440E+03  0.00000000000E+00 0. -1.
         -5    1    3    3    0  503  0.52673607834E+02  0.45203495502E+02 -0.98834126991E+00  0.69576804945E+02  0.47000000000E+01 0.  1.
         15    1    4    4    0    0  0.23346334593E+02 -0.91505871692E+01  0.84332268830E+02  0.87999283403E+02  0.17770000000E+01 0. -1.
        -16    1    4    4    0    0  0.93895666041E+02  0.94037135289E+02  0.17627719719E+03  0.22075558693E+03  0.00000000000E+00 0.  1.
<mgrwt>
<rscale>  2 0.27502217E+03</rscale>
<asrwt>0</asrwt>
<pdfrwt beam="1">  1       21 0.12335322E+00 0.27519398E+03</pdfrwt>
<pdfrwt beam="2">  1       21 0.15134326E-01 0.27519398E+03</pdfrwt>
<totfact> 0.18168402E+04</totfact>
</mgrwt>
</event>
<event>
12    2  0.4090627E-002  0.1929752E+03  0.7546771E-02  0.1156292E+00
         21   -1    0    0  503  502  0.00000000000E+00  0.00000000000E+00  0.23366519588E+03  0.23366519588E+03  0.00000000000E+00 0. -1.
         21   -1    0    0  501  503 -0.00000000000E+00 -0.00000000000E+00 -0.16301419491E+03  0.16301419491E+03  0.00000000000E+00 0. -1.
          6    2    1    2  501    0  0.29140873486E+02 -0.79422667140E+02 -0.73920013455E+00  0.19297664673E+03  0.17344246655E+03 0.  0.
         24    2    3    3    0    0 -0.30265978851E+02 -0.92376962446E+02  0.21688031881E+02  0.12799927676E+03  0.80398454328E+02 0.  0.
         -6    2    1    2    0  502 -0.29140873486E+02  0.79422667140E+02  0.71390201107E+02  0.20370274406E+03  0.17100028234E+03 0.  0.
        -24    2    5    5    0    0  0.24262863249E+01  0.69843073005E+02  0.10979390292E+03  0.15285799491E+03  0.80168097005E+02 0.  0.
          5    1    3    3  501    0  0.59406852337E+02  0.12954295306E+02 -0.22427232016E+02  0.64977369964E+02  0.47000000000E+01 0. -1.
        -15    1    4    4    0    0  0.26919808749E+01 -0.11073877376E+02  0.37166456213E+02  0.38915044875E+02  0.17770000000E+01 0.  1.
         16    1    4    4    0    0 -0.32957959726E+02 -0.81303085070E+02 -0.15478424332E+02  0.89084231887E+02  0.00000000000E+00 0. -1.
         -5    1    5    5    0  502 -0.31567159811E+02  0.95795941354E+01 -0.38403701817E+02  0.50844749145E+02  0.47000000000E+01 0.  1.
         15    1    6    6    0    0 -0.28050564322E+02  0.57907196442E+02  0.40036318098E+02  0.75803311632E+02  0.17770000000E+01 0. -1.
        -16    1    6    6    0    0  0.30476850647E+02  0.11935876563E+02  0.69757584827E+02  0.77054683281E+02  0.00000000000E+00 0.  1.
<mgrwt>
<rscale>  2 0.19242489E+03</rscale>
<asrwt>0</asrwt>
<pdfrwt beam="1">  1       21 0.35948492E-01 0.19297523E+03</pdfrwt>
<pdfrwt beam="2">  1       21 0.25079107E-01 0.19297523E+03</pdfrwt>
<totfact> 0.11233970E+05</totfact>
</mgrwt>
</event>
<event>
12    2  0.4090627E-002  0.2107012E+03  0.7546771E-02  0.1141278E+00
         21   -1    0    0  503  502  0.00000000000E+00  0.00000000000E+00  0.11431640226E+03  0.11431640226E+03  0.00000000000E+00 0. -1.
         21   -1    0    0  501  503 -0.00000000000E+00 -0.00000000000E+00 -0.39715267032E+03  0.39715267032E+03  0.00000000000E+00 0. -1.
          6    2    1    2  501    0  0.80435367603E+02  0.82665187340E+02 -0.18495566626E+03  0.28036335706E+03  0.17632819384E+03 0.  0.
         24    2    3    3    0    0  0.72700257101E+02  0.65708741472E+02 -0.21175513836E+03  0.24738374676E+03  0.82191930587E+02 0.  0.
         -6    2    1    2    0  502 -0.80435367603E+02 -0.82665187340E+02 -0.97880601802E+02  0.23110571552E+03  0.17471650746E+03 0.  0.
        -24    2    5    5    0    0 -0.43923375306E+02  0.84132667142E+01  0.73555795706E+00  0.91909281156E+02  0.80291524846E+02 0.  0.
          5    1    3    3  501    0  0.77351105017E+01  0.16956445868E+02  0.26799472096E+02  0.32979610301E+02  0.47000000000E+01 0. -1.
        -15    1    4    4    0    0 -0.17794677555E+02  0.18400935323E+02 -0.38241180900E+02  0.46052042471E+02  0.17770000000E+01 0.  1.
         16    1    4    4    0    0  0.90494934657E+02  0.47307806148E+02 -0.17351395746E+03  0.20133170429E+03  0.00000000000E+00 0. -1.
         -5    1    5    5    0  502 -0.36511992297E+02 -0.91078454054E+02 -0.98616159759E+02  0.13919643437E+03  0.47000000000E+01 0.  1.
         15    1    6    6    0    0 -0.44300799731E+02  0.14638844495E+02 -0.33273151971E+02  0.57333384655E+02  0.17770000000E+01 0. -1.
        -16    1    6    6    0    0  0.37742442436E+00 -0.62255777812E+01  0.34008709928E+02  0.34575896501E+02  0.00000000000E+00 0.  1.
<mgrwt>
<rscale>  2 0.21036371E+03</rscale>
<asrwt>0</asrwt>
<pdfrwt beam="1">  1       21 0.17587139E-01 0.21070124E+03</pdfrwt>
<pdfrwt beam="2">  1       21 0.61100411E-01 0.21070124E+03</pdfrwt>
<totfact> 0.72443743E+04</totfact>
</mgrwt>
</event>
<event>
12    2  0.4090627E-002  0.2176056E+03  0.7546771E-02  0.1135975E+00
         21   -1    0    0  501  502  0.00000000000E+00  0.00000000000E+00  0.17744991363E+04  0.17744991363E+04  0.00000000000E+00 0.  1.
         21   -1    0    0  502  503 -0.00000000000E+00 -0.00000000000E+00 -0.38111194499E+02  0.38111194499E+02  0.00000000000E+00 0.  1.
         -6    2    1    2    0  503 -0.48863942816E+02  0.12441657279E+03  0.36999694238E+03  0.42924345139E+03  0.17171206918E+03 0.  0.
        -24    2    3    3    0    0  0.21955092829E+02  0.72785778600E+02  0.28964063029E+03  0.31024638584E+03  0.81125393939E+02 0.  0.
          6    2    1    2  501    0  0.48863942816E+02 -0.12441657279E+03  0.13663909994E+04  0.13833668794E+04  0.16974213162E+03 0.  0.
         24    2    5    5    0    0 -0.53177190782E+01 -0.13654805659E+03  0.98798982631E+03  0.10008850325E+04  0.83506296403E+02 0.  0.
          5    1    5    5  501    0  0.54181661894E+02  0.12131483801E+02  0.37840117309E+03  0.38248184687E+03  0.47000000000E+01 0. -1.
        -15    1    6    6    0    0 -0.34587510188E+02 -0.78265821034E+02  0.38610531762E+03  0.39547731746E+03  0.17770000000E+01 0.  1.
         16    1    6    6    0    0  0.29269791110E+02 -0.58282235553E+02  0.60188450870E+03  0.60540771507E+03  0.00000000000E+00 0. -1.
         -5    1    3    3    0  503 -0.70819035644E+02  0.51630794186E+02  0.80356312081E+02  0.11899706555E+03  0.47000000000E+01 0.  1.
         15    1    4    4    0    0  0.17557516141E+02  0.70094523300E+02  0.29445218378E+03  0.30319425263E+03  0.17770000000E+01 0. -1.
        -16    1    4    4    0    0  0.43975766873E+01  0.26912552999E+01 -0.48115534841E+01  0.70521332050E+01  0.00000000000E+00 0.  1.
<mgrwt>
<rscale>  2 0.21721680E+03</rscale>
<asrwt>0</asrwt>
<pdfrwt beam="1">  1       21 0.27299980E+00 0.21760561E+03</pdfrwt>
<pdfrwt beam="2">  1       21 0.58632621E-02 0.21760561E+03</pdfrwt>
<totfact> 0.97787728E+03</totfact>
</mgrwt>
</event>
<event>
12    2  0.4090627E-002  0.1770542E+03  0.7546771E-02  0.1171221E+00
         21   -1    0    0  503  502  0.00000000000E+00  0.00000000000E+00  0.20075726712E+03  0.20075726712E+03  0.00000000000E+00 0.  1.
         21   -1    0    0  501  503 -0.00000000000E+00 -0.00000000000E+00 -0.12751367789E+04  0.12751367789E+04  0.00000000000E+00 0.  1.
          6    2    1    2  501    0 -0.24832657912E+02 -0.54823763244E+01 -0.12286637531E+04  0.12410497957E+04  0.17304120890E+03 0.  0.
         24    2    3    3    0    0 -0.72240237543E+02  0.20860612501E+02 -0.96878412260E+03  0.97552965711E+03  0.86380661233E+02 0.  0.
         -6    2    1    2    0  502  0.24832657912E+02  0.54823763244E+01  0.15428424129E+03  0.23484425030E+03  0.17521837073E+03 0.  0.
        -24    2    5    5    0    0  0.10184116231E+02 -0.62765982848E+02  0.11714037404E+03  0.15563455912E+03  0.80355235892E+02 0.  0.
          5    1    3    3  501    0  0.47407579631E+02 -0.26342988826E+02 -0.25987963049E+03  0.26552013861E+03  0.47000000000E+01 0. -1.
        -15    1    4    4    0    0 -0.45609814709E+02  0.34705031088E+02 -0.26623633295E+03  0.27234103086E+03  0.17770000000E+01 0.  1.
         16    1    4    4    0    0 -0.26630422834E+02 -0.13844418587E+02 -0.70254778965E+03  0.70318862625E+03  0.00000000000E+00 0. -1.
         -5    1    5    5    0  502  0.14648541681E+02  0.68248359172E+02  0.37143867250E+02  0.79209691183E+02  0.47000000000E+01 0.  1.
         15    1    6    6    0    0  0.21347911266E+02 -0.21785647920E+02 -0.50424679305E+00  0.30557482955E+02  0.17770000000E+01 0. -1.
        -16    1    6    6    0    0 -0.11163795035E+02 -0.40980334927E+02  0.11764462083E+03  0.12507707616E+03  0.00000000000E+00 0.  1.
<mgrwt>
<rscale>  2 0.17651316E+03</rscale>
<asrwt>0</asrwt>
<pdfrwt beam="1">  1       21 0.30885733E-01 0.17705421E+03</pdfrwt>
<pdfrwt beam="2">  1       21 0.19617489E+00 0.17705421E+03</pdfrwt>
<totfact> 0.14559175E+03</totfact>
</mgrwt>
</event>
<event>
12    2  0.4090627E-002  0.3388074E+03  0.7546771E-02  0.1067584E+00
         21   -1    0    0  503  502  0.00000000000E+00  0.00000000000E+00  0.14546234854E+03  0.14546234854E+03  0.00000000000E+00 0. -1.
         21   -1    0    0  501  503 -0.00000000000E+00 -0.00000000000E+00 -0.81833809712E+03  0.81833809712E+03  0.00000000000E+00 0.  1.
          6    2    1    2  501    0 -0.15251358798E+03 -0.24558243000E+03 -0.23521025305E+03  0.41031915241E+03  0.17165902031E+03 0.  0.
         24    2    3    3    0    0 -0.92355503644E+02 -0.50750802628E+02 -0.10141603237E+03  0.16639018402E+03  0.79342918366E+02 0.  0.
         -6    2    1    2    0  502  0.15251358798E+03  0.24558243000E+03 -0.43766549553E+03  0.55348129325E+03  0.17668993056E+03 0.  0.
        -24    2    5    5    0    0  0.11973654990E+02  0.13770119840E+03 -0.18014620289E+03  0.24086634004E+03  0.80367598508E+02 0.  0.
          5    1    3    3  501    0 -0.60158084332E+02 -0.19483162737E+03 -0.13379422068E+03  0.24392896840E+03  0.47000000000E+01 0. -1.
        -15    1    4    4    0    0  0.28494474104E+01  0.11278094145E+02 -0.29891378825E+02  0.32124243418E+02  0.17770000000E+01 0.  1.
         16    1    4    4    0    0 -0.95204951055E+02 -0.62028896774E+02 -0.71524653542E+02  0.13426594060E+03  0.00000000000E+00 0. -1.
         -5    1    5    5    0  502  0.14053993299E+03  0.10788123160E+03 -0.25751929264E+03  0.31261495322E+03  0.47000000000E+01 0.  1.
         15    1    6    6    0    0  0.43360360579E+02  0.10460061595E+03 -0.11558419331E+03  0.16181555302E+03  0.17770000000E+01 0. -1.
        -16    1    6    6    0    0 -0.31386705589E+02  0.33100582449E+02 -0.64562009581E+02  0.79050787013E+02  0.00000000000E+00 0.  1.
<mgrwt>
<rscale>  2 0.33815647E+03</rscale>
<asrwt>0</asrwt>
<pdfrwt beam="1">  1       21 0.22378823E-01 0.33880740E+03</pdfrwt>
<pdfrwt beam="2">  1       21 0.12589817E+00 0.33880740E+03</pdfrwt>
<totfact> 0.80538970E+03</totfact>
</mgrwt>
</event>
<event>
12    2  0.4090627E-002  0.1803259E+03  0.7546771E-02  0.1167506E+00
         21   -1    0    0  503  502  0.00000000000E+00  0.00000000000E+00  0.19713743308E+03  0.19713743308E+03  0.00000000000E+00 0.  1.
         21   -1    0    0  501  503 -0.00000000000E+00 -0.00000000000E+00 -0.16502688760E+03  0.16502688760E+03  0.00000000000E+00 0. -1.
          6    2    1    2  501    0 -0.43223607151E+02  0.24845843878E+02  0.10631429216E+02  0.18056371217E+03  0.17321844789E+03 0.  0.
         24    2    3    3    0    0 -0.53794448781E+02 -0.39918260781E+02 -0.21504949515E+02  0.10734507531E+03  0.81075224800E+02 0.  0.
         -6    2    1    2    0  502  0.43223607151E+02 -0.24845843878E+02  0.21479116270E+02  0.18160060851E+03  0.17329694863E+03 0.  0.
        -24    2    5    5    0    0  0.34167412311E+02 -0.79786319303E+02  0.34162950861E+02  0.12429929819E+03  0.82158015476E+02 0.  0.
          5    1    3    3  501    0  0.10570841630E+02  0.64764104659E+02  0.32136378732E+02  0.73218636855E+02  0.47000000000E+01 0. -1.
        -15    1    4    4    0    0 -0.64640887045E+02 -0.36526046845E+02 -0.40959699914E+02  0.84814215330E+02  0.17770000000E+01 0.  1.
         16    1    4    4    0    0  0.10846438263E+02 -0.33922139362E+01  0.19454750399E+02  0.22530859981E+02  0.00000000000E+00 0. -1.
         -5    1    5    5    0  502  0.90561948401E+01  0.54940475425E+02 -0.12683834591E+02  0.57301310324E+02  0.47000000000E+01 0.  1.
         15    1    6    6    0    0 -0.29427483562E+01 -0.39723612931E+02  0.53185461597E+02  0.66471619858E+02  0.17770000000E+01 0. -1.
        -16    1    6    6    0    0  0.37110160667E+02 -0.40062706372E+02 -0.19022510736E+02  0.57827678332E+02  0.00000000000E+00 0.  1.
<mgrwt>
<rscale>  2 0.18030703E+03</rscale>
<asrwt>0</asrwt>
<pdfrwt beam="1">  1       21 0.30328836E-01 0.18032590E+03</pdfrwt>
<pdfrwt beam="2">  1       21 0.25388752E-01 0.18032590E+03</pdfrwt>
<totfact> 0.15402139E+05</totfact>
</mgrwt>
</event>
<event>
12    2  0.4090627E-002  0.2223598E+03  0.7546771E-02  0.1132655E+00
         21   -1    0    0  501  502  0.00000000000E+00  0.00000000000E+00  0.77722907625E+02  0.77722907625E+02  0.00000000000E+00 0. -1.
         21   -1    0    0  502  503 -0.00000000000E+00 -0.00000000000E+00 -0.16387894108E+04  0.16387894108E+04  0.00000000000E+00 0.  1.
         -6    2    1    2    0  503 -0.51080226798E+02 -0.12729751360E+03 -0.14564114620E+04  0.14732882344E+04  0.17501436681E+03 0.  0.
        -24    2    3    3    0    0  0.27381842727E+02 -0.25919497151E+02 -0.75353292454E+03  0.75879951725E+03  0.80890378805E+02 0.  0.
          6    2    1    2  501    0  0.51080226798E+02  0.12729751360E+03 -0.10465504126E+03  0.24322408406E+03  0.17143929207E+03 0.  0.
         24    2    5    5    0    0  0.54951443526E+01  0.12588264305E+03 -0.12341336568E+03  0.19368655954E+03  0.80043663615E+02 0.  0.
          5    1    5    5  501    0  0.45585082445E+02  0.14148705495E+01  0.18758324421E+02  0.49537524517E+02  0.47000000000E+01 0. -1.
        -15    1    6    6    0    0  0.13686561157E+02  0.12573476672E+03 -0.13129851153E+03  0.18231568878E+03  0.17770000000E+01 0.  1.
         16    1    6    6    0    0 -0.81914168049E+01  0.14787633137E+00  0.78851458486E+01  0.11370870755E+02  0.00000000000E+00 0. -1.
         -5    1    3    3    0  503 -0.78462069525E+02 -0.10137801645E+03 -0.70287853742E+03  0.71448871715E+03  0.47000000000E+01 0.  1.
         15    1    4    4    0    0  0.26499161706E+02 -0.43235780805E+02 -0.25685257568E+03  0.26181661841E+03  0.17770000000E+01 0. -1.
        -16    1    4    4    0    0  0.88268102110E+00  0.17316283654E+02 -0.49668034885E+03  0.49698289884E+03  0.00000000000E+00 0.  1.
<mgrwt>
<rscale>  2 0.22165575E+03</rscale>
<asrwt>0</asrwt>
<pdfrwt beam="1">  1       21 0.11957371E-01 0.22235979E+03</pdfrwt>
<pdfrwt beam="2">  1       21 0.25212143E+00 0.22235979E+03</pdfrwt>
<totfact> 0.37018031E+03</totfact>
</mgrwt>
</event>
<event>
12    2  0.4090627E-002  0.1943330E+03  0.7546771E-02  0.1155527E+00
         21   -1    0    0  501  502  0.00000000000E+00  0.00000000000E+00  0.53795881138E+03  0.53795881138E+03  0.00000000000E+00 0. -1.
         21   -1    0    0  502  503 -0.00000000000E+00 -0.00000000000E+00 -0.71519226214E+02  0.71519226214E+02  0.00000000000E+00 0. -1.
         -6    2    1    2    0  503  0.40934172071E+02 -0.75224863700E+02  0.17528469675E+03  0.26170598404E+03  0.17444457746E+03 0.  0.
        -24    2    3    3    0    0  0.38723716885E+01 -0.81993106459E+01  0.15722881701E+03  0.18287637917E+03  0.92955070894E+02 0.  0.
          6    2    1    2  501    0 -0.40934172071E+02  0.75224863700E+02  0.29115488841E+03  0.34777205355E+03  0.16982298320E+03 0.  0.
         24    2    5    5    0    0 -0.36879331699E+02 -0.22673692347E+02  0.11925189407E+03  0.14984959785E+03  0.79747766778E+02 0.  0.
          5    1    5    5  501    0 -0.40548403715E+01  0.97898556048E+02  0.17190299434E+03  0.19792245570E+03  0.47000000000E+01 0. -1.
        -15    1    6    6    0    0 -0.56850333179E+02 -0.21931453653E+01  0.10094565931E+03  0.11588767894E+03  0.17770000000E+01 0.  1.
         16    1    6    6    0    0  0.19971001480E+02 -0.20480546982E+02  0.18306234766E+02  0.33961918911E+02  0.00000000000E+00 0. -1.
         -5    1    3    3    0  503  0.37061800382E+02 -0.67025553054E+02  0.18055879746E+02  0.78829604865E+02  0.47000000000E+01 0.  1.
         15    1    4    4    0    0 -0.37043556166E+00 -0.20938223334E+01 -0.12591783616E+02  0.12893101182E+02  0.17770000000E+01 0. -1.
        -16    1    4    4    0    0  0.42428072502E+01 -0.61054883125E+01  0.16982060062E+03  0.16998327799E+03  0.00000000000E+00 0.  1.
<mgrwt>
<rscale>  2 0.19329016E+03</rscale>
<asrwt>0</asrwt>
<pdfrwt beam="1">  1       21 0.82762891E-01 0.19433295E+03</pdfrwt>
<pdfrwt beam="2">  1       21 0.11002958E-01 0.19433295E+03</pdfrwt>
<totfact> 0.87171732E+04</totfact>
</mgrwt>
</event>
<event>
12    2  0.4090627E-002  0.2520489E+03  0.7546771E-02  0.1112242E+00
         21   -1    0    0  503  502  0.00000000000E+00  0.00000000000E+00  0.55226105853E+03  0.55226105853E+03  0.00000000000E+00 0.  1.
         21   -1    0    0  501  503 -0.00000000000E+00 -0.00000000000E+00 -0.12445950529E+03  0.12445950529E+03  0.00000000000E+00 0. -1.
          6    2    1    2  501    0 -0.17657623113E+03  0.40437130928E+02  0.11703867568E+03  0.27659283995E+03  0.17317973480E+03 0.  0.
         24    2    3    3    0    0 -0.18250696733E+03  0.47664622599E+02  0.14201398400E+03  0.24951394977E+03  0.80675461625E+02 0.  0.
         -6    2    1    2    0  502  0.17657623113E+03 -0.40437130928E+02  0.31076287757E+03  0.40012772387E+03  0.17525496393E+03 0.  0.
        -24    2    5    5    0    0  0.17368297499E+03 -0.73584526414E+02  0.20882055808E+03  0.29278971914E+03  0.80866159975E+02 0.  0.
          5    1    3    3  501    0  0.59307361920E+01 -0.72274916715E+01 -0.24975308317E+02  0.27078890176E+02  0.47000000000E+01 0. -1.
        -15    1    4    4    0    0 -0.32731942747E+02 -0.22137456481E+02  0.33417437066E+02  0.51781559309E+02  0.17770000000E+01 0.  1.
         16    1    4    4    0    0 -0.14977502458E+03  0.69802079080E+02  0.10859654693E+03  0.19773239046E+03  0.00000000000E+00 0. -1.
         -5    1    5    5    0  502  0.28932561468E+01  0.33147395486E+02  0.10194231948E+03  0.10733800473E+03  0.47000000000E+01 0.  1.
         15    1    6    6    0    0  0.33417416540E+02 -0.54104805035E+02  0.64191407916E+02  0.90375595352E+02  0.17770000000E+01 0. -1.
        -16    1    6    6    0    0  0.14026555845E+03 -0.19479721379E+02  0.14462915017E+03  0.20241412379E+03  0.00000000000E+00 0.  1.
<mgrwt>
<rscale>  2 0.25168846E+03</rscale>
<asrwt>0</asrwt>
<pdfrwt beam="1">  1       21 0.84963239E-01 0.25204886E+03</pdfrwt>
<pdfrwt beam="2">  1       21 0.19147616E-01 0.25204886E+03</pdfrwt>
<totfact> 0.29128095E+04</totfact>
</mgrwt>
</event>
<event>
12    2  0.4090627E-002  0.1944694E+03  0.7546771E-02  0.1154540E+00
         21   -1    0    0  503  502  0.00000000000E+00  0.00000000000E+00  0.31351079990E+03  0.31351079990E+03  0.00000000000E+00 0. -1.
         21   -1    0    0  501  503 -0.00000000000E+00 -0.00000000000E+00 -0.71384069661E+03  0.71384069661E+03  0.00000000000E+00 0. -1.
          6    2    1    2  501    0  0.80603300461E+02  0.38690494505E+02 -0.66850676354E+03  0.69621810585E+03  0.17269774640E+03 0.  0.
         24    2    3    3    0    0  0.72799272162E+02  0.80738279956E+02 -0.35749419783E+03  0.38224386304E+03  0.80559701313E+02 0.  0.
         -6    2    1    2    0  502 -0.80603300461E+02 -0.38690494505E+02  0.26817686683E+03  0.33113339066E+03  0.17244316193E+03 0.  0.
        -24    2    5    5    0    0  0.11128263271E+02  0.10751464903E+02  0.16919274279E+03  0.18733097779E+03  0.78913109098E+02 0.  0.
          5    1    3    3  501    0  0.78040282984E+01 -0.42047785451E+02 -0.31101256571E+03  0.31397424281E+03  0.47000000000E+01 0. -1.
        -15    1    4    4    0    0 -0.76528574126E+01 -0.14510075920E+01 -0.98957305488E+02  0.99279291336E+02  0.17770000000E+01 0.  1.
         16    1    4    4    0    0  0.80452129575E+02  0.82189287548E+02 -0.25853689234E+03  0.28296457171E+03  0.00000000000E+00 0. -1.
         -5    1    5    5    0  502 -0.91731563731E+02 -0.49441959408E+02  0.98984124041E+02  0.14380241287E+03  0.47000000000E+01 0.  1.
         15    1    6    6    0    0  0.23373077109E+02  0.75014307598E+01  0.83490972484E+01  0.25989177572E+02  0.17770000000E+01 0. -1.
        -16    1    6    6    0    0 -0.12244813839E+02  0.32500341430E+01  0.16084364554E+03  0.16134180022E+03  0.00000000000E+00 0.  1.
<mgrwt>
<rscale>  2 0.19441289E+03</rscale>
<asrwt>0</asrwt>
<pdfrwt beam="1">  1       21 0.48232431E-01 0.19446943E+03</pdfrwt>
<pdfrwt beam="2">  1       21 0.10982165E+00 0.19446943E+03</pdfrwt>
<totfact> 0.26883780E+03</totfact>
</mgrwt>
</event>
<event>
12    2  0.4090627E-002  0.2144298E+03  0.7546771E-02  0.1138299E+00
         21   -1    0    0  501  502  0.00000000000E+00  0.00000000000E+00  0.35923368148E+02  0.35923368148E+02  0.00000000000E+00 0.  1.
         21   -1    0    0  502  503 -0.00000000000E+00 -0.00000000000E+00 -0.14461258119E+04  0.14461258119E+04  0.00000000000E+00 0.  1.
         -6    2    1    2    0  503 -0.74793053150E+02  0.99464251106E+02 -0.45088192529E+03  0.49927413958E+03  0.17462250099E+03 0.  0.
        -24    2    3    3    0    0 -0.21065471608E+02  0.12162559264E+03 -0.33058830803E+03  0.36559384024E+03  0.95570328763E+02 0.  0.
          6    2    1    2  501    0  0.74793053150E+02 -0.99464251106E+02 -0.95932051844E+03  0.98277504045E+03  0.17338911436E+03 0.  0.
         24    2    5    5    0    0  0.23680675243E+00 -0.46737490567E+02 -0.25009310513E+03  0.26767759328E+03  0.83188242010E+02 0.  0.
          5    1    5    5  501    0  0.74556246398E+02 -0.52726760540E+02 -0.70922741331E+03  0.71509744716E+03  0.47000000000E+01 0. -1.
        -15    1    6    6    0    0  0.46889441886E+01 -0.36085542506E+02 -0.25313124909E+03  0.25573959328E+03  0.17770000000E+01 0.  1.
         16    1    6    6    0    0 -0.44521374361E+01 -0.10651948060E+02  0.30381439626E+01  0.11937999999E+02  0.00000000000E+00 0. -1.
         -5    1    3    3    0  503 -0.53727581542E+02 -0.22161341529E+02 -0.12029361726E+03  0.13368029933E+03  0.47000000000E+01 0.  1.
         15    1    4    4    0    0 -0.44718857178E+02  0.55164337730E+02 -0.24277425808E+03  0.25295331281E+03  0.17770000000E+01 0. -1.
        -16    1    4    4    0    0  0.23653385570E+02  0.66461254906E+02 -0.87814049947E+02  0.11264052743E+03  0.00000000000E+00 0.  1.
<mgrwt>
<rscale>  2 0.21417859E+03</rscale>
<asrwt>0</asrwt>
<pdfrwt beam="1">  1       21 0.55266718E-02 0.21442984E+03</pdfrwt>
<pdfrwt beam="2">  1       21 0.22248091E+00 0.21442984E+03</pdfrwt>
<totfact> 0.21670069E+04</totfact>
</mgrwt>
</event>
<event>
12    2  0.4090627E-002  0.1866496E+03  0.7546771E-02  0.1162326E+00
         21   -1    0    0  503  502  0.00000000000E+00  0.00000000000E+00  0.35952827497E+02  0.35952827497E+02  0.00000000000E+00 0.  1.
         21   -1    0    0  501  503 -0.00000000000E+00 -0.00000000000E+00 -0.11051434389E+04  0.11051434389E+04  0.00000000000E+00 0.  1.
          6    2    1    2  501    0 -0.62689602425E+02 -0.17607318420E+02 -0.74329978312E+03  0.76553945559E+03  0.17121941062E+03 0.  0.
         24    2    3    3    0    0 -0.56365520576E+02  0.24149476712E+02 -0.26307372822E+03  0.28343699993E+03  0.85839835249E+02 0.  0.
         -6    2    1    2    0  502  0.62689602425E+02  0.17607318420E+02 -0.32589082826E+03  0.37555681078E+03  0.17492307528E+03 0.  0.
        -24    2    5    5    0    0  0.73709892076E+02  0.15780970995E+02 -0.33979066377E+03  0.35711561353E+03  0.79947976883E+02 0.  0.
          5    1    3    3  501    0 -0.63240818482E+01 -0.41756795132E+02 -0.48022605490E+03  0.48210245566E+03  0.47000000000E+01 0. -1.
        -15    1    4    4    0    0 -0.21979056893E+01 -0.17003419373E+02 -0.15349331703E+03  0.15445809516E+03  0.17770000000E+01 0.  1.
         16    1    4    4    0    0 -0.54167614887E+02  0.41152896085E+02 -0.10958041119E+03  0.12897890477E+03  0.00000000000E+00 0. -1.
         -5    1    5    5    0  502 -0.11020289651E+02  0.18263474246E+01  0.13899835507E+02  0.18441197251E+02  0.47000000000E+01 0.  1.
         15    1    6    6    0    0  0.57480486348E+01  0.27316705697E+02 -0.19214688735E+03  0.19417215692E+03  0.17770000000E+01 0. -1.
        -16    1    6    6    0    0  0.67961843441E+02 -0.11535734702E+02 -0.14764377641E+03  0.16294345661E+03  0.00000000000E+00 0.  1.
<mgrwt>
<rscale>  2 0.18577693E+03</rscale>
<asrwt>0</asrwt>
<pdfrwt beam="1">  1       21 0.55312043E-02 0.18664963E+03</pdfrwt>
<pdfrwt beam="2">  1       21 0.17002206E+00 0.18664963E+03</pdfrwt>
<totfact> 0.48501336E+04</totfact>
</mgrwt>
</event>
<event>
12    2  0.4090627E-002  0.2058774E+03  0.7546771E-02  0.1145006E+00
         21   -1    0    0  501  502  0.00000000000E+00  0.00000000000E+00  0.69813624865E+02  0.69813624865E+02  0.00000000000E+00 0. -1.
         21   -1    0    0  502  503 -0.00000000000E+00 -0.00000000000E+00 -0.12925913399E+04  0.12925913399E+04  0.00000000000E+00 0. -1.
         -6    2    1    2    0  503  0.48513299520E+01  0.11406203063E+03 -0.11076955611E+04  0.11265460581E+04  0.17053704237E+03 0.  0.
        -24    2    3    3    0    0  0.53894751318E+02  0.75917400320E+02 -0.93306258960E+03  0.94113021542E+03  0.80325527519E+02 0.  0.
          6    2    1    2  501    0 -0.48513299520E+01 -0.11406203063E+03 -0.11508215394E+03  0.23585890662E+03  0.17132378539E+03 0.  0.
         24    2    5    5    0    0 -0.13286834284E+02 -0.23148467341E+02 -0.11660628574E+03  0.14442124096E+03  0.80920191927E+02 0.  0.
          5    1    5    5  501    0  0.84355043317E+01 -0.90913563292E+02  0.15241317937E+01  0.91437665661E+02  0.47000000000E+01 0. -1.
        -15    1    6    6    0    0  0.89754714445E+01 -0.32165606183E+02 -0.11564467122E+03  0.12038286016E+03  0.17770000000E+01 0.  1.
         16    1    6    6    0    0 -0.22262305728E+02  0.90171388420E+01 -0.96161451762E+00  0.24038380805E+02  0.00000000000E+00 0. -1.
         -5    1    3    3    0  503 -0.49043421366E+02  0.38144630313E+02 -0.17463297148E+03  0.18541584271E+03  0.47000000000E+01 0.  1.
         15    1    4    4    0    0  0.43247628651E+01  0.68623906572E+02 -0.65383601932E+03  0.65744402196E+03  0.17770000000E+01 0. -1.
        -16    1    4    4    0    0  0.49569988453E+02  0.72934937488E+01 -0.27922657028E+03  0.28368619346E+03  0.00000000000E+00 0.  1.
<mgrwt>
<rscale>  2 0.20571369E+03</rscale>
<asrwt>0</asrwt>
<pdfrwt beam="1">  1       21 0.10740558E-01 0.20587744E+03</pdfrwt>
<pdfrwt beam="2">  1       21 0.19886019E+00 0.20587744E+03</pdfrwt>
<totfact> 0.96567715E+03</totfact>
</mgrwt>
</event>
<event>
12    2  0.4090627E-002  0.4646181E+03  0.7546771E-02  0.1023461E+00
         21   -1    0    0  501  502  0.00000000000E+00  0.00000000000E+00  0.19168968295E+03  0.19168968295E+03  0.00000000000E+00 0. -1.
         21   -1    0    0  502  503 -0.00000000000E+00 -0.00000000000E+00 -0.17744827017E+04  0.17744827017E+04  0.00000000000E+00 0.  1.
         -6    2    1    2    0  503  0.15448125128E+03 -0.40264307371E+03 -0.13857179114E+04  0.14614857451E+04  0.17245449023E+03 0.  0.
        -24    2    3    3    0    0  0.13526050035E+02 -0.16513707546E+03 -0.38752846258E+03  0.42578224805E+03  0.60489715839E+02 0.  0.
          6    2    1    2  501    0 -0.15448125128E+03  0.40264307371E+03 -0.19707510738E+03  0.50468663963E+03  0.17287019542E+03 0.  0.
         24    2    5    5    0    0 -0.63810748040E+01  0.15067373713E+03 -0.91055997013E+02  0.19374556706E+03  0.80640293802E+02 0.  0.
          5    1    5    5  501    0 -0.14810017648E+03  0.25196933658E+03 -0.10601911037E+03  0.31094107258E+03  0.47000000000E+01 0. -1.
        -15    1    6    6    0    0 -0.23547732709E+02  0.34760245887E+02  0.48790854713E+01  0.42305243338E+02  0.17770000000E+01 0.  1.
         16    1    6    6    0    0  0.17166657905E+02  0.11591349124E+03 -0.95935082485E+02  0.15144032372E+03  0.00000000000E+00 0. -1.
         -5    1    3    3    0  503  0.14095520125E+03 -0.23750599825E+03 -0.99818944882E+03  0.10357034970E+04  0.47000000000E+01 0.  1.
         15    1    4    4    0    0 -0.20569358340E+02 -0.54549685047E+02 -0.16420282497E+03  0.17425410210E+03  0.17770000000E+01 0. -1.
        -16    1    4    4    0    0  0.34095408375E+02 -0.11058739042E+03 -0.22332563761E+03  0.25152814595E+03  0.00000000000E+00 0.  1.
<mgrwt>
<rscale>  2 0.46457950E+03</rscale>
<asrwt>0</asrwt>
<pdfrwt beam="1">  1       21 0.29490722E-01 0.46461813E+03</pdfrwt>
<pdfrwt beam="2">  1       21 0.27299732E+00 0.46461813E+03</pdfrwt>
<totfact> 0.42822756E+02</totfact>
</mgrwt>
</event>
<event>
12    2  0.4090627E-002  0.1767641E+03  0.7546771E-02  0.1171695E+00
         21   -1    0    0  503  502  0.00000000000E+00  0.00000000000E+00  0.13871471490E+03  0.13871471490E+03  0.00000000000E+00 0. -1.
         21   -1    0    0  501  503 -0.00000000000E+00 -0.00000000000E+00 -0.51188791144E+03  0.51188791144E+03  0.00000000000E+00 0. -1.
          6    2    1    2  501    0 -0.23497580354E+02 -0.19060043745E+02 -0.43089570526E+03  0.46465253654E+03  0.17121754976E+03 0.  0.
         24    2    3    3    0    0 -0.44458347368E+02  0.36028610173E+02 -0.16481253596E+03  0.19207877307E+03  0.80352210004E+02 0.  0.
         -6    2    1    2    0  502  0.23497580354E+02  0.19060043745E+02  0.57722508723E+02  0.18595008980E+03  0.17415546598E+03 0.  0.
        -24    2    5    5    0    0  0.57302226677E+02  0.51935678647E+02  0.76527378366E+02  0.13496700824E+03  0.79867351112E+02 0.  0.
          5    1    3    3  501    0  0.20960767014E+02 -0.55088653917E+02 -0.26608316931E+03  0.27257376347E+03  0.47000000000E+01 0. -1.
        -15    1    4    4    0    0 -0.14017884772E+02 -0.25136295653E+02 -0.65156134964E+02  0.71251765628E+02  0.17770000000E+01 0.  1.
         16    1    4    4    0    0 -0.30440462597E+02  0.61164905826E+02 -0.99656400991E+02  0.12082700744E+03  0.00000000000E+00 0. -1.
         -5    1    5    5    0  502 -0.33804646323E+02 -0.32875634902E+02 -0.18804869643E+02  0.50983081562E+02  0.47000000000E+01 0.  1.
         15    1    6    6    0    0  0.14591829113E+02  0.57533918604E+02  0.17525947139E+02  0.61914374897E+02  0.17770000000E+01 0. -1.
        -16    1    6    6    0    0  0.42710397564E+02 -0.55982399572E+01  0.59001431228E+02  0.73052633338E+02  0.00000000000E+00 0.  1.
<mgrwt>
<rscale>  2 0.17603616E+03</rscale>
<asrwt>0</asrwt>
<pdfrwt beam="1">  1       21 0.21340725E-01 0.17676410E+03</pdfrwt>
<pdfrwt beam="2">  1       21 0.78751987E-01 0.17676410E+03</pdfrwt>
<totfact> 0.29387817E+04</totfact>
</mgrwt>
</event>
<event>
12    2  0.4090627E-002  0.1768888E+03  0.7546771E-02  0.1171651E+00
         21   -1    0    0  501  502  0.00000000000E+00  0.00000000000E+00  0.18797817614E+03  0.18797817614E+03  0.00000000000E+00 0. -1.
         21   -1    0    0  502  503 -0.00000000000E+00 -0.00000000000E+00 -0.18324469900E+03  0.18324469900E+03  0.00000000000E+00 0. -1.
         -6    2    1    2    0  503  0.38410279967E+02  0.54602914180E+01 -0.58624483670E+02  0.18635039148E+03  0.17258178910E+03 0.  0.
        -24    2    3    3    0    0 -0.29074283917E+01  0.37300219330E+02  0.20817593434E+02  0.91197526842E+02  0.80522401875E+02 0.  0.
          6    2    1    2  501    0 -0.38410279967E+02 -0.54602914180E+01  0.63357960801E+02  0.18487248367E+03  0.16928803747E+03 0.  0.
         24    2    5    5    0    0 -0.38600584037E+02  0.12886601200E+01 -0.28989229524E+02  0.92159603635E+02  0.78494276103E+02 0.  0.
          5    1    5    5  501    0  0.19030406984E+00 -0.67489515380E+01  0.92347190325E+02  0.92712880030E+02  0.47000000000E+01 0. -1.
        -15    1    6    6    0    0  0.11462433658E+02  0.24417324863E+02 -0.25078174272E+02  0.36873644960E+02  0.17770000000E+01 0.  1.
         16    1    6    6    0    0 -0.50063017694E+02 -0.23128664743E+02 -0.39110552523E+01  0.55285958675E+02  0.00000000000E+00 0. -1.
         -5    1    3    3    0  503  0.41317708358E+02 -0.31839927912E+02 -0.79442077104E+02  0.95152864634E+02  0.47000000000E+01 0.  1.
         15    1    4    4    0    0  0.61208141913E+01  0.31108621916E+02 -0.27283775239E+02  0.41866130035E+02  0.17770000000E+01 0. -1.
        -16    1    4    4    0    0 -0.90282425831E+01  0.61915974143E+01  0.48101368673E+02  0.49331396806E+02  0.00000000000E+00 0.  1.
<mgrwt>
<rscale>  2 0.17608023E+03</rscale>
<asrwt>0</asrwt>
<pdfrwt beam="1">  1       21 0.28919719E-01 0.17688877E+03</pdfrwt>
<pdfrwt beam="2">  1       21 0.28191492E-01 0.17688877E+03</pdfrwt>
<totfact> 0.13832695E+05</totfact>
</mgrwt>
</event>
<event>
12    2  0.4090627E-002  0.2732886E+03  0.7546771E-02  0.1099553E+00
         21   -1    0    0  501  502  0.00000000000E+00  0.00000000000E+00  0.11392297532E+04  0.11392297532E+04  0.00000000000E+00 0. -1.
         21   -1    0    0  502  503 -0.00000000000E+00 -0.00000000000E+00 -0.69701113343E+02  0.69701113343E+02  0.00000000000E+00 0. -1.
         -6    2    1    2    0  503 -0.15285619857E+03  0.14653198358E+03  0.38412303612E+03  0.47142035982E+03  0.17277155184E+03 0.  0.
        -24    2    3    3    0    0 -0.12720870067E+03  0.33425249702E+02  0.25399804281E+03  0.29704854076E+03  0.80146921201E+02 0.  0.
          6    2    1    2  501    0  0.15285619857E+03 -0.14653198358E+03  0.68540560376E+03  0.73751050675E+03  0.17118488905E+03 0.  0.
         24    2    5    5    0    0  0.45123263325E+02 -0.12567524928E+03  0.32923997391E+03  0.36479421438E+03  0.82737423541E+02 0.  0.
          5    1    5    5  501    0  0.10773293524E+03 -0.20856734296E+02  0.35616562986E+03  0.37271629236E+03  0.47000000000E+01 0. -1.
        -15    1    6    6    0    0  0.22058136594E+02 -0.79741892249E+02  0.99704052285E+02  0.12957386519E+03  0.17770000000E+01 0.  1.
         16    1    6    6    0    0  0.23065126730E+02 -0.45933357033E+02  0.22953592162E+03  0.23522034919E+03  0.00000000000E+00 0. -1.
         -5    1    3    3    0  503 -0.25647497898E+02  0.11310673388E+03  0.13012499331E+03  0.17437181906E+03  0.47000000000E+01 0.  1.
         15    1    4    4    0    0 -0.50608644543E+02  0.47980440188E+02  0.16246099345E+03  0.17680523087E+03  0.17770000000E+01 0. -1.
        -16    1    4    4    0    0 -0.76600056125E+02 -0.14555190486E+02  0.91537049357E+02  0.12024330989E+03  0.00000000000E+00 0.  1.
<mgrwt>
<rscale>  2 0.27303816E+03</rscale>
<asrwt>0</asrwt>
<pdfrwt beam="1">  1       21 0.17526610E+00 0.27328858E+03</pdfrwt>
<pdfrwt beam="2">  1       21 0.10723249E-01 0.27328858E+03</pdfrwt>
<totfact> 0.13337351E+04</totfact>
</mgrwt>
</event>
<event>
12    2  0.4090627E-002  0.2483757E+03  0.7546771E-02  0.1114975E+00
         21   -1    0    0  501  502  0.00000000000E+00  0.00000000000E+00  0.32623332560E+03  0.32623332560E+03  0.00000000000E+00 0. -1.
         21   -1    0    0  502  503 -0.00000000000E+00 -0.00000000000E+00 -0.27058475995E+03  0.27058475995E+03  0.00000000000E+00 0.  1.
         -6    2    1    2    0  503  0.81270020500E+02  0.15722560519E+03 -0.13877753688E+03  0.28451659175E+03  0.17425779488E+03 0.  0.
        -24    2    3    3    0    0 -0.18527695757E+02  0.92823827275E+02 -0.97067341746E+02  0.15854435851E+03  0.82187020636E+02 0.  0.
          6    2    1    2  501    0 -0.81270020500E+02 -0.15722560519E+03  0.19442610252E+03  0.31230149380E+03  0.16854081562E+03 0.  0.
         24    2    5    5    0    0 -0.43516265662E+01 -0.91286079005E+02  0.16928799396E+03  0.20780998725E+03  0.78577866036E+02 0.  0.
          5    1    5    5  501    0 -0.76918393934E+02 -0.65939526187E+02  0.25138108565E+02  0.10449150655E+03  0.47000000000E+01 0. -1.
        -15    1    6    6    0    0 -0.18171940971E+02 -0.40130165332E+02  0.14102064357E+03  0.14775191792E+03  0.17770000000E+01 0.  1.
         16    1    6    6    0    0  0.13820314405E+02 -0.51155913674E+02  0.28267350390E+02  0.60058069334E+02  0.00000000000E+00 0. -1.
         -5    1    3    3    0  503  0.99797716257E+02  0.64401777917E+02 -0.41710195131E+02  0.12597223324E+03  0.47000000000E+01 0.  1.
         15    1    4    4    0    0 -0.18858258331E+02  0.30520983565E+02 -0.88679564024E+02  0.95678561598E+02  0.17770000000E+01 0. -1.
        -16    1    4    4    0    0  0.33056257397E+00  0.62302843711E+02 -0.83877777226E+01  0.62865796910E+02  0.00000000000E+00 0.  1.
<mgrwt>
<rscale>  2 0.24737541E+03</rscale>
<asrwt>0</asrwt>
<pdfrwt beam="1">  1       21 0.50189742E-01 0.24837570E+03</pdfrwt>
<pdfrwt beam="2">  1       21 0.41628425E-01 0.24837570E+03</pdfrwt>
<totfact> 0.20375004E+04</totfact>
</mgrwt>
</event>
<event>
12    2  0.4090627E-002  0.2086597E+03  0.7546771E-02  0.1143411E+00
         21   -1    0    0  503  502  0.00000000000E+00  0.00000000000E+00  0.29465572622E+02  0.29465572622E+02  0.00000000000E+00 0. -1.
         21   -1    0    0  501  503 -0.00000000000E+00 -0.00000000000E+00 -0.15043103294E+04  0.15043103294E+04  0.00000000000E+00 0. -1.
          6    2    1    2  501    0  0.98108947081E+02 -0.60247684916E+02 -0.58558310789E+03  0.62036188648E+03  0.16936984654E+03 0.  0.
         24    2    3    3    0    0 -0.21085156108E+01 -0.25640864989E+02 -0.11862377913E+03  0.14149418395E+03  0.72712470185E+02 0.  0.
         -6    2    1    2    0  502 -0.98108947081E+02  0.60247684916E+02 -0.88926164889E+03  0.91341401555E+03  0.17402222435E+03 0.  0.
        -24    2    5    5    0    0 -0.82869012614E+02  0.65418365789E+02 -0.34884556302E+03  0.37273793191E+03  0.78060894264E+02 0.  0.
          5    1    3    3  501    0  0.10021746269E+03 -0.34606819927E+02 -0.46695932876E+03  0.47886770253E+03  0.47000000000E+01 0. -1.
        -15    1    4    4    0    0 -0.15592848083E+02  0.17677292010E+02 -0.14039393822E+02  0.27493378694E+02  0.17770000000E+01 0.  1.
         16    1    4    4    0    0  0.13484332472E+02 -0.43318156999E+02 -0.10458438531E+03  0.11400080526E+03  0.00000000000E+00 0. -1.
         -5    1    5    5    0  502 -0.15239934467E+02 -0.51706808723E+01 -0.54041608587E+03  0.54067608363E+03  0.47000000000E+01 0.  1.
         15    1    6    6    0    0 -0.57220841038E+02  0.71332606902E+02 -0.32355954701E+03  0.33623875989E+03  0.17770000000E+01 0. -1.
        -16    1    6    6    0    0 -0.25648171577E+02 -0.59142411137E+01 -0.25286016007E+02  0.36499172027E+02  0.00000000000E+00 0.  1.
<mgrwt>
<rscale>  2 0.20768695E+03</rscale>
<asrwt>0</asrwt>
<pdfrwt beam="1">  1       21 0.45331646E-02 0.20865973E+03</pdfrwt>
<pdfrwt beam="2">  1       21 0.23143238E+00 0.20865973E+03</pdfrwt>
<totfact> 0.26881271E+04</totfact>
</mgrwt>
</event>
<event>
12    2  0.4090627E-002  0.2001588E+03  0.7546771E-02  0.1150786E+00
         21   -1    0    0  503  502  0.00000000000E+00  0.00000000000E+00  0.91096914419E+02  0.91096914419E+02  0.00000000000E+00 0.  1.
         21   -1    0    0  501  503 -0.00000000000E+00 -0.00000000000E+00 -0.10366262859E+04  0.10366262859E+04  0.00000000000E+00 0.  1.
          6    2    1    2  501    0 -0.87268120606E+02 -0.17719154004E+02 -0.90762151495E+03  0.92943012271E+03  0.17925915686E+03 0.  0.
         24    2    3    3    0    0  0.22679684319E+02 -0.60438771899E+00 -0.30998725971E+03  0.32150724268E+03  0.82219660351E+02 0.  0.
         -6    2    1    2    0  502  0.87268120606E+02  0.17719154004E+02 -0.37907856541E+02  0.19829307761E+03  0.17307063803E+03 0.  0.
        -24    2    5    5    0    0  0.11686976066E+03  0.50890816470E+02 -0.29010609531E+02  0.15270944800E+03  0.78931260494E+02 0.  0.
          5    1    3    3  501    0 -0.10994780492E+03 -0.17114766285E+02 -0.59763425523E+03  0.60792288003E+03  0.47000000000E+01 0. -1.
        -15    1    4    4    0    0  0.58715231243E+00  0.38378864567E+02 -0.10865645641E+03  0.11525044573E+03  0.17770000000E+01 0.  1.
         16    1    4    4    0    0  0.22092532006E+02 -0.38983252286E+02 -0.20133080331E+03  0.20625679695E+03  0.00000000000E+00 0. -1.
         -5    1    5    5    0  502 -0.29601640058E+02 -0.33171662466E+02 -0.88972470102E+01  0.45583629619E+02  0.47000000000E+01 0.  1.
         15    1    6    6    0    0 -0.71586061799E+01  0.51172536467E+01 -0.17916132454E+02  0.20039397656E+02  0.17770000000E+01 0. -1.
        -16    1    6    6    0    0  0.12402836684E+03  0.45773562823E+02 -0.11094477077E+02  0.13267005034E+03  0.00000000000E+00 0.  1.
<mgrwt>
<rscale>  2 0.19876355E+03</rscale>
<asrwt>0</asrwt>
<pdfrwt beam="1">  1       21 0.14014910E-01 0.20015878E+03</pdfrwt>
<pdfrwt beam="2">  1       21 0.15948097E+00 0.20015878E+03</pdfrwt>
<totfact> 0.11204211E+04</totfact>
</mgrwt>
</event>
<event>
12    2  0.4090627E-002  0.2088652E+03  0.7546771E-02  0.1142680E+00
         21   -1    0    0  501  502  0.00000000000E+00  0.00000000000E+00  0.64748761131E+03  0.64748761131E+03  0.00000000000E+00 0.  1.
         21   -1    0    0  502  503 -0.00000000000E+00 -0.00000000000E+00 -0.67667644925E+02  0.67667644925E+02  0.00000000000E+00 0.  1.
         -6    2    1    2    0  503  0.88299580686E+02 -0.76737335463E+02  0.25602571285E+03  0.33041462995E+03  0.17302955655E+03 0.  0.
        -24    2    3    3    0    0  0.57675141582E+02  0.21224950058E+02  0.16347565372E+03  0.19213206018E+03  0.80084447491E+02 0.  0.
          6    2    1    2  501    0 -0.88299580686E+02  0.76737335463E+02  0.32379425353E+03  0.38474062629E+03  0.17174747827E+03 0.  0.
         24    2    5    5    0    0 -0.10074889889E+03  0.10955482261E+03  0.23770657228E+03  0.29165382888E+03  0.80030879135E+02 0.  0.
          5    1    5    5  501    0  0.12449318205E+02 -0.32817487147E+02  0.86087681257E+02  0.93086797402E+02  0.47000000000E+01 0. -1.
        -15    1    6    6    0    0 -0.86776134044E+02  0.36071082138E+02  0.12532324659E+03  0.15665342087E+03  0.17770000000E+01 0.  1.
         16    1    6    6    0    0 -0.13972764847E+02  0.73483740472E+02  0.11238332569E+03  0.13500040801E+03  0.00000000000E+00 0. -1.
         -5    1    3    3    0  503  0.30624439104E+02 -0.97962285521E+02  0.92550059135E+02  0.13828256976E+03  0.47000000000E+01 0.  1.
         15    1    4    4    0    0  0.31777156230E+02 -0.23376722509E+02  0.11406709117E+03  0.12070922844E+03  0.17770000000E+01 0. -1.
        -16    1    4    4    0    0  0.25897985352E+02  0.44601672568E+02  0.49408562546E+02  0.71422831742E+02  0.00000000000E+00 0.  1.
<mgrwt>
<rscale>  2 0.20859945E+03</rscale>
<asrwt>0</asrwt>
<pdfrwt beam="1">  1       21 0.99613474E-01 0.20886518E+03</pdfrwt>
<pdfrwt beam="2">  1       21 0.10410407E-01 0.20886518E+03</pdfrwt>
<totfact> 0.62124499E+04</totfact>
</mgrwt>
</event>
<event>
12    2  0.4090627E-002  0.1815334E+03  0.7546771E-02  0.1166469E+00
         21   -1    0    0  501  502  0.00000000000E+00  0.00000000000E+00  0.90247269109E+02  0.90247269109E+02  0.00000000000E+00 0. -1.
         21   -1    0    0  502  503 -0.00000000000E+00 -0.00000000000E+00 -0.36488250446E+03  0.36488250446E+03  0.00000000000E+00 0. -1.
         -6    2    1    2    0  503 -0.37517186944E+02 -0.37694537321E+02 -0.12570441766E+03  0.22032182449E+03  0.17294995885E+03 0.  0.
        -24    2    3    3    0    0  0.25831015280E+02 -0.14011472033E+02 -0.12449810442E+03  0.15251749204E+03  0.83055672152E+02 0.  0.
          6    2    1    2  501    0  0.37517186944E+02  0.37694537321E+02 -0.14893081769E+03  0.23480794908E+03  0.17356833534E+03 0.  0.
         24    2    5    5    0    0  0.81521893091E+02  0.62105848890E+02 -0.11593011496E+03  0.17444684673E+03  0.80554051797E+02 0.  0.
          5    1    5    5  501    0 -0.44004706148E+02 -0.24411311569E+02 -0.33000702732E+02  0.60361102347E+02  0.47000000000E+01 0. -1.
        -15    1    6    6    0    0  0.37042184825E+02  0.69982196993E+02 -0.97613655395E+02  0.12570288303E+03  0.17770000000E+01 0.  1.
         16    1    6    6    0    0  0.44479708267E+02 -0.78763481024E+01 -0.18316459567E+02  0.48743963708E+02  0.00000000000E+00 0. -1.
         -5    1    3    3    0  503 -0.63348202224E+02 -0.23683065289E+02 -0.12063132374E+01  0.67804332443E+02  0.47000000000E+01 0.  1.
         15    1    4    4    0    0  0.40716927893E+02 -0.14230061266E+02 -0.21092985897E+02  0.48046171998E+02  0.17770000000E+01 0. -1.
        -16    1    4    4    0    0 -0.14885912613E+02  0.21858923296E+00 -0.10340511852E+03  0.10447132004E+03  0.00000000000E+00 0.  1.
<mgrwt>
<rscale>  2 0.18138546E+03</rscale>
<asrwt>0</asrwt>
<pdfrwt beam="1">  1       21 0.13884195E-01 0.18153343E+03</pdfrwt>
<pdfrwt beam="2">  1       21 0.56135770E-01 0.18153343E+03</pdfrwt>
<totfact> 0.13533694E+05</totfact>
</mgrwt>
</event>
<event>
12    2  0.4090627E-002  0.2214517E+03  0.7546771E-02  0.1133645E+00
         21   -1    0    0  501  502  0.00000000000E+00  0.00000000000E+00  0.26369157447E+02  0.26369157447E+02  0.00000000000E+00 0. -1.
         21   -1    0    0  502  503 -0.00000000000E+00 -0.00000000000E+00 -0.18957894087E+04  0.18957894087E+04  0.00000000000E+00 0.  1.
         -6    2    1    2    0  503  0.79407892729E+02  0.11353866561E+03 -0.11148088628E+04  0.11357240777E+04  0.16695429955E+03 0.  0.
        -24    2    3    3    0    0  0.97219745793E+02  0.41977012357E+02 -0.87016156972E+03  0.88016054289E+03  0.79294863090E+02 0.  0.
          6    2    1    2  501    0 -0.79407892729E+02 -0.11353866561E+03 -0.75461138846E+03  0.78643448843E+03  0.17275478279E+03 0.  0.
         24    2    5    5    0    0 -0.69101154163E+02 -0.88724220585E+02 -0.74465571745E+03  0.75739673839E+03  0.80565035679E+02 0.  0.
          5    1    5    5  501    0 -0.10306738566E+02 -0.24814445022E+02 -0.99556710082E+01  0.29037750031E+02  0.47000000000E+01 0. -1.
        -15    1    6    6    0    0 -0.15701522106E+02 -0.71924141125E+01 -0.36559234512E+03  0.36600435675E+03  0.17770000000E+01 0.  1.
         16    1    6    6    0    0 -0.53399632057E+02 -0.81531806473E+02 -0.37906337233E+03  0.39139238165E+03  0.00000000000E+00 0. -1.
         -5    1    3    3    0  503 -0.17811853064E+02  0.71561653250E+02 -0.24464729308E+03  0.25556353484E+03  0.47000000000E+01 0.  1.
         15    1    4    4    0    0  0.56944328299E+02  0.53796374976E+02 -0.36810478925E+03  0.37635222875E+03  0.17770000000E+01 0. -1.
        -16    1    4    4    0    0  0.40275417494E+02 -0.11819362619E+02 -0.50205678047E+03  0.50380831415E+03  0.00000000000E+00 0.  1.
<mgrwt>
<rscale>  2 0.22031940E+03</rscale>
<asrwt>0</asrwt>
<pdfrwt beam="1">  1       21 0.40567920E-02 0.22145170E+03</pdfrwt>
<pdfrwt beam="2">  1       21 0.29166002E+00 0.22145170E+03</pdfrwt>
<totfact> 0.14190893E+04</totfact>
</mgrwt>
</event>
<event>
12    2  0.4090627E-002  0.1766124E+03  0.7546771E-02  0.1171289E+00
         21   -1    0    0  503  502  0.00000000000E+00  0.00000000000E+00  0.75332881237E+02  0.75332881237E+02  0.00000000000E+00 0. -1.
         21   -1    0    0  501  503 -0.00000000000E+00 -0.00000000000E+00 -0.47350645174E+03  0.47350645174E+03  0.00000000000E+00 0. -1.
          6    2    1    2  501    0 -0.33509712388E+02  0.21203892732E+00 -0.10024870038E+03  0.20249966741E+03  0.17272338460E+03 0.  0.
         24    2    3    3    0    0  0.15711868746E+02 -0.84545289242E+00 -0.12665141759E+03  0.14643652609E+03  0.71801789574E+02 0.  0.
         -6    2    1    2    0  502  0.33509712388E+02 -0.21203892732E+00 -0.29792487012E+03  0.34633966557E+03  0.17340412315E+03 0.  0.
        -24    2    5    5    0    0  0.51815370914E+02  0.30755906253E+02 -0.86557009945E+02  0.13188087447E+03  0.79181378166E+02 0.  0.
          5    1    3    3  501    0 -0.49221581134E+02  0.10574918197E+01  0.26402717210E+02  0.56063141317E+02  0.47000000000E+01 0. -1.
        -15    1    4    4    0    0 -0.48350917668E+01 -0.25985430565E+02 -0.10277480398E+03  0.10613406040E+03  0.17770000000E+01 0.  1.
         16    1    4    4    0    0  0.20546960513E+02  0.25139977672E+02 -0.23876613613E+02  0.40302465698E+02  0.00000000000E+00 0. -1.
         -5    1    5    5    0  502 -0.18305658526E+02 -0.30967945180E+02 -0.21136786018E+03  0.21445879110E+03  0.47000000000E+01 0.  1.
         15    1    6    6    0    0  0.34384614881E+02 -0.13737077362E+02 -0.73539062893E+02  0.82353873832E+02  0.17770000000E+01 0. -1.
        -16    1    6    6    0    0  0.17430756033E+02  0.44492983615E+02 -0.13017947052E+02  0.49527000639E+02  0.00000000000E+00 0.  1.
<mgrwt>
<rscale>  2 0.17644507E+03</rscale>
<asrwt>0</asrwt>
<pdfrwt beam="1">  1       21 0.11589674E-01 0.17661239E+03</pdfrwt>
<pdfrwt beam="2">  1       21 0.72847146E-01 0.17661239E+03</pdfrwt>
<totfact> 0.10659050E+05</totfact>
</mgrwt>
</event>
<event>
12    2  0.4090627E-002  0.2242464E+03  0.7546771E-02  0.1130980E+00
         21   -1    0    0  501  502  0.00000000000E+00  0.00000000000E+00  0.74445150500E+02  0.74445150500E+02  0.00000000000E+00 0. -1.
         21   -1    0    0  502  503 -0.00000000000E+00 -0.00000000000E+00 -0.70008036894E+03  0.70008036894E+03  0.00000000000E+00 0.  1.
         -6    2    1    2    0  503  0.11672740835E+03  0.82472963899E+02 -0.23579864037E+03  0.32540352653E+03  0.17279866505E+03 0.  0.
        -24    2    3    3    0    0  0.12664436958E+03  0.74151243213E+02 -0.25294830044E+03  0.30340811801E+03  0.80848253923E+02 0.  0.
          6    2    1    2  501    0 -0.11672740835E+03 -0.82472963899E+02 -0.38983657807E+03  0.44912199291E+03  0.17120434947E+03 0.  0.
         24    2    5    5    0    0 -0.99604336531E+02  0.20331146883E+02 -0.24235975975E+03  0.26847485974E+03  0.54828074684E+02 0.  0.
          5    1    5    5  501    0 -0.17123071823E+02 -0.10280411078E+03 -0.14747681832E+03  0.18064713317E+03  0.47000000000E+01 0. -1.
        -15    1    6    6    0    0  0.56958802040E+01  0.26720704262E+01 -0.30950669258E+02  0.31633600303E+02  0.17770000000E+01 0.  1.
         16    1    6    6    0    0 -0.10530021673E+03  0.17659076457E+02 -0.21140909049E+03  0.23684125943E+03  0.00000000000E+00 0. -1.
         -5    1    3    3    0  503 -0.99169612272E+01  0.83217206858E+01  0.17149660076E+02  0.21995408518E+02  0.47000000000E+01 0.  1.
         15    1    4    4    0    0  0.32782831690E+02 -0.10666258545E+02 -0.24703103972E+02  0.42448606571E+02  0.17770000000E+01 0. -1.
        -16    1    4    4    0    0  0.93861537890E+02  0.84817501758E+02 -0.22824519647E+03  0.26095951144E+03  0.00000000000E+00 0.  1.
<mgrwt>
<rscale>  2 0.22393923E+03</rscale>
<asrwt>0</asrwt>
<pdfrwt beam="1">  1       21 0.11453100E-01 0.22424642E+03</pdfrwt>
<pdfrwt beam="2">  1       21 0.10770467E+00 0.22424642E+03</pdfrwt>
<totfact> 0.43122028E+04</totfact>
</mgrwt>
</event>
<event>
12    2  0.4090627E-002  0.1807453E+03  0.7546771E-02  0.1167770E+00
         21   -1    0    0  503  502  0.00000000000E+00  0.00000000000E+00  0.41510720820E+02  0.41510720820E+02  0.00000000000E+00 0.  1.
         21   -1    0    0  501  503 -0.00000000000E+00 -0.00000000000E+00 -0.11219952102E+04  0.11219952102E+04  0.00000000000E+00 0.  1.
          6    2    1    2  501    0  0.40940665387E+02 -0.19305654652E+02 -0.86682007334E+03  0.88546365571E+03  0.17498571273E+03 0.  0.
         24    2    3    3    0    0  0.50997905406E+02  0.40225527287E+02 -0.31678789515E+03  0.33210789605E+03  0.75645255692E+02 0.  0.
         -6    2    1    2    0  502 -0.40940665387E+02  0.19305654652E+02 -0.21366441609E+03  0.27804227535E+03  0.17206445827E+03 0.  0.
        -24    2    5    5    0    0 -0.90246382635E+02 -0.11872900568E+02 -0.14701091948E+03  0.18934089617E+03  0.77151728238E+02 0.  0.
          5    1    3    3  501    0 -0.10057240019E+02 -0.59531181939E+02 -0.55003217819E+03  0.55335575966E+03  0.47000000000E+01 0. -1.
        -15    1    4    4    0    0 -0.12141126305E+02 -0.41178086528E+01 -0.12062063634E+03  0.12131306169E+03  0.17770000000E+01 0.  1.
         16    1    4    4    0    0  0.63139031711E+02  0.44343335940E+02 -0.19616725881E+03  0.21079483436E+03  0.00000000000E+00 0. -1.
         -5    1    5    5    0  502  0.49305717248E+02  0.31178555220E+02 -0.66653496603E+02  0.88701379179E+02  0.47000000000E+01 0.  1.
         15    1    6    6    0    0 -0.16597469678E+02  0.16518808726E+02 -0.87201750059E+02  0.90308637371E+02  0.17770000000E+01 0. -1.
        -16    1    6    6    0    0 -0.73648912957E+02 -0.28391709294E+02 -0.59809169425E+02  0.99032258803E+02  0.00000000000E+00 0.  1.
<mgrwt>
<rscale>  2 0.18003440E+03</rscale>
<asrwt>0</asrwt>
<pdfrwt beam="1">  1       21 0.63862647E-02 0.18074525E+03</pdfrwt>
<pdfrwt beam="2">  1       21 0.17261465E+00 0.18074525E+03</pdfrwt>
<totfact> 0.36523225E+04</totfact>
</mgrwt>
</event>
<event>
12    2  0.4090627E-002  0.2155501E+03  0.7546771E-02  0.1137304E+00
         21   -1    0    0  503  502  0.00000000000E+00  0.00000000000E+00  0.13125423392E+03  0.13125423392E+03  0.00000000000E+00 0.  1.
         21   -1    0    0  501  503 -0.00000000000E+00 -0.00000000000E+00 -0.87395733187E+03  0.87395733187E+03  0.00000000000E+00 0. -1.
          6    2    1    2  501    0  0.10579040230E+03 -0.72165878168E+02 -0.75932638460E+03  0.78932780758E+03  0.17338485018E+03 0.  0.
         24    2    3    3    0    0  0.34775145038E+02 -0.98667364389E+01 -0.15353737831E+03  0.17619914247E+03  0.78522277543E+02 0.  0.
         -6    2    1    2    0  502 -0.10579040230E+03  0.72165878168E+02  0.16623286650E+02  0.21588375821E+03  0.17300271735E+03 0.  0.
        -24    2    5    5    0    0 -0.23742149226E+02  0.97545325090E+02  0.71113231098E+01  0.12934706306E+03  0.81248456654E+02 0.  0.
          5    1    3    3  501    0  0.71015257258E+02 -0.62299141729E+02 -0.60578900629E+03  0.61312866510E+03  0.47000000000E+01 0. -1.
        -15    1    4    4    0    0  0.17373176450E+02  0.32762709018E+02 -0.45267117775E+02  0.58544786640E+02  0.17770000000E+01 0.  1.
         16    1    4    4    0    0  0.17401968588E+02 -0.42629445457E+02 -0.10827026053E+03  0.11765435583E+03  0.00000000000E+00 0. -1.
         -5    1    5    5    0  502 -0.82048253070E+02 -0.25379446923E+02  0.95119635401E+01  0.86536695154E+02  0.47000000000E+01 0.  1.
         15    1    6    6    0    0  0.12301440309E+01  0.71407708313E+02 -0.30050345777E+02  0.77503258455E+02  0.17770000000E+01 0. -1.
        -16    1    6    6    0    0 -0.24972293257E+02  0.26137616777E+02  0.37161668887E+02  0.51843804604E+02  0.00000000000E+00 0.  1.
<mgrwt>
<rscale>  2 0.21547321E+03</rscale>
<asrwt>0</asrwt>
<pdfrwt beam="1">  1       21 0.20192960E-01 0.21555006E+03</pdfrwt>
<pdfrwt beam="2">  1       21 0.13445497E+00 0.21555006E+03</pdfrwt>
<totfact> 0.88489599E+03</totfact>
</mgrwt>
</event>
<event>
12    2  0.4090627E-002  0.1869245E+03  0.7546771E-02  0.1161321E+00
         21   -1    0    0  503  502  0.00000000000E+00  0.00000000000E+00  0.55834642280E+03  0.55834642280E+03  0.00000000000E+00 0.  1.
         21   -1    0    0  501  503 -0.00000000000E+00 -0.00000000000E+00 -0.66774143650E+02  0.66774143650E+02  0.00000000000E+00 0.  1.
          6    2    1    2  501    0 -0.63601285731E+02  0.33805676926E+02  0.16652745655E+03  0.25016068506E+03  0.17222377079E+03 0.  0.
         24    2    3    3    0    0 -0.45743621898E+01  0.10671661528E+02  0.16767309198E+03  0.18657796059E+03  0.81007780199E+02 0.  0.
         -6    2    1    2    0  502  0.63601285731E+02 -0.33805676926E+02  0.32504482260E+03  0.37495988139E+03  0.17249008265E+03 0.  0.
        -24    2    5    5    0    0  0.64009733356E+02 -0.18511168817E+00  0.32507069827E+03  0.34100991959E+03  0.80743582780E+02 0.  0.
          5    1    3    3  501    0 -0.59026923541E+02  0.23134015399E+02 -0.11456354308E+01  0.63582724476E+02  0.47000000000E+01 0. -1.
        -15    1    4    4    0    0 -0.22756861705E+02 -0.14761533625E+02  0.15635769082E+02  0.31359410604E+02  0.17770000000E+01 0.  1.
         16    1    4    4    0    0  0.18182499516E+02  0.25433195153E+02  0.15203732290E+03  0.15521854998E+03  0.00000000000E+00 0. -1.
         -5    1    5    5    0  502 -0.40844762506E+00 -0.33620565238E+02 -0.25875664542E-01  0.33949961796E+02  0.47000000000E+01 0.  1.
         15    1    6    6    0    0  0.27976127349E+01  0.14019875690E+02  0.56626091178E+01  0.15479225511E+02  0.17770000000E+01 0. -1.
        -16    1    6    6    0    0  0.61212120621E+02 -0.14204987379E+02  0.31940808915E+03  0.32553069408E+03  0.00000000000E+00 0.  1.
<mgrwt>
<rscale>  2 0.18686306E+03</rscale>
<asrwt>0</asrwt>
<pdfrwt beam="1">  1       21 0.85899447E-01 0.18692452E+03</pdfrwt>
<pdfrwt beam="2">  1       21 0.10272946E-01 0.18692452E+03</pdfrwt>
<totfact> 0.90715540E+04</totfact>
</mgrwt>
</event>
<event>
12    2  0.4090627E-002  0.1860068E+03  0.7546771E-02  0.1162275E+00
         21   -1    0    0  503  502  0.00000000000E+00  0.00000000000E+00  0.16250783134E+03  0.16250783134E+03  0.00000000000E+00 0. -1.
         21   -1    0    0  501  503 -0.00000000000E+00 -0.00000000000E+00 -0.21402041450E+03  0.21402041450E+03  0.00000000000E+00 0.  1.
          6    2    1    2  501    0  0.29214486721E+02 -0.61226258623E+02 -0.43510068922E+02  0.19034933906E+03  0.17244594458E+03 0.  0.
         24    2    3    3    0    0  0.76378460456E+02 -0.12323062200E+02 -0.48260985536E+02  0.12208057426E+03  0.81172758991E+02 0.  0.
         -6    2    1    2    0  502 -0.29214486721E+02  0.61226258623E+02 -0.80025142369E+01  0.18617890678E+03  0.17319470002E+03 0.  0.
        -24    2    5    5    0    0 -0.17493944548E+02 -0.30288751715E+02 -0.25843803442E+02  0.92089747855E+02  0.81173720546E+02 0.  0.
          5    1    3    3  501    0 -0.47163973735E+02 -0.48903196423E+02  0.47509166145E+01  0.68268764802E+02  0.47000000000E+01 0. -1.
        -15    1    4    4    0    0  0.40467308001E+02 -0.31114296019E+02 -0.61032633155E+02  0.79585441335E+02  0.17770000000E+01 0.  1.
         16    1    4    4    0    0  0.35911152455E+02  0.18791233820E+02  0.12771647619E+02  0.42495132922E+02  0.00000000000E+00 0. -1.
         -5    1    5    5    0  502 -0.11720542173E+02  0.91515010338E+02  0.17841289205E+02  0.94089158921E+02  0.47000000000E+01 0.  1.
         15    1    6    6    0    0  0.23036830938E+02  0.11105476157E+02 -0.22418794995E+02  0.34055649727E+02  0.17770000000E+01 0. -1.
        -16    1    6    6    0    0 -0.40530775485E+02 -0.41394227872E+02 -0.34250084471E+01  0.58034098127E+02  0.00000000000E+00 0.  1.
<mgrwt>
<rscale>  2 0.18583235E+03</rscale>
<asrwt>0</asrwt>
<pdfrwt beam="1">  1       21 0.25001205E-01 0.18600684E+03</pdfrwt>
<pdfrwt beam="2">  1       21 0.32926218E-01 0.18600684E+03</pdfrwt>
<totfact> 0.13478506E+05</totfact>
</mgrwt>
</event>
<event>
12    2  0.4090627E-002  0.2058433E+03  0.7546771E-02  0.1145016E+00
         21   -1    0    0  503  502  0.00000000000E+00  0.00000000000E+00  0.98200768293E+02  0.98200768293E+02  0.00000000000E+00 0. -1.
         21   -1    0    0  501  503 -0.00000000000E+00 -0.00000000000E+00 -0.50970289797E+03  0.50970289797E+03  0.00000000000E+00 0. -1.
          6    2    1    2  501    0  0.77420569089E+02 -0.78271058408E+02 -0.32548898670E+03  0.38481241928E+03  0.17325476751E+03 0.  0.
         24    2    3    3    0    0  0.65606430532E+02 -0.46935241383E+02 -0.33110151425E+03  0.35053272027E+03  0.82084435998E+02 0.  0.
         -6    2    1    2    0  502 -0.77420569089E+02  0.78271058408E+02 -0.86013142978E+02  0.22309124698E+03  0.17392855031E+03 0.  0.
        -24    2    5    5    0    0  0.72204752073E+01  0.95921081096E+02 -0.57775388300E+02  0.13201385973E+03  0.69546204826E+02 0.  0.
          5    1    3    3  501    0  0.11814138557E+02 -0.31335817024E+02  0.56125275496E+01  0.34279699006E+02  0.47000000000E+01 0. -1.
        -15    1    4    4    0    0  0.35759230350E+02  0.13935709868E+01 -0.39004395591E+02  0.52963810283E+02  0.17770000000E+01 0.  1.
         16    1    4    4    0    0  0.29847200182E+02 -0.48328812370E+02 -0.29209711866E+03  0.29756890999E+03  0.00000000000E+00 0. -1.
         -5    1    5    5    0  502 -0.84641044296E+02 -0.17650022689E+02 -0.28237754678E+02  0.91077387258E+02  0.47000000000E+01 0.  1.
         15    1    6    6    0    0  0.23563187703E+02  0.64363488924E+02 -0.54758096001E+01  0.68782445005E+02  0.17770000000E+01 0. -1.
        -16    1    6    6    0    0 -0.16342712495E+02  0.31557592173E+02 -0.52299578700E+02  0.63231414721E+02  0.00000000000E+00 0.  1.
<mgrwt>
<rscale>  2 0.20570085E+03</rscale>
<asrwt>0</asrwt>
<pdfrwt beam="1">  1       21 0.15107811E-01 0.20584325E+03</pdfrwt>
<pdfrwt beam="2">  1       21 0.78415830E-01 0.20584325E+03</pdfrwt>
<totfact> 0.55355777E+04</totfact>
</mgrwt>
</event>
<event>
12    2  0.4090627E-002  0.2095801E+03  0.7546771E-02  0.1141908E+00
         21   -1    0    0  501  502  0.00000000000E+00  0.00000000000E+00  0.34163603668E+03  0.34163603668E+03  0.00000000000E+00 0. -1.
         21   -1    0    0  502  503 -0.00000000000E+00 -0.00000000000E+00 -0.29696476991E+03  0.29696476991E+03  0.00000000000E+00 0. -1.
         -6    2    1    2    0  503  0.87603913945E+02  0.78246177012E+02 -0.21812915378E+03  0.30246408933E+03  0.17351451711E+03 0.  0.
        -24    2    3    3    0    0  0.84063438912E+02  0.84683501981E+02 -0.23961256309E+03  0.27927786515E+03  0.79649157564E+02 0.  0.
          6    2    1    2  501    0 -0.87603913945E+02 -0.78246177012E+02  0.26280042056E+03  0.33613671726E+03  0.17357108542E+03 0.  0.
         24    2    5    5    0    0 -0.64557004710E+02 -0.23562030205E+02  0.53384120182E+02  0.11842407914E+03  0.80321990186E+02 0.  0.
          5    1    5    5  501    0 -0.23046909235E+02 -0.54684146806E+02  0.20941630037E+03  0.21771263813E+03  0.47000000000E+01 0. -1.
        -15    1    6    6    0    0 -0.29841916857E+02 -0.50927451323E+02  0.42907012902E+02  0.72995306597E+02  0.17770000000E+01 0.  1.
         16    1    6    6    0    0 -0.34715087853E+02  0.27365421118E+02  0.10477107280E+02  0.45428772541E+02  0.00000000000E+00 0. -1.
         -5    1    3    3    0  503  0.35404750326E+01 -0.64373249690E+01  0.21483409308E+02  0.23186224180E+02  0.47000000000E+01 0.  1.
         15    1    4    4    0    0  0.42240370885E+02  0.68660210242E+01 -0.13867751674E+03  0.14514131926E+03  0.17770000000E+01 0. -1.
        -16    1    4    4    0    0  0.41823068027E+02  0.77817480956E+02 -0.10093504635E+03  0.13413654589E+03  0.00000000000E+00 0.  1.
<mgrwt>
<rscale>  2 0.20956842E+03</rscale>
<asrwt>0</asrwt>
<pdfrwt beam="1">  1       21 0.52559390E-01 0.20958013E+03</pdfrwt>
<pdfrwt beam="2">  1       21 0.45686888E-01 0.20958013E+03</pdfrwt>
<totfact> 0.15600150E+04</totfact>
</mgrwt>
</event>
<event>
12    2  0.4090627E-002  0.1835039E+03  0.7546771E-02  0.1164630E+00
         21   -1    0    0  503  502  0.00000000000E+00  0.00000000000E+00  0.55037649701E+02  0.55037649701E+02  0.00000000000E+00 0.  1.
         21   -1    0    0  501  503 -0.00000000000E+00 -0.00000000000E+00 -0.71651472089E+03  0.71651472089E+03  0.00000000000E+00 0. -1.
          6    2    1    2  501    0 -0.59060828595E+02 -0.63972486467E+01 -0.47935833776E+03  0.51301624650E+03  0.17283560666E+03 0.  0.
         24    2    3    3    0    0  0.28253291874E+02 -0.16900741900E+01 -0.18221000512E+03  0.20323384753E+03  0.85454116115E+02 0.  0.
         -6    2    1    2    0  502  0.59060828595E+02  0.63972486467E+01 -0.18211873344E+03  0.25853612410E+03  0.17362196903E+03 0.  0.
        -24    2    5    5    0    0 -0.34022566464E+02  0.11358355313E+02 -0.10535591694E+03  0.13769014356E+03  0.81068854288E+02 0.  0.
          5    1    3    3  501    0 -0.87314120469E+02 -0.47071744567E+01 -0.29714833263E+03  0.30978239897E+03  0.47000000000E+01 0. -1.
        -15    1    4    4    0    0 -0.29930361362E+02  0.79706444027E+01 -0.64570856037E+02  0.71637356747E+02  0.17770000000E+01 0.  1.
         16    1    4    4    0    0  0.58183653236E+02 -0.96607185927E+01 -0.11763914909E+03  0.13159649078E+03  0.00000000000E+00 0. -1.
         -5    1    5    5    0  502  0.93083395059E+02 -0.49611066659E+01 -0.76762816494E+02  0.12084598053E+03  0.47000000000E+01 0.  1.
         15    1    6    6    0    0  0.15301702486E+02 -0.22196313870E+02 -0.47154068382E+02  0.54345950561E+02  0.17770000000E+01 0. -1.
        -16    1    6    6    0    0 -0.49324268950E+02  0.33554669182E+02 -0.58201848559E+02  0.83344193002E+02  0.00000000000E+00 0.  1.
<mgrwt>
<rscale>  2 0.18331769E+03</rscale>
<asrwt>0</asrwt>
<pdfrwt beam="1">  1       21 0.84673306E-02 0.18350394E+03</pdfrwt>
<pdfrwt beam="2">  1       21 0.11023304E+00 0.18350394E+03</pdfrwt>
<totfact> 0.70923535E+04</totfact>
</mgrwt>
</event>
<event>
12    2  0.4090627E-002  0.1804707E+03  0.7546771E-02  0.1169959E+00
         21   -1    0    0  501  502  0.00000000000E+00  0.00000000000E+00  0.28436075694E+03  0.28436075694E+03  0.00000000000E+00 0.  1.
         21   -1    0    0  502  503 -0.00000000000E+00 -0.00000000000E+00 -0.13531967428E+03  0.13531967428E+03  0.00000000000E+00 0.  1.
         -6    2    1    2    0  503  0.50260788134E+02 -0.71780406091E+00 -0.21547354761E+02  0.17134581726E+03  0.16238361534E+03 0.  0.
        -24    2    3    3    0    0  0.41076621168E+02  0.45600227831E+02 -0.52995680028E+02  0.11441782623E+03  0.80723152021E+02 0.  0.
          6    2    1    2  501    0 -0.50260788134E+02  0.71780406091E+00  0.17058843743E+03  0.24833461396E+03  0.17332917653E+03 0.  0.
         24    2    5    5    0    0 -0.17741892898E+02  0.29185588621E+02  0.18234356599E+03  0.20329944600E+03  0.83155969971E+02 0.  0.
          5    1    5    5  501    0 -0.32518895236E+02 -0.28467784560E+02 -0.11755128558E+02  0.45035167953E+02  0.47000000000E+01 0. -1.
        -15    1    6    6    0    0 -0.35588282143E+02  0.36687299725E+02  0.17544615539E+03  0.18274844721E+03  0.17770000000E+01 0.  1.
         16    1    6    6    0    0  0.17846389246E+02 -0.75017111042E+01  0.68974106001E+01  0.20550998798E+02  0.00000000000E+00 0. -1.
         -5    1    3    3    0  503  0.91841669664E+01 -0.46318031892E+02  0.31448325267E+02  0.56927991035E+02  0.47000000000E+01 0.  1.
         15    1    4    4    0    0  0.10034239145E+02 -0.12619762270E+02  0.13232486470E+02  0.20933245858E+02  0.17770000000E+01 0. -1.
        -16    1    4    4    0    0  0.31042382023E+02  0.58219990101E+02 -0.66228166499E+02  0.93484580369E+02  0.00000000000E+00 0.  1.
<mgrwt>
<rscale>  2 0.17779028E+03</rscale>
<asrwt>0</asrwt>
<pdfrwt beam="1">  1       21 0.43747809E-01 0.18047068E+03</pdfrwt>
<pdfrwt beam="2">  1       21 0.20818411E-01 0.18047068E+03</pdfrwt>
<totfact> 0.10799708E+05</totfact>
</mgrwt>
</event>
<event>
12    2  0.4090627E-002  0.2957005E+03  0.7546771E-02  0.1087481E+00
         21   -1    0    0  501  502  0.00000000000E+00  0.00000000000E+00  0.13102988172E+03  0.13102988172E+03  0.00000000000E+00 0.  1.
         21   -1    0    0  502  503 -0.00000000000E+00 -0.00000000000E+00 -0.77734869012E+03  0.77734869012E+03  0.00000000000E+00 0. -1.
         -6    2    1    2    0  503  0.21644514382E+03 -0.10309742799E+03 -0.15104357669E+03  0.33154552316E+03  0.17213567884E+03 0.  0.
        -24    2    3    3    0    0  0.17546419438E+03 -0.13216353637E+02 -0.81784020462E+02  0.21081018504E+03  0.82401168673E+02 0.  0.
          6    2    1    2  501    0 -0.21644514382E+03  0.10309742799E+03 -0.49527523171E+03  0.57683304867E+03  0.17309312798E+03 0.  0.
         24    2    5    5    0    0 -0.17071740467E+03  0.12296061858E+03 -0.29940741720E+03  0.37466514017E+03  0.80407834215E+02 0.  0.
          5    1    5    5  501    0 -0.45727739149E+02 -0.19863190589E+02 -0.19586781451E+03  0.20216790850E+03  0.47000000000E+01 0. -1.
        -15    1    6    6    0    0 -0.14205314197E+02  0.43106902746E+02 -0.35650049234E+02  0.57741490760E+02  0.17770000000E+01 0.  1.
         16    1    6    6    0    0 -0.15651209048E+03  0.79853715831E+02 -0.26375736797E+03  0.31692364941E+03  0.00000000000E+00 0. -1.
         -5    1    3    3    0  503  0.40980949441E+02 -0.89881074352E+02 -0.69259556229E+02  0.12073533813E+03  0.47000000000E+01 0.  1.
         15    1    4    4    0    0  0.41824151786E+01 -0.21254759290E+02 -0.24379780792E+01  0.21871416399E+02  0.17770000000E+01 0. -1.
        -16    1    4    4    0    0  0.17128177920E+03  0.80384056529E+01 -0.79346042383E+02  0.18893876864E+03  0.00000000000E+00 0.  1.
<mgrwt>
<rscale>  2 0.29556058E+03</rscale>
<asrwt>0</asrwt>
<pdfrwt beam="1">  1       21 0.20158444E-01 0.29570054E+03</pdfrwt>
<pdfrwt beam="2">  1       21 0.11959211E+00 0.29570054E+03</pdfrwt>
<totfact> 0.11409421E+04</totfact>
</mgrwt>
</event>
<event>
12    2  0.4090627E-002  0.2961709E+03  0.7546771E-02  0.1087261E+00
         21   -1    0    0  501  502  0.00000000000E+00  0.00000000000E+00  0.51083123561E+03  0.51083123561E+03  0.00000000000E+00 0. -1.
         21   -1    0    0  502  503 -0.00000000000E+00 -0.00000000000E+00 -0.20979697812E+03  0.20979697812E+03  0.00000000000E+00 0.  1.
         -6    2    1    2    0  503 -0.88651547856E+02  0.22306621098E+03  0.30500679772E+03  0.42514274219E+03  0.17349228560E+03 0.  0.
        -24    2    3    3    0    0 -0.12261269033E+03  0.21175688927E+03  0.28412179833E+03  0.38343503121E+03  0.80139721024E+02 0.  0.
          6    2    1    2  501    0  0.88651547856E+02 -0.22306621098E+03 -0.39725402237E+01  0.29548547154E+03  0.17227376875E+03 0.  0.
         24    2    5    5    0    0  0.87009952301E+02 -0.24283798230E+03  0.10907319955E+02  0.27024427473E+03  0.79824688836E+02 0.  0.
          5    1    5    5  501    0  0.16415955549E+01  0.19771771328E+02 -0.14879860178E+02  0.25241196809E+02  0.47000000000E+01 0. -1.
        -15    1    6    6    0    0  0.63446337632E+02 -0.11333575208E+03  0.39049624984E+02  0.13564092818E+03  0.17770000000E+01 0.  1.
         16    1    6    6    0    0  0.23563614668E+02 -0.12950223022E+03 -0.28142305029E+02  0.13460334655E+03  0.00000000000E+00 0. -1.
         -5    1    3    3    0  503  0.33961142476E+02  0.11309321707E+02  0.20884999387E+02  0.41707710979E+02  0.47000000000E+01 0.  1.
         15    1    4    4    0    0 -0.63691177531E+02  0.58027720036E+02  0.14118512182E+03  0.16540912533E+03  0.17770000000E+01 0. -1.
        -16    1    4    4    0    0 -0.58921512801E+02  0.15372916923E+03  0.14293667651E+03  0.21802590588E+03  0.00000000000E+00 0.  1.
<mgrwt>
<rscale>  2 0.29599271E+03</rscale>
<asrwt>0</asrwt>
<pdfrwt beam="1">  1       21 0.78589421E-01 0.29617090E+03</pdfrwt>
<pdfrwt beam="2">  1       21 0.32276458E-01 0.29617090E+03</pdfrwt>
<totfact> 0.12491478E+04</totfact>
</mgrwt>
</event>
<event>
12    2  0.4090627E-002  0.1970285E+03  0.7546771E-02  0.1152300E+00
         21   -1    0    0  501  502  0.00000000000E+00  0.00000000000E+00  0.20346585233E+03  0.20346585233E+03  0.00000000000E+00 0.  1.
         21   -1    0    0  502  503 -0.00000000000E+00 -0.00000000000E+00 -0.19468979961E+03  0.19468979961E+03  0.00000000000E+00 0.  1.
         -6    2    1    2    0  503  0.76336412537E+02  0.53239911765E+02 -0.24248419697E+02  0.19837862787E+03  0.17350607498E+03 0.  0.
        -24    2    3    3    0    0 -0.20430720827E+02  0.47918266976E+01  0.12198485963E+02  0.84091437083E+02  0.80512053596E+02 0.  0.
          6    2    1    2  501    0 -0.76336412537E+02 -0.53239911765E+02  0.33024472420E+02  0.19977702407E+03  0.17366204963E+03 0.  0.
         24    2    5    5    0    0 -0.11110585569E+03 -0.26627352974E+02 -0.68008775669E+01  0.14040286332E+03  0.81321491617E+02 0.  0.
          5    1    5    5  501    0  0.34769443151E+02 -0.26612558790E+02  0.39825349987E+02  0.59374160744E+02  0.47000000000E+01 0. -1.
        -15    1    6    6    0    0 -0.50292359717E+02 -0.48091997361E+02  0.17011084683E+02  0.71656795820E+02  0.17770000000E+01 0.  1.
         16    1    6    6    0    0 -0.60813495970E+02  0.21464644387E+02 -0.23811962250E+02  0.68746067502E+02  0.00000000000E+00 0. -1.
         -5    1    3    3    0  503  0.96767133364E+02  0.48448085067E+02 -0.36446905660E+02  0.11428719079E+03  0.47000000000E+01 0.  1.
         15    1    4    4    0    0 -0.70412313317E+01 -0.37824140740E+02  0.64984865427E+01  0.39059347380E+02  0.17770000000E+01 0. -1.
        -16    1    4    4    0    0 -0.13389489496E+02  0.42615967438E+02  0.56999994206E+01  0.45032089703E+02  0.00000000000E+00 0.  1.
<mgrwt>
<rscale>  2 0.19699416E+03</rscale>
<asrwt>0</asrwt>
<pdfrwt beam="1">  1       21 0.31302439E-01 0.19702853E+03</pdfrwt>
<pdfrwt beam="2">  1       21 0.29952277E-01 0.19702853E+03</pdfrwt>
<totfact> 0.10465232E+05</totfact>
</mgrwt>
</event>
<event>
12    2  0.4090627E-002  0.1938317E+03  0.7546771E-02  0.1155101E+00
         21   -1    0    0  501  502  0.00000000000E+00  0.00000000000E+00  0.80976334225E+02  0.80976334225E+02  0.00000000000E+00 0.  1.
         21   -1    0    0  502  503 -0.00000000000E+00 -0.00000000000E+00 -0.57609632408E+03  0.57609632408E+03  0.00000000000E+00 0.  1.
         -6    2    1    2    0  503 -0.18556048873E+02 -0.84800798426E+02 -0.39297797973E+03  0.43818078712E+03  0.17330668563E+03 0.  0.
        -24    2    3    3    0    0 -0.75677664642E+01 -0.38264430150E+01 -0.75433721198E+02  0.11025696256E+03  0.79965234600E+02 0.  0.
          6    2    1    2  501    0  0.18556048873E+02  0.84800798426E+02 -0.10214201012E+03  0.21889187118E+03  0.17304669507E+03 0.  0.
         24    2    5    5    0    0 -0.26078930844E+02  0.40246303010E+02 -0.12086085903E+03  0.15293832858E+03  0.80516517337E+02 0.  0.
          5    1    5    5  501    0  0.44634979717E+02  0.44554495416E+02  0.18718848914E+02  0.65953542595E+02  0.47000000000E+01 0. -1.
        -15    1    6    6    0    0 -0.44303890475E+02  0.50873811252E+02 -0.67010763083E+02  0.95102994067E+02  0.17770000000E+01 0.  1.
         16    1    6    6    0    0  0.18224959631E+02 -0.10627508242E+02 -0.53850095950E+02  0.57835334518E+02  0.00000000000E+00 0. -1.
         -5    1    3    3    0  503 -0.10988282409E+02 -0.80974355411E+02 -0.31754425853E+03  0.32792382456E+03  0.47000000000E+01 0.  1.
         15    1    4    4    0    0 -0.31842683465E+02 -0.28703814946E+02 -0.55623259122E+02  0.70249342823E+02  0.17770000000E+01 0. -1.
        -16    1    4    4    0    0  0.24274917001E+02  0.24877371931E+02 -0.19810462076E+02  0.40007619740E+02  0.00000000000E+00 0.  1.
<mgrwt>
<rscale>  2 0.19377352E+03</rscale>
<asrwt>0</asrwt>
<pdfrwt beam="1">  1       21 0.12457897E-01 0.19383165E+03</pdfrwt>
<pdfrwt beam="2">  1       21 0.88630205E-01 0.19383165E+03</pdfrwt>
<totfact> 0.59699342E+04</totfact>
</mgrwt>
</event>
<event>
12    2  0.4090627E-002  0.4001797E+03  0.7546771E-02  0.1043775E+00
         21   -1    0    0  503  502  0.00000000000E+00  0.00000000000E+00  0.71130284291E+03  0.71130284291E+03  0.00000000000E+00 0.  1.
         21   -1    0    0  501  503 -0.00000000000E+00 -0.00000000000E+00 -0.25816424557E+03  0.25816424557E+03  0.00000000000E+00 0. -1.
          6    2    1    2  501    0 -0.52695271040E+02 -0.35702053272E+03  0.52395030005E+02  0.40359510628E+03  0.17292575942E+03 0.  0.
         24    2    3    3    0    0  0.72284571374E+01 -0.69916698735E+02  0.23652170183E+02  0.10886182571E+03  0.79692387259E+02 0.  0.
         -6    2    1    2    0  502  0.52695271040E+02  0.35702053272E+03  0.40074356734E+03  0.56587198220E+03  0.17139206839E+03 0.  0.
        -24    2    5    5    0    0  0.16316354843E+02  0.83839830440E+02  0.97820222893E+02  0.15631641302E+03  0.87009679739E+02 0.  0.
          5    1    3    3  501    0 -0.59923728177E+02 -0.28710383398E+03  0.28742859823E+02  0.29473328057E+03  0.47000000000E+01 0. -1.
        -15    1    4    4    0    0 -0.16093185760E+01 -0.85312032669E+02  0.29297128535E+02  0.90234208002E+02  0.17770000000E+01 0.  1.
         16    1    4    4    0    0  0.88377757134E+01  0.15395333934E+02 -0.56449583523E+01  0.18627617703E+02  0.00000000000E+00 0. -1.
         -5    1    5    5    0  502  0.36378916197E+02  0.27318070228E+03  0.30292334445E+03  0.40955556919E+03  0.47000000000E+01 0.  1.
         15    1    6    6    0    0  0.19749671197E+02  0.28973177228E+02 -0.89436178156E+01  0.36230381446E+02  0.17770000000E+01 0. -1.
        -16    1    6    6    0    0 -0.34333163533E+01  0.54866653212E+02  0.10676384071E+03  0.12008603157E+03  0.00000000000E+00 0.  1.
<mgrwt>
<rscale>  2 0.40001448E+03</rscale>
<asrwt>0</asrwt>
<pdfrwt beam="1">  1       21 0.10943121E+00 0.40017967E+03</pdfrwt>
<pdfrwt beam="2">  1       21 0.39717577E-01 0.40017967E+03</pdfrwt>
<totfact> 0.35872058E+03</totfact>
</mgrwt>
</event>
<event>
12    2  0.4090627E-002  0.1901961E+03  0.7546771E-02  0.1158608E+00
         21   -1    0    0  501  502  0.00000000000E+00  0.00000000000E+00  0.12711227770E+03  0.12711227770E+03  0.00000000000E+00 0.  1.
         21   -1    0    0  502  503 -0.00000000000E+00 -0.00000000000E+00 -0.29237019948E+03  0.29237019948E+03  0.00000000000E+00 0.  1.
         -6    2    1    2    0  503  0.77946988029E+02 -0.80849575765E+01 -0.12096448016E+03  0.22419685171E+03  0.17172863295E+03 0.  0.
        -24    2    3    3    0    0 -0.20839967698E+02 -0.34549167510E+02 -0.50732691189E+02  0.10004448076E+03  0.76204612370E+02 0.  0.
          6    2    1    2  501    0 -0.77946988029E+02  0.80849575765E+01 -0.44293441617E+02  0.19528562547E+03  0.17330166492E+03 0.  0.
         24    2    5    5    0    0 -0.10085578104E+03  0.51972008996E+02 -0.21412900684E+02  0.14054537307E+03  0.80134332763E+02 0.  0.
          5    1    5    5  501    0  0.22908793010E+02 -0.43887051419E+02 -0.22880540933E+02  0.54740252400E+02  0.47000000000E+01 0. -1.
        -15    1    6    6    0    0 -0.31818039158E+02 -0.21221015954E+02 -0.62854470312E+01  0.38799274572E+02  0.17770000000E+01 0.  1.
         16    1    6    6    0    0 -0.69037741882E+02  0.73193024949E+02 -0.15127453653E+02  0.10174609850E+03  0.00000000000E+00 0. -1.
         -5    1    3    3    0  503  0.98786955727E+02  0.26464209934E+02 -0.70231788972E+02  0.12415237095E+03  0.47000000000E+01 0.  1.
         15    1    4    4    0    0  0.51835116004E+01 -0.11984144877E+01 -0.57004376570E+02  0.57279679355E+02  0.17770000000E+01 0. -1.
        -16    1    4    4    0    0 -0.26023479298E+02 -0.33350753023E+02  0.62716853810E+01  0.42764801408E+02  0.00000000000E+00 0.  1.
<mgrwt>
<rscale>  2 0.18983706E+03</rscale>
<asrwt>0</asrwt>
<pdfrwt beam="1">  1       21 0.19555735E-01 0.19019613E+03</pdfrwt>
<pdfrwt beam="2">  1       21 0.44980030E-01 0.19019613E+03</pdfrwt>
<totfact> 0.11427308E+05</totfact>
</mgrwt>
</event>
<event>
12    2  0.4090627E-002  0.3020261E+03  0.7546771E-02  0.1084237E+00
         21   -1    0    0  503  502  0.00000000000E+00  0.00000000000E+00  0.12188320548E+03  0.12188320548E+03  0.00000000000E+00 0. -1.
         21   -1    0    0  501  503 -0.00000000000E+00 -0.00000000000E+00 -0.82599272823E+03  0.82599272823E+03  0.00000000000E+00 0. -1.
          6    2    1    2  501    0 -0.24244587977E+03  0.49033038415E+02 -0.20674636714E+03  0.36601069625E+03  0.17330760505E+03 0.  0.
         24    2    3    3    0    0 -0.11427965738E+03 -0.28857604220E+02 -0.15426773371E+03  0.20704645581E+03  0.71952065892E+02 0.  0.
         -6    2    1    2    0  502  0.24244587977E+03 -0.49033038415E+02 -0.49736315561E+03  0.58186523746E+03  0.17324203453E+03 0.  0.
        -24    2    5    5    0    0  0.43079774464E+02 -0.69729394333E+02 -0.17140717451E+03  0.19918446356E+03  0.59799461946E+02 0.  0.
          5    1    3    3  501    0 -0.12816622239E+03  0.77890642635E+02 -0.52478633424E+02  0.15896424044E+03  0.47000000000E+01 0. -1.
        -15    1    4    4    0    0 -0.22024183546E+01 -0.20913848589E+01 -0.54542725170E+02  0.54656117088E+02  0.17770000000E+01 0.  1.
         16    1    4    4    0    0 -0.11207723903E+03 -0.26766219361E+02 -0.99725008545E+02  0.15239033872E+03  0.00000000000E+00 0. -1.
         -5    1    5    5    0  502  0.19936610531E+03  0.20696355918E+02 -0.32595598110E+03  0.38268077389E+03  0.47000000000E+01 0.  1.
         15    1    6    6    0    0  0.53080230547E+02 -0.73167912501E+02 -0.14689940568E+03  0.17249245610E+03  0.17770000000E+01 0. -1.
        -16    1    6    6    0    0 -0.10000456084E+02  0.34385181685E+01 -0.24507768831E+02  0.26692007458E+02  0.00000000000E+00 0.  1.
<mgrwt>
<rscale>  2 0.30201670E+03</rscale>
<asrwt>0</asrwt>
<pdfrwt beam="1">  1       21 0.18751263E-01 0.30202611E+03</pdfrwt>
<pdfrwt beam="2">  1       21 0.12707580E+00 0.30202611E+03</pdfrwt>
<totfact> 0.11178844E+04</totfact>
</mgrwt>
</event>
<event>
12    2  0.4090627E-002  0.1862522E+03  0.7546771E-02  0.1161967E+00
         21   -1    0    0  503  502  0.00000000000E+00  0.00000000000E+00  0.73425882074E+03  0.73425882074E+03  0.00000000000E+00 0.  1.
         21   -1    0    0  501  503 -0.00000000000E+00 -0.00000000000E+00 -0.51645296636E+02  0.51645296636E+02  0.00000000000E+00 0. -1.
          6    2    1    2  501    0  0.43627788387E+01  0.66224603781E+02  0.22515517790E+03  0.29198304789E+03  0.17365055179E+03 0.  0.
         24    2    3    3    0    0  0.31305618829E+02 -0.19198244001E+02  0.68360882506E+02  0.11134661575E+03  0.79851388460E+02 0.  0.
         -6    2    1    2    0  502 -0.43627788387E+01 -0.66224603781E+02  0.45745834621E+03  0.49392106949E+03  0.17402629796E+03 0.  0.
        -24    2    5    5    0    0  0.31941918168E+02 -0.17669483056E+01  0.10529410332E+03  0.13403974968E+03  0.76527106689E+02 0.  0.
          5    1    3    3  501    0 -0.26942839990E+02  0.85422847782E+02  0.15679429539E+03  0.18063643214E+03  0.47000000000E+01 0. -1.
        -15    1    4    4    0    0 -0.14269999501E+02 -0.56898772251E+01  0.61383771775E+02  0.63301917466E+02  0.17770000000E+01 0.  1.
         16    1    4    4    0    0  0.45575618330E+02 -0.13508366776E+02  0.69771107312E+01  0.48044698284E+02  0.00000000000E+00 0. -1.
         -5    1    5    5    0  502 -0.36304697006E+02 -0.64457655475E+02  0.35216424289E+03  0.35988131981E+03  0.47000000000E+01 0.  1.
         15    1    6    6    0    0 -0.18386532102E+02  0.16919544116E+02  0.55176335483E+02  0.60596379943E+02  0.17770000000E+01 0. -1.
        -16    1    6    6    0    0  0.50328450270E+02 -0.18686492422E+02  0.50117767835E+02  0.73443369737E+02  0.00000000000E+00 0.  1.
<mgrwt>
<rscale>  2 0.18616439E+03</rscale>
<asrwt>0</asrwt>
<pdfrwt beam="1">  1       21 0.11296289E+00 0.18625221E+03</pdfrwt>
<pdfrwt beam="2">  1       21 0.79454308E-02 0.18625221E+03</pdfrwt>
<totfact> 0.74580348E+04</totfact>
</mgrwt>
</event>
<event>
12    2  0.4090627E-002  0.1861555E+03  0.7546771E-02  0.1166551E+00
         21   -1    0    0  503  502  0.00000000000E+00  0.00000000000E+00  0.72582874706E+03  0.72582874706E+03  0.00000000000E+00 0. -1.
         21   -1    0    0  501  503 -0.00000000000E+00 -0.00000000000E+00 -0.61743285578E+02  0.61743285578E+02  0.00000000000E+00 0. -1.
          6    2    1    2  501    0  0.43177970556E+02  0.51708907335E+02  0.10348279230E+03  0.19686973222E+03  0.15333249794E+03 0.  0.
         24    2    3    3    0    0  0.82505164606E+02  0.49946609155E+02  0.84385927781E+02  0.15286389032E+03  0.83334375884E+02 0.  0.
         -6    2    1    2    0  502 -0.43177970556E+02 -0.51708907335E+02  0.56060266918E+03  0.59070230042E+03  0.17353877604E+03 0.  0.
        -24    2    5    5    0    0  0.40224329071E+02 -0.13205705242E+02  0.33600220891E+03  0.34799692984E+03  0.80074911703E+02 0.  0.
          5    1    3    3  501    0 -0.39327194050E+02  0.17622981803E+01  0.19096864521E+02  0.44005841899E+02  0.47000000000E+01 0. -1.
        -15    1    4    4    0    0  0.65687278624E+02 -0.87019582916E+01  0.47809414626E+02  0.81727844136E+02  0.17770000000E+01 0.  1.
         16    1    4    4    0    0  0.16817885982E+02  0.58648567446E+02  0.36576513155E+02  0.71136046186E+02  0.00000000000E+00 0. -1.
         -5    1    5    5    0  502 -0.83402299627E+02 -0.38503202093E+02  0.22460046027E+03  0.24270537058E+03  0.47000000000E+01 0.  1.
         15    1    6    6    0    0 -0.67371780992E+00  0.30249280706E+02  0.95056268134E+02  0.99771362221E+02  0.17770000000E+01 0. -1.
        -16    1    6    6    0    0  0.40898046881E+02 -0.43454985948E+02  0.24094594077E+03  0.24822556762E+03  0.00000000000E+00 0.  1.
<mgrwt>
<rscale>  2 0.18129946E+03</rscale>
<asrwt>0</asrwt>
<pdfrwt beam="1">  1       21 0.11166595E+00 0.18615546E+03</pdfrwt>
<pdfrwt beam="2">  1       21 0.94989675E-02 0.18615546E+03</pdfrwt>
<totfact> 0.56128959E+04</totfact>
</mgrwt>
</event>
<event>
12    2  0.4090627E-002  0.1810276E+03  0.7546771E-02  0.1167165E+00
         21   -1    0    0  503  502  0.00000000000E+00  0.00000000000E+00  0.16952597064E+03  0.16952597064E+03  0.00000000000E+00 0.  1.
         21   -1    0    0  501  503 -0.00000000000E+00 -0.00000000000E+00 -0.25516444678E+03  0.25516444678E+03  0.00000000000E+00 0.  1.
          6    2    1    2  501    0 -0.41543699606E+02 -0.23659545259E+02 -0.14880755364E+03  0.23433879079E+03  0.17460048050E+03 0.  0.
         24    2    3    3    0    0  0.39169179855E+02 -0.14046344346E+02 -0.11321868237E+03  0.14548137523E+03  0.81331642431E+02 0.  0.
         -6    2    1    2    0  502  0.41543699606E+02  0.23659545259E+02  0.63169077499E+02  0.19035162663E+03  0.17308309089E+03 0.  0.
        -24    2    5    5    0    0  0.30316210929E+02  0.69212868410E+02  0.82916792044E+02  0.13923192415E+03  0.82467208643E+02 0.  0.
          5    1    3    3  501    0 -0.80712879461E+02 -0.96132009127E+01 -0.35588871273E+02  0.88857415566E+02  0.47000000000E+01 0. -1.
        -15    1    4    4    0    0  0.46209410864E+02 -0.41427688280E+02 -0.67361526961E+02  0.91609475777E+02  0.17770000000E+01 0.  1.
         16    1    4    4    0    0 -0.70402310087E+01  0.27381343933E+02 -0.45857155407E+02  0.53871899449E+02  0.00000000000E+00 0. -1.
         -5    1    5    5    0  502  0.11227488677E+02 -0.45553323151E+02 -0.19747714545E+02  0.51119702482E+02  0.47000000000E+01 0.  1.
         15    1    6    6    0    0  0.18393979182E+02  0.38686086490E+02 -0.70799787631E+01  0.43453832816E+02  0.17770000000E+01 0. -1.
        -16    1    6    6    0    0  0.11922231747E+02  0.30526781920E+02  0.89996770807E+02  0.95778091336E+02  0.00000000000E+00 0.  1.
<mgrwt>
<rscale>  2 0.18066069E+03</rscale>
<asrwt>0</asrwt>
<pdfrwt beam="1">  1       21 0.26080919E-01 0.18102757E+03</pdfrwt>
<pdfrwt beam="2">  1       21 0.39256069E-01 0.18102757E+03</pdfrwt>
<totfact> 0.87787247E+04</totfact>
</mgrwt>
</event>
<event>
12    2  0.4090627E-002  0.1888319E+03  0.7546771E-02  0.1159543E+00
         21   -1    0    0  501  502  0.00000000000E+00  0.00000000000E+00  0.11543646272E+03  0.11543646272E+03  0.00000000000E+00 0.  1.
         21   -1    0    0  502  503 -0.00000000000E+00 -0.00000000000E+00 -0.31489595705E+03  0.31489595705E+03  0.00000000000E+00 0. -1.
         -6    2    1    2    0  503  0.26602540071E+02 -0.71085496893E+02 -0.12988349952E+03  0.22918812000E+03  0.17290641369E+03 0.  0.
        -24    2    3    3    0    0  0.15494107223E+02 -0.11731388797E+03 -0.76664479670E+02  0.15767018172E+03  0.70567897040E+02 0.  0.
          6    2    1    2  501    0 -0.26602540071E+02  0.71085496893E+02 -0.69575994818E+02  0.20114429977E+03  0.17279284495E+03 0.  0.
         24    2    5    5    0    0 -0.23144812065E+01  0.92419982539E+02 -0.98654790810E+02  0.15740945716E+03  0.80611162122E+02 0.  0.
          5    1    5    5  501    0 -0.24288058865E+02 -0.21334485646E+02  0.29078795993E+02  0.43734842604E+02  0.47000000000E+01 0. -1.
        -15    1    6    6    0    0 -0.96024590057E+01  0.50429251378E+02 -0.15789637152E+01  0.51390344122E+02  0.17770000000E+01 0.  1.
         16    1    6    6    0    0  0.72879777992E+01  0.41990731161E+02 -0.97075827095E+02  0.10601911304E+03  0.00000000000E+00 0. -1.
         -5    1    3    3    0  503  0.11108432848E+02  0.46228391076E+02 -0.53219019851E+02  0.71517938279E+02  0.47000000000E+01 0.  1.
         15    1    4    4    0    0 -0.12385533094E+02 -0.45811991267E+00 -0.22800213339E+02  0.26011896532E+02  0.17770000000E+01 0. -1.
        -16    1    4    4    0    0  0.27879640317E+02 -0.11685576806E+03 -0.53864266331E+02  0.13165828519E+03  0.00000000000E+00 0.  1.
<mgrwt>
<rscale>  2 0.18880586E+03</rscale>
<asrwt>0</asrwt>
<pdfrwt beam="1">  1       21 0.17759456E-01 0.18883186E+03</pdfrwt>
<pdfrwt beam="2">  1       21 0.48445531E-01 0.18883186E+03</pdfrwt>
<totfact> 0.11728226E+05</totfact>
</mgrwt>
</event>
<event>
12    2  0.4090627E-002  0.2288574E+03  0.7546771E-02  0.1127672E+00
         21   -1    0    0  503  502  0.00000000000E+00  0.00000000000E+00  0.37552006365E+03  0.37552006365E+03  0.00000000000E+00 0. -1.
         21   -1    0    0  501  503 -0.00000000000E+00 -0.00000000000E+00 -0.36972494233E+03  0.36972494233E+03  0.00000000000E+00 0. -1.
          6    2    1    2  501    0  0.40677001414E+02 -0.14482794963E+03 -0.29165388940E+03  0.36994298521E+03  0.17078075905E+03 0.  0.
         24    2    3    3    0    0  0.27289091335E+02 -0.15810784261E+03 -0.29981142323E+03  0.34886629068E+03  0.77961624372E+02 0.  0.
         -6    2    1    2    0  502 -0.40677001414E+02  0.14482794963E+03  0.29744901072E+03  0.37530202077E+03  0.17247011155E+03 0.  0.
        -24    2    5    5    0    0 -0.42982568497E+02  0.15816829035E+03  0.30771464980E+03  0.35767381395E+03  0.79859515483E+02 0.  0.
          5    1    3    3  501    0  0.13387910079E+02  0.13279892978E+02  0.81575338312E+01  0.21076694523E+02  0.47000000000E+01 0. -1.
        -15    1    4    4    0    0 -0.22292129395E+02 -0.48545250848E+02 -0.58442822127E+02  0.79197863608E+02  0.17770000000E+01 0.  1.
         16    1    4    4    0    0  0.49581220730E+02 -0.10956259177E+03 -0.24136860110E+03  0.26966842708E+03  0.00000000000E+00 0. -1.
         -5    1    5    5    0  502  0.23055670831E+01 -0.13340340714E+02 -0.10265639086E+02  0.17628206823E+02  0.47000000000E+01 0.  1.
         15    1    6    6    0    0 -0.39822969519E+01  0.10654982711E+03  0.12760722369E+03  0.16629938549E+03  0.17770000000E+01 0. -1.
        -16    1    6    6    0    0 -0.39000271545E+02  0.51618463240E+02  0.18010742611E+03  0.19137442846E+03  0.00000000000E+00 0.  1.
<mgrwt>
<rscale>  2 0.22853910E+03</rscale>
<asrwt>0</asrwt>
<pdfrwt beam="1">  1       21 0.57772318E-01 0.22885736E+03</pdfrwt>
<pdfrwt beam="2">  1       21 0.56880760E-01 0.22885736E+03</pdfrwt>
<totfact> 0.79621474E+03</totfact>
</mgrwt>
</event>
<event>
12    2  0.4090627E-002  0.1765471E+03  0.7546771E-02  0.1171733E+00
         21   -1    0    0  501  502  0.00000000000E+00  0.00000000000E+00  0.12374339556E+04  0.12374339556E+04  0.00000000000E+00 0.  1.
         21   -1    0    0  502  503 -0.00000000000E+00 -0.00000000000E+00 -0.45358623032E+02  0.45358623032E+02  0.00000000000E+00 0.  1.
         -6    2    1    2    0  503  0.28921036883E+02  0.16345118574E+02  0.10249936850E+04  0.10397181923E+04  0.17116739157E+03 0.  0.
        -24    2    3    3    0    0  0.61841916599E+02  0.59649950846E+02  0.77679337297E+03  0.78558323271E+03  0.79690224869E+02 0.  0.
          6    2    1    2  501    0 -0.28921036883E+02 -0.16345118574E+02  0.16708164758E+03  0.24307438630E+03  0.17339345731E+03 0.  0.
         24    2    5    5    0    0 -0.30794577029E+02 -0.36102531260E+02  0.19028899708E+03  0.21217881090E+03  0.80983002214E+02 0.  0.
          5    1    5    5  501    0  0.18735401465E+01  0.19757412686E+02 -0.23207349493E+02  0.30895575399E+02  0.47000000000E+01 0. -1.
        -15    1    6    6    0    0 -0.17654019054E+02 -0.47779754966E+02  0.52129800861E+02  0.72905714729E+02  0.17770000000E+01 0.  1.
         16    1    6    6    0    0 -0.13140557975E+02  0.11677223705E+02  0.13815919622E+03  0.13927309617E+03  0.00000000000E+00 0. -1.
         -5    1    3    3    0  503 -0.32920879717E+02 -0.43304832272E+02  0.24820031203E+03  0.25413495964E+03  0.47000000000E+01 0.  1.
         15    1    4    4    0    0  0.12992172659E+01 -0.18467749862E+01  0.35699624444E+03  0.35700780778E+03  0.17770000000E+01 0. -1.
        -16    1    4    4    0    0  0.60542699334E+02  0.61496725832E+02  0.41979712853E+03  0.42857542493E+03  0.00000000000E+00 0.  1.
<mgrwt>
<rscale>  2 0.17599810E+03</rscale>
<asrwt>0</asrwt>
<pdfrwt beam="1">  1       21 0.19037443E+00 0.17654711E+03</pdfrwt>
<pdfrwt beam="2">  1       21 0.69782506E-02 0.17654711E+03</pdfrwt>
<totfact> 0.23866651E+04</totfact>
</mgrwt>
</event>
<event>
12    2  0.4090627E-002  0.1884467E+03  0.7546771E-02  0.1162377E+00
         21   -1    0    0  501  502  0.00000000000E+00  0.00000000000E+00  0.10405323185E+03  0.10405323185E+03  0.00000000000E+00 0.  1.
         21   -1    0    0  502  503 -0.00000000000E+00 -0.00000000000E+00 -0.32388397358E+03  0.32388397358E+03  0.00000000000E+00 0.  1.
         -6    2    1    2    0  503  0.75666766933E+02 -0.29528367716E+01 -0.91548669233E+02  0.19997134713E+03  0.16085149042E+03 0.  0.
        -24    2    3    3    0    0  0.95116610712E+02  0.39744623677E+02 -0.65571759778E+02  0.14613586277E+03  0.80182479145E+02 0.  0.
          6    2    1    2  501    0 -0.75666766933E+02  0.29528367716E+01 -0.12828207250E+03  0.22796585829E+03  0.17256292638E+03 0.  0.
         24    2    5    5    0    0 -0.40324051358E+02 -0.29496801162E+01 -0.15831678622E+03  0.18097520732E+03  0.77801613974E+02 0.  0.
          5    1    5    5  501    0 -0.35342715575E+02  0.59025168878E+01  0.30034713722E+02  0.46990650966E+02  0.47000000000E+01 0. -1.
        -15    1    6    6    0    0 -0.29937393638E+02 -0.30970009159E+02 -0.39542214346E+02  0.58499003833E+02  0.17770000000E+01 0.  1.
         16    1    6    6    0    0 -0.10386657721E+02  0.28020329042E+02 -0.11877457187E+03  0.12247620349E+03  0.00000000000E+00 0. -1.
         -5    1    3    3    0  503 -0.19449843779E+02 -0.42697460448E+02 -0.25976909455E+02  0.53835484363E+02  0.47000000000E+01 0.  1.
         15    1    4    4    0    0  0.19365115866E+02 -0.45693006423E+01  0.16552386295E+02  0.25942733894E+02  0.17770000000E+01 0. -1.
        -16    1    4    4    0    0  0.75751494847E+02  0.44313924319E+02 -0.82124146073E+02  0.12019312887E+03  0.00000000000E+00 0.  1.
<mgrwt>
<rscale>  2 0.18572266E+03</rscale>
<asrwt>0</asrwt>
<pdfrwt beam="1">  1       21 0.16008189E-01 0.18844666E+03</pdfrwt>
<pdfrwt beam="2">  1       21 0.49828304E-01 0.18844666E+03</pdfrwt>
<totfact> 0.13388622E+05</totfact>
</mgrwt>
</event>
<event>
12    2  0.4090627E-002  0.2186768E+03  0.7546771E-02  0.1135708E+00
         21   -1    0    0  503  502  0.00000000000E+00  0.00000000000E+00  0.18516612641E+03  0.18516612641E+03  0.00000000000E+00 0.  1.
         21   -1    0    0  501  503 -0.00000000000E+00 -0.00000000000E+00 -0.26798738533E+03  0.26798738533E+03  0.00000000000E+00 0. -1.
          6    2    1    2  501    0 -0.10451069310E+03  0.64686808481E+02  0.12403996073E+02  0.21464271534E+03  0.17552996315E+03 0.  0.
         24    2    3    3    0    0 -0.11480151991E+03  0.23206987510E+02  0.55921009077E+02  0.15346839814E+03  0.81898942160E+02 0.  0.
         -6    2    1    2    0  502  0.10451069310E+03 -0.64686808481E+02 -0.95225254987E+02  0.23851079641E+03  0.18086647741E+03 0.  0.
        -24    2    5    5    0    0  0.59748940106E+02 -0.62594343153E+02 -0.13401669285E+03  0.17905611960E+03  0.81318093727E+02 0.  0.
          5    1    3    3  501    0  0.10290826810E+02  0.41479820971E+02 -0.43517013004E+02  0.61174317201E+02  0.47000000000E+01 0. -1.
        -15    1    4    4    0    0 -0.39129575275E+02  0.45834690194E+02  0.73299316608E+01  0.60735723537E+02  0.17770000000E+01 0.  1.
         16    1    4    4    0    0 -0.75671944638E+02 -0.22627702684E+02  0.48591077416E+02  0.92732674600E+02  0.00000000000E+00 0. -1.
         -5    1    5    5    0  502  0.44761752997E+02 -0.20924653286E+01  0.38791437860E+02  0.59454676803E+02  0.47000000000E+01 0.  1.
         15    1    6    6    0    0  0.71229165337E+01 -0.52586525623E+02 -0.10611155596E+03  0.11865453491E+03  0.17770000000E+01 0. -1.
        -16    1    6    6    0    0  0.52626023573E+02 -0.10007817529E+02 -0.27905136882E+02  0.60401584691E+02  0.00000000000E+00 0.  1.
<mgrwt>
<rscale>  2 0.21757024E+03</rscale>
<asrwt>0</asrwt>
<pdfrwt beam="1">  1       21 0.28487097E-01 0.21867682E+03</pdfrwt>
<pdfrwt beam="2">  1       21 0.41228828E-01 0.21867682E+03</pdfrwt>
<totfact> 0.65996841E+04</totfact>
</mgrwt>
</event>
<event>
12    2  0.4090627E-002  0.1923845E+03  0.7546771E-02  0.1156821E+00
         21   -1    0    0  503  502  0.00000000000E+00  0.00000000000E+00  0.48249315768E+03  0.48249315768E+03  0.00000000000E+00 0.  1.
         21   -1    0    0  501  503 -0.00000000000E+00 -0.00000000000E+00 -0.10920058685E+03  0.10920058685E+03  0.00000000000E+00 0. -1.
          6    2    1    2  501    0 -0.26737988462E+02 -0.84189702275E+02  0.23856832238E+02  0.19385805998E+03  0.17090632808E+03 0.  0.
         24    2    3    3    0    0  0.17144874502E+02 -0.94986961052E+02 -0.25062196269E+02  0.12709393931E+03  0.78792678819E+02 0.  0.
         -6    2    1    2    0  502  0.26737988462E+02  0.84189702275E+02  0.34943573860E+03  0.39783568455E+03  0.16841932935E+03 0.  0.
        -24    2    5    5    0    0 -0.34086082554E+02  0.94149710557E+02  0.21464542916E+03  0.24954783306E+03  0.78583915068E+02 0.  0.
          5    1    3    3  501    0 -0.43882862965E+02  0.10797258777E+02  0.48919028506E+02  0.66764120672E+02  0.47000000000E+01 0. -1.
        -15    1    4    4    0    0  0.78703468238E+01 -0.42976492392E+02  0.28233743438E+02  0.52050199375E+02  0.17770000000E+01 0.  1.
         16    1    4    4    0    0  0.92745276785E+01 -0.52010468659E+02 -0.53295939707E+02  0.75043739933E+02  0.00000000000E+00 0. -1.
         -5    1    5    5    0  502  0.60824071016E+02 -0.99600082826E+01  0.13479030944E+03  0.14828785149E+03  0.47000000000E+01 0.  1.
         15    1    6    6    0    0 -0.39324784495E+02  0.45021619793E+02  0.50969386766E+02  0.78577484311E+02  0.17770000000E+01 0. -1.
        -16    1    6    6    0    0  0.52387019413E+01  0.49128090764E+02  0.16367604239E+03  0.17097034875E+03  0.00000000000E+00 0.  1.
<mgrwt>
<rscale>  2 0.19183064E+03</rscale>
<asrwt>0</asrwt>
<pdfrwt beam="1">  1       21 0.74229715E-01 0.19238451E+03</pdfrwt>
<pdfrwt beam="2">  1       21 0.16800091E-01 0.19238451E+03</pdfrwt>
<totfact> 0.51881946E+04</totfact>
</mgrwt>
</event>
<event>
11    2  0.4090627E-002  0.2146095E+03  0.7546771E-02  0.1138605E+00
         21   -1    0    0  503  502  0.00000000000E+00  0.00000000000E+00  0.96839260426E+03  0.96839260426E+03  0.00000000000E+00 0.  1.
         21   -1    0    0  501  503 -0.00000000000E+00 -0.00000000000E+00 -0.47021676246E+02  0.47021676246E+02  0.00000000000E+00 0. -1.
          6    2    1    2  501    0  0.11631062541E+03  0.49619591940E+02  0.49625442466E+03  0.54067152152E+03  0.17339831226E+03 0.  0.
         -6    2    1    2    0  502 -0.11631062541E+03 -0.49619591940E+02  0.42511650335E+03  0.47474275899E+03  0.16931148899E+03 0.  0.
        -24    2    4    4    0    0  0.52717501168E+01 -0.33718161575E+01  0.14380709524E+03  0.16477791599E+03  0.80200501636E+02 0.  0.
          5    1    3    3  501    0 -0.21044391909E+02  0.68439482147E+01  0.37296230970E+02  0.43621152008E+02  0.47000000000E+01 0. -1.
        -15    1    3    3    0    0  0.95892161998E+02  0.73547674981E+02  0.40378144371E+03  0.42148212209E+03  0.17770000000E+01 0.  1.
         16    1    3    3    0    0  0.41462855324E+02 -0.30772031256E+02  0.55176749983E+02  0.75568247419E+02  0.00000000000E+00 0. -1.
         -5    1    4    4    0  502 -0.12158237553E+03 -0.46247775782E+02  0.28130940811E+03  0.30996484300E+03  0.47000000000E+01 0.  1.
         15    1    5    5    0    0 -0.26866908526E+02 -0.23541740477E+02  0.37132377655E+02  0.51555945513E+02  0.17770000000E+01 0. -1.
        -16    1    5    5    0    0  0.32138658643E+02  0.20169924319E+02  0.10667471759E+03  0.11322197048E+03  0.00000000000E+00 0.  1.
<mgrwt>
<rscale>  2 0.21378266E+03</rscale>
<asrwt>0</asrwt>
<pdfrwt beam="1">  1       21 0.14898346E+00 0.21460951E+03</pdfrwt>
<pdfrwt beam="2">  1       21 0.72341048E-02 0.21460951E+03</pdfrwt>
<totfact> 0.42940889E+04</totfact>
</mgrwt>
</event>
<event>
12    2  0.4090627E-002  0.1903422E+03  0.7546771E-02  0.1158177E+00
         21   -1    0    0  503  502  0.00000000000E+00  0.00000000000E+00  0.22280209945E+04  0.22280209945E+04  0.00000000000E+00 0.  1.
         21   -1    0    0  501  503 -0.00000000000E+00 -0.00000000000E+00 -0.30129771233E+02  0.30129771233E+02  0.00000000000E+00 0. -1.
          6    2    1    2  501    0 -0.21308856357E+01 -0.76570674168E+02  0.33283699240E+03  0.38341962706E+03  0.17424849523E+03 0.  0.
         24    2    3    3    0    0 -0.46349653938E+02 -0.59473543930E+02  0.11172682285E+03  0.15723517045E+03  0.80960626454E+02 0.  0.
         -6    2    1    2    0  502  0.21308856357E+01  0.76570674168E+02  0.18650542308E+04  0.18747311386E+04  0.17413198847E+03 0.  0.
        -24    2    5    5    0    0 -0.43841839908E+01 -0.14551670841E+02  0.54230055232E+03  0.54881820336E+03  0.82949135665E+02 0.  0.
          5    1    3    3  501    0  0.44218768302E+02 -0.17097130238E+02  0.22111016955E+03  0.22618445661E+03  0.47000000000E+01 0. -1.
        -15    1    4    4    0    0 -0.29379135874E+02  0.15604626623E+02  0.28156941947E+02  0.43618907661E+02  0.17770000000E+01 0.  1.
         16    1    4    4    0    0 -0.16970518064E+02 -0.75078170553E+02  0.83569880899E+02  0.11361626279E+03  0.00000000000E+00 0. -1.
         -5    1    5    5    0  502  0.65150696266E+01  0.91122345009E+02  0.13227536785E+04  0.13259129353E+04  0.47000000000E+01 0.  1.
         15    1    6    6    0    0 -0.53640138655E+01 -0.33412821322E+02  0.51195491957E+03  0.51307522516E+03  0.17770000000E+01 0. -1.
        -16    1    6    6    0    0  0.97982987466E+00  0.18861150481E+02  0.30345632749E+02  0.35742978205E+02  0.00000000000E+00 0.  1.
<mgrwt>
<rscale>  2 0.19031552E+03</rscale>
<asrwt>0</asrwt>
<pdfrwt beam="1">  1       21 0.34277233E+00 0.19034218E+03</pdfrwt>
<pdfrwt beam="2">  1       21 0.46353512E-02 0.19034218E+03</pdfrwt>
<totfact> 0.59139241E+03</totfact>
</mgrwt>
</event>
<event>
12    2  0.4090627E-002  0.3246137E+03  0.7546771E-02  0.1073625E+00
         21   -1    0    0  501  502  0.00000000000E+00  0.00000000000E+00  0.32287638999E+03  0.32287638999E+03  0.00000000000E+00 0.  1.
         21   -1    0    0  502  503 -0.00000000000E+00 -0.00000000000E+00 -0.33787555426E+03  0.33787555426E+03  0.00000000000E+00 0.  1.
         -6    2    1    2    0  503  0.58151131710E+02 -0.26765247440E+03 -0.70330063409E+02  0.33145636009E+03  0.17290922374E+03 0.  0.
        -24    2    3    3    0    0 -0.19223098421E+02 -0.15713015176E+03 -0.79645369461E+02  0.19613888075E+03  0.84069397278E+02 0.  0.
          6    2    1    2  501    0 -0.58151131710E+02  0.26765247440E+03  0.55330899138E+02  0.32929558416E+03  0.17422592281E+03 0.  0.
         24    2    5    5    0    0  0.35296282028E+02  0.10427326248E+03 -0.38713925599E+01  0.13193249905E+03  0.72611678348E+02 0.  0.
          5    1    5    5  501    0 -0.93447413738E+02  0.16337921192E+03  0.59202291698E+02  0.19736308511E+03  0.47000000000E+01 0. -1.
        -15    1    6    6    0    0  0.41380934290E+02  0.95922246258E+02  0.19583933043E+02  0.10630215055E+03  0.17770000000E+01 0.  1.
         16    1    6    6    0    0 -0.60846522622E+01  0.83510162254E+01 -0.23455325603E+02  0.25630348501E+02  0.00000000000E+00 0. -1.
         -5    1    3    3    0  503  0.77374230131E+02 -0.11052232264E+03  0.93153060516E+01  0.13531747935E+03  0.47000000000E+01 0.  1.
         15    1    4    4    0    0 -0.95329452348E+01 -0.30205698788E+02  0.17297841234E+02  0.36133562300E+02  0.17770000000E+01 0. -1.
        -16    1    4    4    0    0 -0.96901531859E+01 -0.12692445297E+03 -0.96943210695E+02  0.16000531845E+03  0.00000000000E+00 0.  1.
<mgrwt>
<rscale>  2 0.32443739E+03</rscale>
<asrwt>0</asrwt>
<pdfrwt beam="1">  1       21 0.49673291E-01 0.32461373E+03</pdfrwt>
<pdfrwt beam="2">  1       21 0.51980854E-01 0.32461373E+03</pdfrwt>
<totfact> 0.12680164E+04</totfact>
</mgrwt>
</event>
<event>
12    2  0.4090627E-002  0.2344208E+03  0.7546771E-02  0.1123609E+00
         21   -1    0    0  501  502  0.00000000000E+00  0.00000000000E+00  0.10831366660E+04  0.10831366660E+04  0.00000000000E+00 0.  1.
         21   -1    0    0  502  503 -0.00000000000E+00 -0.00000000000E+00 -0.87337218644E+02  0.87337218644E+02  0.00000000000E+00 0. -1.
         -6    2    1    2    0  503 -0.15124240465E+03  0.45241870921E+02  0.11891044308E+03  0.26285510165E+03  0.17329748741E+03 0.  0.
        -24    2    3    3    0    0 -0.97154780210E+02  0.24270553927E+02 -0.16742893444E+01  0.12895948952E+03  0.81238141203E+02 0.  0.
          6    2    1    2  501    0  0.15124240465E+03 -0.45241870921E+02  0.87688900432E+03  0.90761878304E+03  0.17296368863E+03 0.  0.
         24    2    5    5    0    0  0.12693238976E+03  0.24438195103E+02  0.46115930705E+03  0.48536345789E+03  0.78744668564E+02 0.  0.
          5    1    5    5  501    0  0.24310014886E+02 -0.69680066024E+02  0.41572969727E+03  0.42225532515E+03  0.47000000000E+01 0. -1.
        -15    1    6    6    0    0  0.96282441647E+02 -0.60681331522E+01  0.39277408529E+03  0.40445243306E+03  0.17770000000E+01 0.  1.
         16    1    6    6    0    0  0.30649948115E+02  0.30506328255E+02  0.68385221761E+02  0.80911024826E+02  0.00000000000E+00 0. -1.
         -5    1    3    3    0  503 -0.54087624439E+02  0.20971316994E+02  0.12058473243E+03  0.13389561213E+03  0.47000000000E+01 0.  1.
         15    1    4    4    0    0 -0.56080903028E+02 -0.17041491007E+02 -0.28058859475E+02  0.65007210556E+02  0.17770000000E+01 0. -1.
        -16    1    4    4    0    0 -0.41073877181E+02  0.41312044934E+02  0.26384570131E+02  0.63952278961E+02  0.00000000000E+00 0.  1.
<mgrwt>
<rscale>  2 0.23435911E+03</rscale>
<asrwt>0</asrwt>
<pdfrwt beam="1">  1       21 0.16663640E+00 0.23442080E+03</pdfrwt>
<pdfrwt beam="2">  1       21 0.13436496E-01 0.23442080E+03</pdfrwt>
<totfact> 0.10472054E+04</totfact>
</mgrwt>
</event>
<event>
12    2  0.4090627E-002  0.3630985E+03  0.7546771E-02  0.1057473E+00
         21   -1    0    0  501  502  0.00000000000E+00  0.00000000000E+00  0.12938537787E+03  0.12938537787E+03  0.00000000000E+00 0.  1.
         21   -1    0    0  502  503 -0.00000000000E+00 -0.00000000000E+00 -0.13255160488E+04  0.13255160488E+04  0.00000000000E+00 0.  1.
         -6    2    1    2    0  503  0.22906572609E+02  0.31794787861E+03 -0.95038175490E+03  0.10173819452E+04  0.17385332242E+03 0.  0.
        -24    2    3    3    0    0  0.66554184127E+02  0.29310121206E+03 -0.78245479258E+03  0.84204220208E+03  0.80385245675E+02 0.  0.
          6    2    1    2  501    0 -0.22906572609E+02 -0.31794787861E+03 -0.24574891601E+03  0.43751948149E+03  0.17150860729E+03 0.  0.
         24    2    5    5    0    0 -0.46716489796E+02 -0.31266934294E+03 -0.25653624239E+03  0.41044123365E+03  0.52025130342E+02 0.  0.
          5    1    5    5  501    0  0.23809917187E+02 -0.52785356777E+01  0.10787326383E+02  0.27078247836E+02  0.47000000000E+01 0. -1.
        -15    1    6    6    0    0 -0.92536268773E+01 -0.22278421899E+03 -0.17600303807E+03  0.28407510447E+03  0.17770000000E+01 0.  1.
         16    1    6    6    0    0 -0.37462862919E+02 -0.89885123947E+02 -0.80533204320E+02  0.12636612918E+03  0.00000000000E+00 0. -1.
         -5    1    3    3    0  503 -0.43647611518E+02  0.24846666556E+02 -0.16792696233E+03  0.17533974309E+03  0.47000000000E+01 0.  1.
         15    1    4    4    0    0  0.15899992070E+02  0.47837610665E+02 -0.23009836746E+03  0.23556244009E+03  0.17770000000E+01 0. -1.
        -16    1    4    4    0    0  0.50654192057E+02  0.24526360139E+03 -0.55235642511E+03  0.60647976199E+03  0.00000000000E+00 0.  1.
<mgrwt>
<rscale>  2 0.36281901E+03</rscale>
<asrwt>0</asrwt>
<pdfrwt beam="1">  1       21 0.19905442E-01 0.36309853E+03</pdfrwt>
<pdfrwt beam="2">  1       21 0.20392555E+00 0.36309853E+03</pdfrwt>
<totfact> 0.26076797E+03</totfact>
</mgrwt>
</event>
<event>
12    2  0.4090627E-002  0.2500624E+03  0.7546771E-02  0.1113356E+00
         21   -1    0    0  501  502  0.00000000000E+00  0.00000000000E+00  0.93563131672E+03  0.93563131672E+03  0.00000000000E+00 0. -1.
         21   -1    0    0  502  503 -0.00000000000E+00 -0.00000000000E+00 -0.29540229506E+03  0.29540229506E+03  0.00000000000E+00 0.  1.
         -6    2    1    2    0  503  0.15048473392E+03  0.98277010595E+02 -0.22157786783E+03  0.33368065086E+03  0.17303756614E+03 0.  0.
        -24    2    3    3    0    0  0.11416378019E+03  0.42858342090E+02 -0.58603894917E+02  0.15768904213E+03  0.81001304392E+02 0.  0.
          6    2    1    2  501    0 -0.15048473392E+03 -0.98277010595E+02  0.86180688949E+03  0.89735296091E+03  0.17385970128E+03 0.  0.
         24    2    5    5    0    0 -0.14663344158E+03 -0.36589730122E+02  0.74957323433E+03  0.76913971520E+03  0.82919800631E+02 0.  0.
          5    1    5    5  501    0 -0.38512923391E+01 -0.61687280473E+02  0.11223365516E+03  0.12821324571E+03  0.47000000000E+01 0. -1.
        -15    1    6    6    0    0 -0.52103782996E+02 -0.32635547818E+02  0.14956896244E+03  0.16172172222E+03  0.17770000000E+01 0.  1.
         16    1    6    6    0    0 -0.94529658582E+02 -0.39541823038E+01  0.60000427189E+03  0.60741799298E+03  0.00000000000E+00 0. -1.
         -5    1    3    3    0  503  0.36320953727E+02  0.55418668505E+02 -0.16297397291E+03  0.17599160874E+03  0.47000000000E+01 0.  1.
         15    1    4    4    0    0  0.79852859386E+01  0.15360959216E+01  0.18384137942E+02  0.20180650115E+02  0.17770000000E+01 0. -1.
        -16    1    4    4    0    0  0.10617849425E+03  0.41322246168E+02 -0.76988032859E+02  0.13750839201E+03  0.00000000000E+00 0.  1.
<mgrwt>
<rscale>  2 0.24991959E+03</rscale>
<asrwt>0</asrwt>
<pdfrwt beam="1">  1       21 0.14394328E+00 0.25006244E+03</pdfrwt>
<pdfrwt beam="2">  1       21 0.45446507E-01 0.25006244E+03</pdfrwt>
<totfact> 0.14696027E+03</totfact>
</mgrwt>
</event>
<event>
12    2  0.4090627E-002  0.1939749E+03  0.7546771E-02  0.1155354E+00
         21   -1    0    0  501  502  0.00000000000E+00  0.00000000000E+00  0.98500767470E+02  0.98500767470E+02  0.00000000000E+00 0.  1.
         21   -1    0    0  502  503 -0.00000000000E+00 -0.00000000000E+00 -0.55747946112E+03  0.55747946112E+03  0.00000000000E+00 0. -1.
         -6    2    1    2    0  503  0.74030200766E+02  0.47471051790E+02 -0.41472121186E+03  0.45702045764E+03  0.17070455105E+03 0.  0.
        -24    2    3    3    0    0  0.95205226777E+02  0.30383730323E+02 -0.18202627842E+03  0.22269295108E+03  0.80444876475E+02 0.  0.
          6    2    1    2  501    0 -0.74030200766E+02 -0.47471051790E+02 -0.44257481787E+02  0.19895977095E+03  0.17289388184E+03 0.  0.
         24    2    5    5    0    0 -0.71035293769E+01 -0.83687491582E+02 -0.38673355932E+02  0.12251317314E+03  0.80372835945E+02 0.  0.
          5    1    5    5  501    0 -0.66926671389E+02  0.36216439792E+02 -0.55841258545E+01  0.76446597805E+02  0.47000000000E+01 0. -1.
        -15    1    6    6    0    0  0.49218746195E+01 -0.31461222290E+02  0.24099383791E+02  0.39974634281E+02  0.17770000000E+01 0.  1.
         16    1    6    6    0    0 -0.12025403996E+02 -0.52226269291E+02 -0.62772739723E+02  0.82538538864E+02  0.00000000000E+00 0. -1.
         -5    1    3    3    0  503 -0.21175026011E+02  0.17087321467E+02 -0.23269493344E+03  0.23432750656E+03  0.47000000000E+01 0.  1.
         15    1    4    4    0    0  0.10492638617E+02  0.17938261735E+02 -0.10649180584E+03  0.10851515626E+03  0.17770000000E+01 0. -1.
        -16    1    4    4    0    0  0.84712588160E+02  0.12445468588E+02 -0.75534472588E+02  0.11417779482E+03  0.00000000000E+00 0.  1.
<mgrwt>
<rscale>  2 0.19348586E+03</rscale>
<asrwt>0</asrwt>
<pdfrwt beam="1">  1       21 0.15153964E-01 0.19397491E+03</pdfrwt>
<pdfrwt beam="2">  1       21 0.85766072E-01 0.19397491E+03</pdfrwt>
<totfact> 0.45172749E+04</totfact>
</mgrwt>
</event>
<event>
12    2  0.4090627E-002  0.2878553E+03  0.7546771E-02  0.1091631E+00
         21   -1    0    0  501  502  0.00000000000E+00  0.00000000000E+00  0.50012832111E+03  0.50012832111E+03  0.00000000000E+00 0. -1.
         21   -1    0    0  502  503 -0.00000000000E+00 -0.00000000000E+00 -0.21983155746E+03  0.21983155746E+03  0.00000000000E+00 0. -1.
         -6    2    1    2    0  503 -0.12207334617E+03  0.19475375970E+03 -0.39858886216E+02  0.28942497690E+03  0.17131012136E+03 0.  0.
        -24    2    3    3    0    0 -0.57245171234E+02  0.23107801040E+02 -0.26637014996E+02  0.10540884916E+03  0.81181985780E+02 0.  0.
          6    2    1    2  501    0  0.12207334617E+03 -0.19475375970E+03  0.32015564986E+03  0.43053490167E+03  0.17329089029E+03 0.  0.
         24    2    5    5    0    0  0.92547278352E+02 -0.19030717099E+03  0.18821741940E+03  0.29517852949E+03  0.83203060325E+02 0.  0.
          5    1    5    5  501    0  0.29526067819E+02 -0.44465887069E+01  0.13193823046E+03  0.13535637218E+03  0.47000000000E+01 0. -1.
        -15    1    6    6    0    0  0.47241996671E+02 -0.29002492208E+02  0.23537935816E+02  0.60250667674E+02  0.17770000000E+01 0.  1.
         16    1    6    6    0    0  0.45305281681E+02 -0.16130467878E+03  0.16467948358E+03  0.23492786182E+03  0.00000000000E+00 0. -1.
         -5    1    3    3    0  503 -0.64828174937E+02  0.17164595866E+03 -0.13221871220E+02  0.18401612774E+03  0.47000000000E+01 0.  1.
         15    1    4    4    0    0 -0.40524281601E+02  0.41502752998E+02  0.12195772859E+02  0.59300847467E+02  0.17770000000E+01 0. -1.
        -16    1    4    4    0    0 -0.16720889633E+02 -0.18394951958E+02 -0.38832787855E+02  0.46108001694E+02  0.00000000000E+00 0.  1.
<mgrwt>
<rscale>  2 0.28755780E+03</rscale>
<asrwt>0</asrwt>
<pdfrwt beam="1">  1       21 0.76942818E-01 0.28785528E+03</pdfrwt>
<pdfrwt beam="2">  1       21 0.33820240E-01 0.28785528E+03</pdfrwt>
<totfact> 0.11987990E+04</totfact>
</mgrwt>
</event>
<event>
12    2  0.4090627E-002  0.5327098E+03  0.7546771E-02  0.1005610E+00
         21   -1    0    0  501  502  0.00000000000E+00  0.00000000000E+00  0.39663752329E+03  0.39663752329E+03  0.00000000000E+00 0. -1.
         21   -1    0    0  502  503 -0.00000000000E+00 -0.00000000000E+00 -0.73391332554E+03  0.73391332554E+03  0.00000000000E+00 0. -1.
         -6    2    1    2    0  503  0.43785906302E+02  0.50098345614E+03 -0.77170876576E+02  0.53773189428E+03  0.17406497929E+03 0.  0.
        -24    2    3    3    0    0 -0.42055897638E+02  0.27112341313E+03 -0.27976556147E+02  0.28743881439E+03  0.81004818697E+02 0.  0.
          6    2    1    2  501    0 -0.43785906302E+02 -0.50098345614E+03 -0.26010492567E+03  0.59281895456E+03  0.17572168793E+03 0.  0.
         24    2    5    5    0    0 -0.60341594671E+02 -0.50358015747E+03 -0.24195267735E+03  0.56767083744E+03  0.80467375787E+02 0.  0.
          5    1    5    5  501    0  0.16555688368E+02  0.25967013295E+01 -0.18152248323E+02  0.25148117113E+02  0.47000000000E+01 0. -1.
        -15    1    6    6    0    0  0.31134973509E+01 -0.22157041255E+03 -0.75486103346E+02  0.23410350512E+03  0.17770000000E+01 0.  1.
         16    1    6    6    0    0 -0.63455092022E+02 -0.28200974492E+03 -0.16646657400E+03  0.33356733232E+03  0.00000000000E+00 0. -1.
         -5    1    3    3    0  503  0.85841803940E+02  0.22986004301E+03 -0.49194320429E+02  0.25029307989E+03  0.47000000000E+01 0.  1.
         15    1    4    4    0    0  0.65043106968E+01  0.13562159702E+03 -0.43686673350E+02  0.14264363565E+03  0.17770000000E+01 0. -1.
        -16    1    4    4    0    0 -0.48560208334E+02  0.13550181611E+03  0.15710117204E+02  0.14479517874E+03  0.00000000000E+00 0.  1.
<mgrwt>
<rscale>  2 0.53257371E+03</rscale>
<asrwt>0</asrwt>
<pdfrwt beam="1">  1       21 0.61021158E-01 0.53270981E+03</pdfrwt>
<pdfrwt beam="2">  1       21 0.11290974E+00 0.53270981E+03</pdfrwt>
<totfact> 0.12691232E+03</totfact>
</mgrwt>
</event>
<event>
12    2  0.4090627E-002  0.2005198E+03  0.7546771E-02  0.1149818E+00
         21   -1    0    0  501  502  0.00000000000E+00  0.00000000000E+00  0.72769688346E+02  0.72769688346E+02  0.00000000000E+00 0.  1.
         21   -1    0    0  502  503 -0.00000000000E+00 -0.00000000000E+00 -0.56576591645E+03  0.56576591645E+03  0.00000000000E+00 0. -1.
         -6    2    1    2    0  503 -0.30633379156E+01  0.97612109193E+02 -0.30497187152E+03  0.36365139353E+03  0.17232813381E+03 0.  0.
        -24    2    3    3    0    0  0.45012019175E+02  0.10272391776E+03 -0.16103615154E+03  0.21174039317E+03  0.79517714057E+02 0.  0.
          6    2    1    2  501    0  0.30633379156E+01 -0.97612109193E+02 -0.18802435659E+03  0.27488421126E+03  0.17513041721E+03 0.  0.
         24    2    5    5    0    0 -0.66664708886E+02 -0.49282850091E+02 -0.98597421169E+02  0.15152706889E+03  0.79787332459E+02 0.  0.
          5    1    5    5  501    0  0.69728046802E+02 -0.48329259102E+02 -0.89426935422E+02  0.12335714238E+03  0.47000000000E+01 0. -1.
        -15    1    6    6    0    0 -0.51037419710E+02 -0.20993986500E+02 -0.85723331443E+01  0.55876724174E+02  0.17770000000E+01 0.  1.
         16    1    6    6    0    0 -0.15627289176E+02 -0.28288863591E+02 -0.90025088024E+02  0.95650344715E+02  0.00000000000E+00 0. -1.
         -5    1    3    3    0  503 -0.48075357090E+02 -0.51118085621E+01 -0.14393571997E+03  0.15191100036E+03  0.47000000000E+01 0.  1.
         15    1    4    4    0    0  0.16470764815E+02 -0.93964014887E+01 -0.10083343308E+02  0.21550173916E+02  0.17770000000E+01 0. -1.
        -16    1    4    4    0    0  0.28541254360E+02  0.11212031924E+03 -0.15095280823E+03  0.19019021926E+03  0.00000000000E+00 0.  1.
<mgrwt>
<rscale>  2 0.19990625E+03</rscale>
<asrwt>0</asrwt>
<pdfrwt beam="1">  1       21 0.11195337E-01 0.20051975E+03</pdfrwt>
<pdfrwt beam="2">  1       21 0.87040909E-01 0.20051975E+03</pdfrwt>
<totfact> 0.75103439E+04</totfact>
</mgrwt>
</event>
<event>
12    2  0.4090627E-002  0.2100891E+03  0.7546771E-02  0.1141531E+00
         21   -1    0    0  503  502  0.00000000000E+00  0.00000000000E+00  0.31980189093E+03  0.31980189093E+03  0.00000000000E+00 0.  1.
         21   -1    0    0  501  503 -0.00000000000E+00 -0.00000000000E+00 -0.17586975303E+03  0.17586975303E+03  0.00000000000E+00 0.  1.
          6    2    1    2  501    0  0.42640045904E+02  0.11043743136E+03 -0.43171499969E+02  0.21447890077E+03  0.17355927145E+03 0.  0.
         24    2    3    3    0    0  0.69965981684E+02  0.19561857646E+02 -0.43958660467E+02  0.11946423724E+03  0.84032346634E+02 0.  0.
         -6    2    1    2    0  502 -0.42640045904E+02 -0.11043743136E+03  0.18710363787E+03  0.28119274319E+03  0.17334066966E+03 0.  0.
        -24    2    5    5    0    0 -0.26463125629E+02 -0.76998289956E+01  0.14890630796E+03  0.17029714498E+03  0.77900222431E+02 0.  0.
          5    1    3    3  501    0 -0.27325935780E+02  0.90875573715E+02  0.78716049842E+00  0.95014663531E+02  0.47000000000E+01 0. -1.
        -15    1    4    4    0    0 -0.11773862181E+02  0.13324530900E+02 -0.31955667842E+02  0.36612694391E+02  0.17770000000E+01 0.  1.
         16    1    4    4    0    0  0.81739843865E+02  0.62373267461E+01 -0.12002992626E+02  0.82851542846E+02  0.00000000000E+00 0. -1.
         -5    1    5    5    0  502 -0.16176920275E+02 -0.10273760237E+03  0.38197329910E+02  0.11089559821E+03  0.47000000000E+01 0.  1.
         15    1    6    6    0    0 -0.38944155772E+02 -0.19724157048E+02  0.37577367609E+02  0.57627301911E+02  0.17770000000E+01 0. -1.
        -16    1    6    6    0    0  0.12481030143E+02  0.12024328052E+02  0.11132894035E+03  0.11266984307E+03  0.00000000000E+00 0.  1.
<mgrwt>
<rscale>  2 0.21004392E+03</rscale>
<asrwt>0</asrwt>
<pdfrwt beam="1">  1       21 0.49200291E-01 0.21008908E+03</pdfrwt>
<pdfrwt beam="2">  1       21 0.27056885E-01 0.21008908E+03</pdfrwt>
<totfact> 0.50862920E+04</totfact>
</mgrwt>
</event>
<event>
12    2  0.4090627E-002  0.2051809E+03  0.7546771E-02  0.1148647E+00
         21   -1    0    0  501  502  0.00000000000E+00  0.00000000000E+00  0.13211103694E+03  0.13211103694E+03  0.00000000000E+00 0.  1.
         21   -1    0    0  502  503 -0.00000000000E+00 -0.00000000000E+00 -0.17937364503E+04  0.17937364503E+04  0.00000000000E+00 0.  1.
         -6    2    1    2    0  503  0.11025847860E+03  0.12119670271E+02 -0.17054727463E+04  0.17160338161E+04  0.15437276761E+03 0.  0.
        -24    2    3    3    0    0  0.47509992809E+02  0.29882589551E+02 -0.14098312854E+04  0.14132486495E+04  0.80605976049E+02 0.  0.
          6    2    1    2  501    0 -0.11025847860E+03 -0.12119670271E+02  0.43847332910E+02  0.20981367110E+03  0.17261335251E+03 0.  0.
         24    2    5    5    0    0 -0.11958312910E+03  0.36191719837E+02  0.87337388610E+01  0.14918369495E+03  0.81052645196E+02 0.  0.
          5    1    5    5  501    0  0.93246505000E+01 -0.48311390109E+02  0.35113594049E+02  0.60629976152E+02  0.47000000000E+01 0. -1.
        -15    1    6    6    0    0 -0.10131240857E+03  0.81703342540E+01 -0.21714000834E+02  0.10395005557E+03  0.17770000000E+01 0.  1.
         16    1    6    6    0    0 -0.18270720533E+02  0.28021385583E+02  0.30447739695E+02  0.45233639377E+02  0.00000000000E+00 0. -1.
         -5    1    3    3    0  503  0.62748485794E+02 -0.17762919280E+02 -0.29564146084E+03  0.30278516664E+03  0.47000000000E+01 0.  1.
         15    1    4    4    0    0  0.41015141672E+02  0.45224721177E+02 -0.57201834564E+03  0.57527007808E+03  0.17770000000E+01 0. -1.
        -16    1    4    4    0    0  0.64948511378E+01 -0.15342131626E+02 -0.83781293979E+03  0.83797857143E+03  0.00000000000E+00 0.  1.
<mgrwt>
<rscale>  2 0.20129978E+03</rscale>
<asrwt>0</asrwt>
<pdfrwt beam="1">  1       21 0.20324774E-01 0.20518087E+03</pdfrwt>
<pdfrwt beam="2">  1       21 0.27595946E+00 0.20518087E+03</pdfrwt>
<totfact> 0.10352854E+03</totfact>
</mgrwt>
</event>
<event>
12    2  0.4090627E-002  0.1925089E+03  0.7546771E-02  0.1156236E+00
         21   -1    0    0  501  502  0.00000000000E+00  0.00000000000E+00  0.43508673358E+03  0.43508673358E+03  0.00000000000E+00 0. -1.
         21   -1    0    0  502  503 -0.00000000000E+00 -0.00000000000E+00 -0.98967065028E+02  0.98967065028E+02  0.00000000000E+00 0. -1.
         -6    2    1    2    0  503 -0.80220396231E+02  0.25162663847E+02  0.68287831527E+02  0.20426181470E+03  0.17317964484E+03 0.  0.
        -24    2    3    3    0    0 -0.39122461433E+02  0.81520255376E+02  0.51909907201E+02  0.13245969236E+03  0.81699526372E+02 0.  0.
          6    2    1    2  501    0  0.80220396231E+02 -0.25162663847E+02  0.26783183702E+03  0.32979198390E+03  0.17309069328E+03 0.  0.
         24    2    5    5    0    0  0.12788499934E+01 -0.65976520354E+02  0.17012739167E+03  0.19763379367E+03  0.75902900516E+02 0.  0.
          5    1    5    5  501    0  0.78941546238E+02  0.40813856507E+02  0.97704445347E+02  0.13215819023E+03  0.47000000000E+01 0. -1.
        -15    1    6    6    0    0 -0.25487288416E+02  0.77792451894E+00  0.68650801523E+02  0.73255015638E+02  0.17770000000E+01 0.  1.
         16    1    6    6    0    0  0.26766138410E+02 -0.66754444873E+02  0.10147659015E+03  0.12437877803E+03  0.00000000000E+00 0. -1.
         -5    1    3    3    0  503 -0.41097934798E+02 -0.56357591529E+02  0.16377924327E+02  0.71802122343E+02  0.47000000000E+01 0.  1.
         15    1    4    4    0    0 -0.59781006760E+02  0.32608793666E+02  0.22360171884E+02  0.71695447619E+02  0.17770000000E+01 0. -1.
        -16    1    4    4    0    0  0.20658545327E+02  0.48911461710E+02  0.29549735317E+02  0.60764244741E+02  0.00000000000E+00 0.  1.
<mgrwt>
<rscale>  2 0.19248885E+03</rscale>
<asrwt>0</asrwt>
<pdfrwt beam="1">  1       21 0.66936420E-01 0.19250886E+03</pdfrwt>
<pdfrwt beam="2">  1       21 0.15225702E-01 0.19250886E+03</pdfrwt>
<totfact> 0.78049714E+04</totfact>
</mgrwt>
</event>
<event>
12    2  0.4090627E-002  0.1903121E+03  0.7546771E-02  0.1158876E+00
         21   -1    0    0  501  502  0.00000000000E+00  0.00000000000E+00  0.85990745932E+02  0.85990745932E+02  0.00000000000E+00 0.  1.
         21   -1    0    0  502  503 -0.00000000000E+00 -0.00000000000E+00 -0.18564817956E+04  0.18564817956E+04  0.00000000000E+00 0.  1.
         -6    2    1    2    0  503 -0.13599273195E+01 -0.72961755147E+02 -0.17428361879E+04  0.17531961337E+04  0.17576529342E+03 0.  0.
        -24    2    3    3    0    0 -0.48549658068E+02 -0.33594699958E+02 -0.14802036395E+04  0.14834284907E+04  0.77920469827E+02 0.  0.
          6    2    1    2  501    0  0.13599273195E+01  0.72961755147E+02 -0.27654861837E+02  0.18927640787E+03  0.17243984480E+03 0.  0.
         24    2    5    5    0    0  0.47607825326E+02  0.10267970022E+02  0.22866518255E+02  0.96303946299E+02  0.79872624690E+02 0.  0.
          5    1    5    5  501    0 -0.46247898007E+02  0.62693785124E+02 -0.50521380093E+02  0.92972461567E+02  0.47000000000E+01 0. -1.
        -15    1    6    6    0    0  0.18980624990E+01 -0.43494838156E+01 -0.26779566163E+02  0.27254789370E+02  0.17770000000E+01 0.  1.
         16    1    6    6    0    0  0.45709762827E+02  0.14617453838E+02  0.49646084419E+02  0.69049156929E+02  0.00000000000E+00 0. -1.
         -5    1    3    3    0  503  0.47189730749E+02 -0.39367055189E+02 -0.26263254841E+03  0.26976764300E+03  0.47000000000E+01 0.  1.
         15    1    4    4    0    0 -0.44627783419E+02 -0.57711752029E+02 -0.11608359661E+04  0.11631275009E+04  0.17770000000E+01 0. -1.
        -16    1    4    4    0    0 -0.39218746490E+01  0.24117052071E+02 -0.31936767334E+03  0.32030098982E+03  0.00000000000E+00 0.  1.
<mgrwt>
<rscale>  2 0.18954072E+03</rscale>
<asrwt>0</asrwt>
<pdfrwt beam="1">  1       21 0.13229346E-01 0.19031213E+03</pdfrwt>
<pdfrwt beam="2">  1       21 0.28561257E+00 0.19031213E+03</pdfrwt>
<totfact> 0.20405026E+03</totfact>
</mgrwt>
</event>
<event>
12    2  0.4090627E-002  0.2605752E+03  0.7546771E-02  0.1106897E+00
         21   -1    0    0  501  502  0.00000000000E+00  0.00000000000E+00  0.81583946775E+02  0.81583946775E+02  0.00000000000E+00 0. -1.
         21   -1    0    0  502  503 -0.00000000000E+00 -0.00000000000E+00 -0.89346861603E+03  0.89346861603E+03  0.00000000000E+00 0. -1.
         -6    2    1    2    0  503 -0.17573082525E+03  0.84803024886E+02 -0.53618060672E+03  0.59614516751E+03  0.17270362401E+03 0.  0.
        -24    2    3    3    0    0 -0.18398572540E+03  0.28981897987E+02 -0.43865230037E+03  0.48337104758E+03  0.80876643486E+02 0.  0.
          6    2    1    2  501    0  0.17573082525E+03 -0.84803024886E+02 -0.27570406254E+03  0.37890739530E+03  0.17171257420E+03 0.  0.
         24    2    5    5    0    0  0.99658220395E+02 -0.97153860152E+02 -0.10557926799E+03  0.19208095161E+03  0.79859105351E+02 0.  0.
          5    1    5    5  501    0  0.76072604858E+02  0.12350835266E+02 -0.17012479455E+03  0.18682644369E+03  0.47000000000E+01 0. -1.
        -15    1    6    6    0    0 -0.28939274145E+01 -0.30265781495E+02 -0.72235075041E-01  0.30455792426E+02  0.17770000000E+01 0.  1.
         16    1    6    6    0    0  0.10255214781E+03 -0.66888078657E+02 -0.10550703291E+03  0.16162515918E+03  0.00000000000E+00 0. -1.
         -5    1    3    3    0  503  0.82549001489E+01  0.55821126899E+02 -0.97528306351E+02  0.11277411992E+03  0.47000000000E+01 0.  1.
         15    1    4    4    0    0 -0.10850413191E+03  0.43201215387E+02 -0.33194002533E+03  0.35189036616E+03  0.17770000000E+01 0. -1.
        -16    1    4    4    0    0 -0.75481593493E+02 -0.14219317400E+02 -0.10671227504E+03  0.13148068143E+03  0.00000000000E+00 0.  1.
<mgrwt>
<rscale>  2 0.26041107E+03</rscale>
<asrwt>0</asrwt>
<pdfrwt beam="1">  1       21 0.12551377E-01 0.26057517E+03</pdfrwt>
<pdfrwt beam="2">  1       21 0.13745670E+00 0.26057517E+03</pdfrwt>
<totfact> 0.19519739E+04</totfact>
</mgrwt>
</event>
<event>
12    2  0.4090627E-002  0.2433220E+03  0.7546771E-02  0.1117806E+00
         21   -1    0    0  503  502  0.00000000000E+00  0.00000000000E+00  0.15234217830E+03  0.15234217830E+03  0.00000000000E+00 0. -1.
         21   -1    0    0  501  503 -0.00000000000E+00 -0.00000000000E+00 -0.79189488598E+03  0.79189488598E+03  0.00000000000E+00 0.  1.
          6    2    1    2  501    0 -0.11061677664E+03  0.12864133938E+03 -0.65711435121E+03  0.70028215901E+03  0.17265910397E+03 0.  0.
         24    2    3    3    0    0 -0.12039654398E+03  0.74735371381E+02 -0.59512577368E+03  0.61741979735E+03  0.83377551668E+02 0.  0.
         -6    2    1    2    0  502  0.11061677664E+03 -0.12864133938E+03  0.17561643528E+02  0.24395490528E+03  0.17441593682E+03 0.  0.
        -24    2    5    5    0    0  0.11720087925E+03 -0.39131289676E+02 -0.14895767503E+02  0.14839878075E+03  0.80827039470E+02 0.  0.
          5    1    3    3  501    0  0.97797673425E+01  0.53905967999E+02 -0.61988577530E+02  0.82862361657E+02  0.47000000000E+01 0. -1.
        -15    1    4    4    0    0 -0.13126656926E+03  0.65047481291E+02 -0.49454858825E+03  0.51579409738E+03  0.17770000000E+01 0.  1.
         16    1    4    4    0    0  0.10870025283E+02  0.96878900901E+01 -0.10057718543E+03  0.10162569997E+03  0.00000000000E+00 0. -1.
         -5    1    5    5    0  502 -0.65841026106E+01 -0.89510049704E+02  0.32457411031E+02  0.95556124535E+02  0.47000000000E+01 0.  1.
         15    1    6    6    0    0  0.91340129644E+00 -0.13429636880E+02  0.20112166965E+02  0.24266158280E+02  0.17770000000E+01 0. -1.
        -16    1    6    6    0    0  0.11628747795E+03 -0.25701652796E+02 -0.35007934468E+02  0.12413262247E+03  0.00000000000E+00 0.  1.
<mgrwt>
<rscale>  2 0.24300731E+03</rscale>
<asrwt>0</asrwt>
<pdfrwt beam="1">  1       21 0.23437258E-01 0.24332198E+03</pdfrwt>
<pdfrwt beam="2">  1       21 0.12182998E+00 0.24332198E+03</pdfrwt>
<totfact> 0.84143374E+03</totfact>
</mgrwt>
</event>
<event>
12    2  0.4090627E-002  0.2319122E+03  0.7546771E-02  0.1125911E+00
         21   -1    0    0  503  502  0.00000000000E+00  0.00000000000E+00  0.67893750814E+03  0.67893750814E+03  0.00000000000E+00 0. -1.
         21   -1    0    0  501  503 -0.00000000000E+00 -0.00000000000E+00 -0.28849372987E+03  0.28849372987E+03  0.00000000000E+00 0.  1.
          6    2    1    2  501    0 -0.14884093786E+03  0.11840344712E+01 -0.21832245199E+03  0.31598701998E+03  0.17328611321E+03 0.  0.
         24    2    3    3    0    0 -0.10475599219E+03 -0.11518974600E+02 -0.23244092461E+03  0.26775559720E+03  0.80980069923E+02 0.  0.
         -6    2    1    2    0  502  0.14884093786E+03 -0.11840344712E+01  0.60876623027E+03  0.65144421803E+03  0.17784324382E+03 0.  0.
        -24    2    5    5    0    0  0.29848936680E+02 -0.37657322249E+02  0.37544943288E+03  0.38696696947E+03  0.80449523731E+02 0.  0.
          5    1    3    3  501    0 -0.44084945670E+02  0.12703009071E+02  0.14118472617E+02  0.48231422778E+02  0.47000000000E+01 0. -1.
        -15    1    4    4    0    0 -0.63358267480E+02  0.24979918799E+01 -0.51780142562E+02  0.81883154032E+02  0.17770000000E+01 0.  1.
         16    1    4    4    0    0 -0.41397724710E+02 -0.14016966480E+02 -0.18066078205E+03  0.18587244317E+03  0.00000000000E+00 0. -1.
         -5    1    5    5    0  502  0.11899200118E+03  0.36473287778E+02  0.23331679738E+03  0.26447724856E+03  0.47000000000E+01 0.  1.
         15    1    6    6    0    0 -0.18290092689E+02 -0.29210206093E+02  0.24935870728E+03  0.25173534964E+03  0.17770000000E+01 0. -1.
        -16    1    6    6    0    0  0.48139029369E+02 -0.84471161554E+01  0.12609072560E+03  0.13523161983E+03  0.00000000000E+00 0.  1.
<mgrwt>
<rscale>  2 0.23103824E+03</rscale>
<asrwt>0</asrwt>
<pdfrwt beam="1">  1       21 0.10445192E+00 0.23191215E+03</pdfrwt>
<pdfrwt beam="2">  1       21 0.44383651E-01 0.23191215E+03</pdfrwt>
<totfact> 0.34964162E+03</totfact>
</mgrwt>
</event>
<event>
12    2  0.4090627E-002  0.2154719E+03  0.7546771E-02  0.1137420E+00
         21   -1    0    0  501  502  0.00000000000E+00  0.00000000000E+00  0.12810876285E+03  0.12810876285E+03  0.00000000000E+00 0.  1.
         21   -1    0    0  502  503 -0.00000000000E+00 -0.00000000000E+00 -0.36145601590E+03  0.36145601590E+03  0.00000000000E+00 0. -1.
         -6    2    1    2    0  503 -0.11996804827E+03  0.45245791723E+02 -0.11386429877E+03  0.24370725489E+03  0.17317226475E+03 0.  0.
        -24    2    3    3    0    0 -0.69358546421E+02  0.11275999785E+02  0.79255269102E+01  0.10743502705E+03  0.80880868738E+02 0.  0.
          6    2    1    2  501    0  0.11996804827E+03 -0.45245791723E+02 -0.11948295427E+03  0.24585752386E+03  0.17242456728E+03 0.  0.
         24    2    5    5    0    0  0.13890909044E+03  0.27278914381E-01 -0.10215620177E+03  0.19360122897E+03  0.88033005998E+02 0.  0.
          5    1    5    5  501    0 -0.18941042171E+02 -0.45273070637E+02 -0.17326752500E+02  0.52256294890E+02  0.47000000000E+01 0. -1.
        -15    1    6    6    0    0  0.47928992939E+01  0.23256950853E+01 -0.48993531492E+02  0.49314344752E+02  0.17770000000E+01 0.  1.
         16    1    6    6    0    0  0.13411619115E+03 -0.22984161709E+01 -0.53162670282E+02  0.14428688421E+03  0.00000000000E+00 0. -1.
         -5    1    3    3    0  503 -0.50609501848E+02  0.33969791938E+02 -0.12178982568E+03  0.13627222784E+03  0.47000000000E+01 0.  1.
         15    1    4    4    0    0 -0.65504182987E+02 -0.23779146085E+02 -0.49663961677E+01  0.69886111619E+02  0.17770000000E+01 0. -1.
        -16    1    4    4    0    0 -0.38543634342E+01  0.35055145870E+02  0.12891923078E+02  0.37548915432E+02  0.00000000000E+00 0.  1.
<mgrwt>
<rscale>  2 0.21532165E+03</rscale>
<asrwt>0</asrwt>
<pdfrwt beam="1">  1       21 0.19709041E-01 0.21547192E+03</pdfrwt>
<pdfrwt beam="2">  1       21 0.55608616E-01 0.21547192E+03</pdfrwt>
<totfact> 0.71573158E+04</totfact>
</mgrwt>
</event>
<event>
12    2  0.4090627E-002  0.1827375E+03  0.7546771E-02  0.1165207E+00
         21   -1    0    0  501  502  0.00000000000E+00  0.00000000000E+00  0.16017978772E+03  0.16017978772E+03  0.00000000000E+00 0.  1.
         21   -1    0    0  502  503 -0.00000000000E+00 -0.00000000000E+00 -0.21797238595E+03  0.21797238595E+03  0.00000000000E+00 0.  1.
         -6    2    1    2    0  503 -0.57241562904E+02  0.41761905025E+01 -0.68630422879E+02  0.19509361215E+03  0.17337054383E+03 0.  0.
        -24    2    3    3    0    0 -0.14676532577E+02  0.31439786236E+02 -0.10217281837E+03  0.13424734888E+03  0.79869926125E+02 0.  0.
          6    2    1    2  501    0  0.57241562904E+02 -0.41761905025E+01  0.10837824651E+02  0.18305856152E+03  0.17349046490E+03 0.  0.
         24    2    5    5    0    0 -0.12180037006E+02  0.43461704906E+02  0.20151164078E+02  0.98220150973E+02  0.84875529741E+02 0.  0.
          5    1    5    5  501    0  0.69421599911E+02 -0.47637895408E+02 -0.93133394276E+01  0.84838410548E+02  0.47000000000E+01 0. -1.
        -15    1    6    6    0    0  0.17258021689E+02  0.54541328062E+02  0.30821460537E+02  0.65005506982E+02  0.17770000000E+01 0.  1.
         16    1    6    6    0    0 -0.29438058695E+02 -0.11079623156E+02 -0.10670296459E+02  0.33214643992E+02  0.00000000000E+00 0. -1.
         -5    1    3    3    0  503 -0.42565030328E+02 -0.27263595734E+02  0.33542395495E+02  0.60846263276E+02  0.47000000000E+01 0.  1.
         15    1    4    4    0    0 -0.30548697933E+02  0.10944475662E+02 -0.10330871834E+03  0.10829983151E+03  0.17770000000E+01 0. -1.
        -16    1    4    4    0    0  0.15872165356E+02  0.20495310574E+02  0.11358999614E+01  0.25947517364E+02  0.00000000000E+00 0.  1.
<mgrwt>
<rscale>  2 0.18270899E+03</rscale>
<asrwt>0</asrwt>
<pdfrwt beam="1">  1       21 0.24643044E-01 0.18273746E+03</pdfrwt>
<pdfrwt beam="2">  1       21 0.33534213E-01 0.18273746E+03</pdfrwt>
<totfact> 0.13378313E+05</totfact>
</mgrwt>
</event>
<event>
12    2  0.4090627E-002  0.1915422E+03  0.7546771E-02  0.1157158E+00
         21   -1    0    0  503  502  0.00000000000E+00  0.00000000000E+00  0.58399453277E+02  0.58399453277E+02  0.00000000000E+00 0. -1.
         21   -1    0    0  501  503 -0.00000000000E+00 -0.00000000000E+00 -0.62710151363E+03  0.62710151363E+03  0.00000000000E+00 0. -1.
          6    2    1    2  501    0  0.80674715740E+02 -0.17476483189E+02 -0.28782117801E+03  0.34573029079E+03  0.17284260538E+03 0.  0.
         24    2    3    3    0    0  0.40885445866E+01  0.28982716544E+02 -0.20996455373E+03  0.22695469231E+03  0.81034588174E+02 0.  0.
         -6    2    1    2    0  502 -0.80674715740E+02  0.17476483189E+02 -0.28088088234E+03  0.33977067611E+03  0.17244188893E+03 0.  0.
        -24    2    5    5    0    0 -0.69382376200E+02  0.34662504324E+02 -0.29480398100E+03  0.31449580854E+03  0.77348710637E+02 0.  0.
          5    1    3    3  501    0  0.76586171154E+02 -0.46459199732E+02 -0.77856624278E+02  0.11877559849E+03  0.47000000000E+01 0. -1.
        -15    1    4    4    0    0 -0.19431604020E+02 -0.21613112887E+02 -0.54669821373E+02  0.61940786090E+02  0.17770000000E+01 0.  1.
         16    1    4    4    0    0  0.23520148606E+02  0.50595829430E+02 -0.15529473236E+03  0.16501390622E+03  0.00000000000E+00 0. -1.
         -5    1    5    5    0  502 -0.11292339540E+02 -0.17186021136E+02  0.13923098663E+02  0.25274867579E+02  0.47000000000E+01 0.  1.
         15    1    6    6    0    0 -0.37450147920E+02  0.43500657477E+02 -0.88175894424E+02  0.10522816575E+03  0.17770000000E+01 0. -1.
        -16    1    6    6    0    0 -0.31932228280E+02 -0.88381531532E+01 -0.20662808658E+03  0.20926764279E+03  0.00000000000E+00 0.  1.
<mgrwt>
<rscale>  2 0.19145173E+03</rscale>
<asrwt>0</asrwt>
<pdfrwt beam="1">  1       21 0.89845310E-02 0.19154217E+03</pdfrwt>
<pdfrwt beam="2">  1       21 0.96477159E-01 0.19154217E+03</pdfrwt>
<totfact> 0.87580739E+04</totfact>
</mgrwt>
</event>
<event>
12    2  0.4090627E-002  0.2433150E+03  0.7546771E-02  0.1117650E+00
         21   -1    0    0  503  502  0.00000000000E+00  0.00000000000E+00  0.47471475592E+02  0.47471475592E+02  0.00000000000E+00 0.  1.
         21   -1    0    0  501  503 -0.00000000000E+00 -0.00000000000E+00 -0.17649400443E+04  0.17649400443E+04  0.00000000000E+00 0.  1.
          6    2    1    2  501    0 -0.10529886493E+03  0.13610872232E+03 -0.13506149400E+04  0.13723566890E+04  0.17201375073E+03 0.  0.
         24    2    3    3    0    0 -0.92878688297E+02  0.14365283661E+03 -0.82701213276E+03  0.84853117969E+03  0.82422733362E+02 0.  0.
         -6    2    1    2    0  502  0.10529886493E+03 -0.13610872232E+03 -0.36685362868E+03  0.44005483087E+03  0.17161944542E+03 0.  0.
        -24    2    5    5    0    0  0.83774737870E+02 -0.12710331715E+03 -0.37676417669E+03  0.41427316432E+03  0.80607381197E+02 0.  0.
          5    1    3    3  501    0 -0.12420176633E+02 -0.75441142914E+01 -0.52360280722E+03  0.52382550929E+03  0.47000000000E+01 0. -1.
        -15    1    4    4    0    0 -0.37515685284E+02  0.11956256519E+03 -0.46858400062E+03  0.48505335480E+03  0.17770000000E+01 0.  1.
         16    1    4    4    0    0 -0.55363003013E+02  0.24090271419E+02 -0.35842813214E+03  0.36347782490E+03  0.00000000000E+00 0. -1.
         -5    1    5    5    0  502  0.21524127060E+02 -0.90054051740E+01  0.99105480095E+01  0.25781666546E+02  0.47000000000E+01 0.  1.
         15    1    6    6    0    0 -0.98042140180E+01 -0.30163059549E+02 -0.12206443103E+03  0.12613015431E+03  0.17770000000E+01 0. -1.
        -16    1    6    6    0    0  0.93578951888E+02 -0.96940257597E+02 -0.25469974566E+03  0.28814301001E+03  0.00000000000E+00 0.  1.
<mgrwt>
<rscale>  2 0.24324527E+03</rscale>
<asrwt>0</asrwt>
<pdfrwt beam="1">  1       21 0.73033028E-02 0.24331495E+03</pdfrwt>
<pdfrwt beam="2">  1       21 0.27152928E+00 0.24331495E+03</pdfrwt>
<totfact> 0.66721117E+03</totfact>
</mgrwt>
</event>
<event>
12    2  0.4090627E-002  0.1891103E+03  0.7546771E-02  0.1159888E+00
         21   -1    0    0  501  502  0.00000000000E+00  0.00000000000E+00  0.18208209418E+02  0.18208209418E+02  0.00000000000E+00 0. -1.
         21   -1    0    0  502  503 -0.00000000000E+00 -0.00000000000E+00 -0.19431453496E+04  0.19431453496E+04  0.00000000000E+00 0. -1.
         -6    2    1    2    0  503  0.24252595892E+02 -0.71180554139E+02 -0.10151529328E+04  0.10321226923E+04  0.17054886478E+03 0.  0.
        -24    2    3    3    0    0 -0.21518037746E+02 -0.95713712428E+02 -0.83547773396E+03  0.84503422702E+03  0.80222566649E+02 0.  0.
          6    2    1    2  501    0 -0.24252595892E+02  0.71180554139E+02 -0.90978420743E+03  0.92923086677E+03  0.17351610870E+03 0.  0.
         24    2    5    5    0    0 -0.75264146690E+02  0.31872369333E+02 -0.38451039767E+03  0.40000314931E+03  0.73984686524E+02 0.  0.
          5    1    5    5  501    0  0.51011550798E+02  0.39308184806E+02 -0.52527380976E+03  0.52922771745E+03  0.47000000000E+01 0. -1.
        -15    1    6    6    0    0 -0.62276316768E+02  0.10747015273E+02 -0.35862868914E+03  0.36415866373E+03  0.17770000000E+01 0.  1.
         16    1    6    6    0    0 -0.12987829922E+02  0.21125354060E+02 -0.25881708534E+02  0.35844485585E+02  0.00000000000E+00 0. -1.
         -5    1    3    3    0  503  0.45770633639E+02  0.24533158289E+02 -0.17967519881E+03  0.18708846524E+03  0.47000000000E+01 0.  1.
         15    1    4    4    0    0  0.20227487532E+02 -0.76674389750E+02 -0.58971022864E+03  0.59502052468E+03  0.17770000000E+01 0. -1.
        -16    1    4    4    0    0 -0.41745525278E+02 -0.19039322678E+02 -0.24576750532E+03  0.25001370234E+03  0.00000000000E+00 0.  1.
<mgrwt>
<rscale>  2 0.18842688E+03</rscale>
<asrwt>0</asrwt>
<pdfrwt beam="1">  1       21 0.28012640E-02 0.18911028E+03</pdfrwt>
<pdfrwt beam="2">  1       21 0.29894533E+00 0.18911028E+03</pdfrwt>
<totfact> 0.24615221E+04</totfact>
</mgrwt>
</event>
<event>
12    2  0.4090627E-002  0.1834377E+03  0.7546771E-02  0.1164549E+00
         21   -1    0    0  503  502  0.00000000000E+00  0.00000000000E+00  0.24664477064E+03  0.24664477064E+03  0.00000000000E+00 0. -1.
         21   -1    0    0  501  503 -0.00000000000E+00 -0.00000000000E+00 -0.24848439418E+03  0.24848439418E+03  0.00000000000E+00 0. -1.
          6    2    1    2  501    0  0.49669695096E+02 -0.31743892724E+02 -0.16724335880E+03  0.24823319254E+03  0.17370844390E+03 0.  0.
         24    2    3    3    0    0 -0.34364322833E+02  0.42082246754E+01 -0.10880454631E+03  0.13964472299E+03  0.80396539242E+02 0.  0.
         -6    2    1    2    0  502 -0.49669695096E+02  0.31743892724E+02  0.16540373526E+03  0.24689597228E+03  0.17356402897E+03 0.  0.
        -24    2    5    5    0    0 -0.59610759817E+02  0.58474484283E+02  0.18020277762E+03  0.21442366180E+03  0.80819290288E+02 0.  0.
          5    1    3    3  501    0  0.84034017929E+02 -0.35952117399E+02 -0.58438812494E+02  0.10858846956E+03  0.47000000000E+01 0. -1.
        -15    1    4    4    0    0 -0.75725995004E+01  0.40672478865E+02 -0.42196843256E+02  0.59121283055E+02  0.17770000000E+01 0.  1.
         16    1    4    4    0    0 -0.26791723333E+02 -0.36464254190E+02 -0.66607703049E+02  0.80523439931E+02  0.00000000000E+00 0. -1.
         -5    1    5    5    0  502  0.99410647216E+01 -0.26730591559E+02 -0.14799042356E+02  0.32472310475E+02  0.47000000000E+01 0.  1.
         15    1    6    6    0    0 -0.65785367560E+02  0.45662824011E+02  0.79968187303E+02  0.11318514386E+03  0.17770000000E+01 0. -1.
        -16    1    6    6    0    0  0.61746077430E+01  0.12811660272E+02  0.10023459031E+03  0.10123851794E+03  0.00000000000E+00 0.  1.
<mgrwt>
<rscale>  2 0.18340347E+03</rscale>
<asrwt>0</asrwt>
<pdfrwt beam="1">  1       21 0.37945349E-01 0.18343766E+03</pdfrwt>
<pdfrwt beam="2">  1       21 0.38228368E-01 0.18343766E+03</pdfrwt>
<totfact> 0.44395341E+04</totfact>
</mgrwt>
</event>
<event>
12    2  0.4090627E-002  0.2898974E+03  0.7546771E-02  0.1090450E+00
         21   -1    0    0  501  502  0.00000000000E+00  0.00000000000E+00  0.64932856283E+03  0.64932856283E+03  0.00000000000E+00 0. -1.
         21   -1    0    0  502  503 -0.00000000000E+00 -0.00000000000E+00 -0.15843872426E+03  0.15843872426E+03  0.00000000000E+00 0.  1.
         -6    2    1    2    0  503 -0.23214021158E+03 -0.15813661496E+02  0.41887491959E+03  0.50940821145E+03  0.17292014894E+03 0.  0.
        -24    2    3    3    0    0 -0.16912187068E+03  0.52494505360E+02  0.31287056684E+03  0.36835386111E+03  0.80241480305E+02 0.  0.
          6    2    1    2  501    0  0.23214021158E+03  0.15813661496E+02  0.72014918976E+02  0.29835907564E+03  0.17231610412E+03 0.  0.
         24    2    5    5    0    0  0.40063300490E+02  0.34037558706E+02  0.11621088464E+02  0.96133570407E+02  0.79642891794E+02 0.  0.
          5    1    5    5  501    0  0.19207691109E+03 -0.18223897209E+02  0.60393830512E+02  0.20222550523E+03  0.47000000000E+01 0. -1.
        -15    1    6    6    0    0 -0.12068492252E+01 -0.12725092020E+02 -0.21830316223E+02  0.25359512759E+02  0.17770000000E+01 0.  1.
         16    1    6    6    0    0  0.41270149715E+02  0.46762650726E+02  0.33451404687E+02  0.70774057648E+02  0.00000000000E+00 0. -1.
         -5    1    3    3    0  503 -0.63018340893E+02 -0.68308166857E+02  0.10600435275E+03  0.14105435034E+03  0.47000000000E+01 0.  1.
         15    1    4    4    0    0 -0.15696192382E+03  0.36072493845E+02  0.30765456596E+03  0.34726468296E+03  0.17770000000E+01 0. -1.
        -16    1    4    4    0    0 -0.12159946859E+02  0.16422011516E+02  0.52160008754E+01  0.21089178148E+02  0.00000000000E+00 0.  1.
<mgrwt>
<rscale>  2 0.28980743E+03</rscale>
<asrwt>0</asrwt>
<pdfrwt beam="1">  1       21 0.99896700E-01 0.28989744E+03</pdfrwt>
<pdfrwt beam="2">  1       21 0.24375189E-01 0.28989744E+03</pdfrwt>
<totfact> 0.12380493E+04</totfact>
</mgrwt>
</event>
<event>
11    2  0.4090627E-002  0.2160219E+03  0.7546771E-02  0.1139336E+00
         21   -1    0    0  503  502  0.00000000000E+00  0.00000000000E+00  0.17350029441E+03  0.17350029441E+03  0.00000000000E+00 0. -1.
         21   -1    0    0  501  503 -0.00000000000E+00 -0.00000000000E+00 -0.72664305928E+03  0.72664305928E+03  0.00000000000E+00 0.  1.
          6    2    1    2  501    0  0.10747971671E+03  0.70035839014E+01 -0.63675377684E+03  0.66850509892E+03  0.17275055798E+03 0.  0.
         -6    2    1    2    0  502 -0.10747971671E+03 -0.70035839014E+01  0.83611011967E+02  0.23163825477E+03  0.18725528046E+03 0.  0.
        -24    2    4    4    0    0  0.60105882969E+01 -0.47406886600E+02  0.43937868655E+02  0.10471889258E+03  0.82170372349E+02 0.  0.
          5    1    3    3  501    0  0.93447370953E+01 -0.70806756015E+02 -0.28048066093E+03  0.28946919001E+03  0.47000000000E+01 0. -1.
        -15    1    3    3    0    0  0.64928580963E+02  0.59628462492E+02 -0.20618889314E+03  0.22425051070E+03  0.17770000000E+01 0.  1.
         16    1    3    3    0    0  0.33206398651E+02  0.18181877424E+02 -0.15008422277E+03  0.15478539822E+03  0.00000000000E+00 0. -1.
         -5    1    4    4    0  502 -0.11349030501E+03  0.40403302699E+02  0.39673143312E+02  0.12691936219E+03  0.47000000000E+01 0.  1.
         15    1    5    5    0    0  0.16220631222E+02 -0.66460904668E+02  0.46808877291E+02  0.82911937915E+02  0.17770000000E+01 0. -1.
        -16    1    5    5    0    0 -0.10210042925E+02  0.19054018068E+02 -0.28710086361E+01  0.21806954663E+02  0.00000000000E+00 0.  1.
<mgrwt>
<rscale>  2 0.21284121E+03</rscale>
<asrwt>0</asrwt>
<pdfrwt beam="1">  1       21 0.26692353E-01 0.21602194E+03</pdfrwt>
<pdfrwt beam="2">  1       21 0.11179124E+00 0.21602194E+03</pdfrwt>
<totfact> 0.82510095E+03</totfact>
</mgrwt>
</event>
<event>
12    2  0.4090627E-002  0.2618987E+03  0.7546771E-02  0.1106092E+00
         21   -1    0    0  501  502  0.00000000000E+00  0.00000000000E+00  0.50753971310E+03  0.50753971310E+03  0.00000000000E+00 0. -1.
         21   -1    0    0  502  503 -0.00000000000E+00 -0.00000000000E+00 -0.37654272869E+03  0.37654272869E+03  0.00000000000E+00 0.  1.
         -6    2    1    2    0  503 -0.18409445027E+02 -0.19478006025E+03 -0.28862412282E+03  0.38973683266E+03  0.17410552813E+03 0.  0.
        -24    2    3    3    0    0 -0.64725239316E+02 -0.69337644309E+02 -0.17106853744E+03  0.21162911758E+03  0.80779783267E+02 0.  0.
          6    2    1    2  501    0  0.18409445027E+02  0.19478006025E+03  0.41962110723E+03  0.49434560912E+03  0.17325567260E+03 0.  0.
         24    2    5    5    0    0 -0.45549078808E+02  0.66192933179E+02  0.22989027138E+03  0.25634304171E+03  0.80037461090E+02 0.  0.
          5    1    5    5  501    0  0.63958523835E+02  0.12858712707E+03  0.18973083585E+03  0.23800256741E+03  0.47000000000E+01 0. -1.
        -15    1    6    6    0    0 -0.42286308718E+02  0.10488588076E+02  0.42763471386E+02  0.61073845456E+02  0.17770000000E+01 0.  1.
         16    1    6    6    0    0 -0.32627700906E+01  0.55704345103E+02  0.18712679999E+03  0.19526919626E+03  0.00000000000E+00 0. -1.
         -5    1    3    3    0  503  0.46315794289E+02 -0.12544241594E+03 -0.11755558538E+03  0.17810771508E+03  0.47000000000E+01 0.  1.
         15    1    4    4    0    0 -0.99851807313E+01 -0.22933717274E+02  0.11032768194E+01  0.25100481489E+02  0.17770000000E+01 0. -1.
        -16    1    4    4    0    0 -0.54740058585E+02 -0.46403927035E+02 -0.17217181426E+03  0.18652863610E+03  0.00000000000E+00 0.  1.
<mgrwt>
<rscale>  2 0.26175751E+03</rscale>
<asrwt>0</asrwt>
<pdfrwt beam="1">  1       21 0.78083033E-01 0.26189867E+03</pdfrwt>
<pdfrwt beam="2">  1       21 0.57929650E-01 0.26189867E+03</pdfrwt>
<totfact> 0.38622621E+03</totfact>
</mgrwt>
</event>
<event>
12    2  0.4090627E-002  0.1864509E+03  0.7546771E-02  0.1161915E+00
         21   -1    0    0  501  502  0.00000000000E+00  0.00000000000E+00  0.22613003676E+03  0.22613003676E+03  0.00000000000E+00 0. -1.
         21   -1    0    0  502  503 -0.00000000000E+00 -0.00000000000E+00 -0.15367574740E+03  0.15367574740E+03  0.00000000000E+00 0. -1.
         -6    2    1    2    0  503 -0.54116068902E+02 -0.40517907703E+02  0.23508575185E+02  0.18792711279E+03  0.17376333576E+03 0.  0.
        -24    2    3    3    0    0  0.31822803141E+02  0.61540409267E+01  0.14414818637E+01  0.87563737373E+02  0.81331219180E+02 0.  0.
          6    2    1    2  501    0  0.54116068902E+02  0.40517907703E+02  0.48945714176E+02  0.19187867138E+03  0.17277584274E+03 0.  0.
         24    2    5    5    0    0  0.22101690406E+02  0.38708976127E+02 -0.37615491462E+02  0.99449644630E+02  0.80550835300E+02 0.  0.
          5    1    5    5  501    0  0.32014378497E+02  0.18089315765E+01  0.86561205638E+02  0.92429026748E+02  0.47000000000E+01 0. -1.
        -15    1    6    6    0    0  0.90625469947E+01 -0.23638299299E+01  0.23103541508E+02  0.24992975196E+02  0.17770000000E+01 0.  1.
         16    1    6    6    0    0  0.13039143411E+02  0.41072806057E+02 -0.60719032970E+02  0.74456669433E+02  0.00000000000E+00 0. -1.
         -5    1    3    3    0  503 -0.85938872044E+02 -0.46671948630E+02  0.22067093321E+02  0.10036337542E+03  0.47000000000E+01 0.  1.
         15    1    4    4    0    0  0.54021872128E+01 -0.35044763247E+02  0.12035175432E+02  0.37487627751E+02  0.17770000000E+01 0. -1.
        -16    1    4    4    0    0  0.26420615929E+02  0.41198804174E+02 -0.10593693569E+02  0.50076109622E+02  0.00000000000E+00 0.  1.
<mgrwt>
<rscale>  2 0.18622051E+03</rscale>
<asrwt>0</asrwt>
<pdfrwt beam="1">  1       21 0.34789236E-01 0.18645092E+03</pdfrwt>
<pdfrwt beam="2">  1       21 0.23642423E-01 0.18645092E+03</pdfrwt>
<totfact> 0.13444010E+05</totfact>
</mgrwt>
</event>
<event>
12    2  0.4090627E-002  0.2336825E+03  0.7546771E-02  0.1124151E+00
         21   -1    0    0  501  502  0.00000000000E+00  0.00000000000E+00  0.16509191714E+03  0.16509191714E+03  0.00000000000E+00 0.  1.
         21   -1    0    0  502  503 -0.00000000000E+00 -0.00000000000E+00 -0.35737801829E+03  0.35737801829E+03  0.00000000000E+00 0. -1.
         -6    2    1    2    0  503  0.13117059833E+03 -0.85655541106E+02 -0.16834600771E+03  0.28800671364E+03  0.17339230433E+03 0.  0.
        -24    2    3    3    0    0  0.11286373185E+03 -0.35545421919E+02 -0.18276349066E+03  0.23254394036E+03  0.81685321164E+02 0.  0.
          6    2    1    2  501    0 -0.13117059833E+03  0.85655541106E+02 -0.23940093427E+02  0.23446322179E+03  0.17279258291E+03 0.  0.
         24    2    5    5    0    0  0.21957133215E+01  0.18103013449E+02  0.84917213238E+01  0.81414766434E+02  0.78890522939E+02 0.  0.
          5    1    5    5  501    0 -0.13336631166E+03  0.67552527656E+02 -0.32431814750E+02  0.15304845535E+03  0.47000000000E+01 0. -1.
        -15    1    6    6    0    0  0.12054793139E+02 -0.27702700385E+02 -0.87255596478E+01  0.31496837403E+02  0.17770000000E+01 0.  1.
         16    1    6    6    0    0 -0.98590798174E+01  0.45805713834E+02  0.17217280972E+02  0.49917929031E+02  0.00000000000E+00 0. -1.
         -5    1    3    3    0  503  0.18306866484E+02 -0.50110119187E+02  0.14417482949E+02  0.55462773280E+02  0.47000000000E+01 0.  1.
         15    1    4    4    0    0  0.58458231000E+01 -0.35537460479E+02 -0.56532664919E+02  0.67053595555E+02  0.17770000000E+01 0. -1.
        -16    1    4    4    0    0  0.10701790875E+03 -0.79614400347E-02 -0.12623082574E+03  0.16549034481E+03  0.00000000000E+00 0.  1.
<mgrwt>
<rscale>  2 0.23357121E+03</rscale>
<asrwt>0</asrwt>
<pdfrwt beam="1">  1       21 0.25398757E-01 0.23368245E+03</pdfrwt>
<pdfrwt beam="2">  1       21 0.54981233E-01 0.23368245E+03</pdfrwt>
<totfact> 0.44987997E+04</totfact>
</mgrwt>
</event>
<event>
12    2  0.4090627E-002  0.2994505E+03  0.7546771E-02  0.1085731E+00
         21   -1    0    0  503  502  0.00000000000E+00  0.00000000000E+00  0.76322127616E+03  0.76322127616E+03  0.00000000000E+00 0.  1.
         21   -1    0    0  501  503 -0.00000000000E+00 -0.00000000000E+00 -0.12026871249E+03  0.12026871249E+03  0.00000000000E+00 0.  1.
          6    2    1    2  501    0 -0.22574332679E+03 -0.92213788677E+02  0.24576314490E+03  0.38606656590E+03  0.17083453253E+03 0.  0.
         24    2    3    3    0    0 -0.57885496061E+02 -0.80543251176E+02  0.12046214187E+03  0.17622166093E+03  0.81884065558E+02 0.  0.
         -6    2    1    2    0  502  0.22574332679E+03  0.92213788677E+02  0.39718941877E+03  0.49742342275E+03  0.17380217117E+03 0.  0.
        -24    2    5    5    0    0  0.30165000204E+02  0.42262756857E+02  0.10953526236E+03  0.14597927198E+03  0.81338221598E+02 0.  0.
          5    1    3    3  501    0 -0.16785783073E+03 -0.11670537501E+02  0.12530100302E+03  0.20984490497E+03  0.47000000000E+01 0. -1.
        -15    1    4    4    0    0 -0.62749015701E+02 -0.41259388427E+02  0.36759888157E+02  0.83631472611E+02  0.17770000000E+01 0.  1.
         16    1    4    4    0    0  0.48635196400E+01 -0.39283862749E+02  0.83702253717E+02  0.92590188319E+02  0.00000000000E+00 0. -1.
         -5    1    5    5    0  502  0.19557832659E+03  0.49951031820E+02  0.28765415641E+03  0.35144415077E+03  0.47000000000E+01 0.  1.
         15    1    6    6    0    0  0.91308565102E+01  0.15952332240E+02  0.11074362013E+03  0.11227268846E+03  0.17770000000E+01 0. -1.
        -16    1    6    6    0    0  0.21034143694E+02  0.26310424617E+02 -0.12083577674E+01  0.33706583525E+02  0.00000000000E+00 0.  1.
<mgrwt>
<rscale>  2 0.29902147E+03</rscale>
<asrwt>0</asrwt>
<pdfrwt beam="1">  1       21 0.11741865E+00 0.29945054E+03</pdfrwt>
<pdfrwt beam="2">  1       21 0.18502879E-01 0.29945054E+03</pdfrwt>
<totfact> 0.14009041E+04</totfact>
</mgrwt>
</event>
<event>
12    2  0.4090627E-002  0.2058568E+03  0.7546771E-02  0.1144990E+00
         21   -1    0    0  503  502  0.00000000000E+00  0.00000000000E+00  0.77316446792E+03  0.77316446792E+03  0.00000000000E+00 0. -1.
         21   -1    0    0  501  503 -0.00000000000E+00 -0.00000000000E+00 -0.57674417364E+02  0.57674417364E+02  0.00000000000E+00 0. -1.
          6    2    1    2  501    0  0.38320024858E+02  0.10354246699E+03  0.45201208060E+03  0.49647734058E+03  0.17316281913E+03 0.  0.
         24    2    3    3    0    0 -0.22241238236E+02  0.27509456105E+02  0.32212481887E+03  0.33417676729E+03  0.81598223084E+02 0.  0.
         -6    2    1    2    0  502 -0.38320024858E+02 -0.10354246699E+03  0.26347796996E+03  0.33436154470E+03  0.17374560468E+03 0.  0.
        -24    2    5    5    0    0 -0.21823829510E+02 -0.64213352535E+02  0.48541975613E+02  0.11518473167E+03  0.79445357545E+02 0.  0.
          5    1    3    3  501    0  0.60561263095E+02  0.76033010888E+02  0.12988726173E+03  0.16230057330E+03  0.47000000000E+01 0. -1.
        -15    1    4    4    0    0  0.10553582491E+02  0.14213751297E+02  0.10729439564E+02  0.20777089105E+02  0.17770000000E+01 0.  1.
         16    1    4    4    0    0 -0.32794820728E+02  0.13295704808E+02  0.31139537930E+03  0.31339967818E+03  0.00000000000E+00 0. -1.
         -5    1    5    5    0  502 -0.16496195349E+02 -0.39329114458E+02  0.21493599434E+03  0.21917681303E+03  0.47000000000E+01 0.  1.
         15    1    6    6    0    0  0.35565298438E+01 -0.66171518217E+02  0.57946768146E+02  0.88047171421E+02  0.17770000000E+01 0. -1.
        -16    1    6    6    0    0 -0.25380359353E+02  0.19581656820E+01 -0.94047925327E+01  0.27137560250E+02  0.00000000000E+00 0.  1.
<mgrwt>
<rscale>  2 0.20573373E+03</rscale>
<asrwt>0</asrwt>
<pdfrwt beam="1">  1       21 0.11894837E+00 0.20585675E+03</pdfrwt>
<pdfrwt beam="2">  1       21 0.88729879E-02 0.20585675E+03</pdfrwt>
<totfact> 0.53684069E+04</totfact>
</mgrwt>
</event>
<event>
12    2  0.4090627E-002  0.2302134E+03  0.7546771E-02  0.1126541E+00
         21   -1    0    0  501  502  0.00000000000E+00  0.00000000000E+00  0.68462101869E+02  0.68462101869E+02  0.00000000000E+00 0.  1.
         21   -1    0    0  502  503 -0.00000000000E+00 -0.00000000000E+00 -0.79748690914E+03  0.79748690914E+03  0.00000000000E+00 0.  1.
         -6    2    1    2    0  503  0.15647143029E+02 -0.15090561315E+03 -0.43994747893E+03  0.49640344042E+03  0.17275779078E+03 0.  0.
        -24    2    3    3    0    0 -0.39252600538E+02 -0.76307796563E+02 -0.15655513598E+03  0.19822207593E+03  0.86132655360E+02 0.  0.
          6    2    1    2  501    0 -0.15647143029E+02  0.15090561315E+03 -0.28907732834E+03  0.36954557059E+03  0.17314990563E+03 0.  0.
         24    2    5    5    0    0  0.27803891787E+01  0.48518644371E+02 -0.23462983691E+03  0.25203265794E+03  0.78150565452E+02 0.  0.
          5    1    5    5  501    0 -0.18427532207E+02  0.10238696878E+03 -0.54447491422E+02  0.11751291265E+03  0.47000000000E+01 0. -1.
        -15    1    6    6    0    0 -0.34315072121E+02  0.48040180673E+01 -0.87941874577E+02  0.94538530755E+02  0.17770000000E+01 0.  1.
         16    1    6    6    0    0  0.37095461299E+02  0.43714626304E+02 -0.14668796234E+03  0.15749412718E+03  0.00000000000E+00 0. -1.
         -5    1    3    3    0  503  0.54899743567E+02 -0.74597816584E+02 -0.28339234295E+03  0.29818136449E+03  0.47000000000E+01 0.  1.
         15    1    4    4    0    0 -0.32435610075E+02  0.10778116663E+02 -0.44904984693E+02  0.56461066046E+02  0.17770000000E+01 0. -1.
        -16    1    4    4    0    0 -0.68169904634E+01 -0.87085913226E+02 -0.11165015129E+03  0.14176100989E+03  0.00000000000E+00 0.  1.
<mgrwt>
<rscale>  2 0.23013971E+03</rscale>
<asrwt>0</asrwt>
<pdfrwt beam="1">  1       21 0.10532631E-01 0.23021344E+03</pdfrwt>
<pdfrwt beam="2">  1       21 0.12269030E+00 0.23021344E+03</pdfrwt>
<totfact> 0.36248084E+04</totfact>
</mgrwt>
</event>
<event>
12    2  0.4090627E-002  0.3229700E+03  0.7546771E-02  0.1074347E+00
         21   -1    0    0  503  502  0.00000000000E+00  0.00000000000E+00  0.13553525514E+03  0.13553525514E+03  0.00000000000E+00 0.  1.
         21   -1    0    0  501  503 -0.00000000000E+00 -0.00000000000E+00 -0.11200445799E+04  0.11200445799E+04  0.00000000000E+00 0. -1.
          6    2    1    2  501    0 -0.14935658012E+03 -0.22664728843E+03 -0.84426057152E+03  0.90392781926E+03  0.17502345110E+03 0.  0.
         24    2    3    3    0    0 -0.11265364019E+03 -0.44697306487E+02 -0.36149636133E+03  0.38668873106E+03  0.64497004698E+02 0.  0.
         -6    2    1    2    0  502  0.14935658012E+03  0.22664728843E+03 -0.14024875329E+03  0.35165201582E+03  0.17410642164E+03 0.  0.
        -24    2    5    5    0    0  0.75520348624E+02  0.22011973805E+03 -0.12293309670E+03  0.27538721425E+03  0.81052756739E+02 0.  0.
          5    1    3    3  501    0 -0.36702939926E+02 -0.18194998194E+03 -0.48276421018E+03  0.51723908820E+03  0.47000000000E+01 0. -1.
        -15    1    4    4    0    0  0.36760300437E+01  0.75179945989E+01 -0.12673503036E+02  0.15290809262E+02  0.17770000000E+01 0.  1.
         16    1    4    4    0    0 -0.11632967024E+03 -0.52215301086E+02 -0.34882285830E+03  0.37139792180E+03  0.00000000000E+00 0. -1.
         -5    1    5    5    0  502  0.73836231495E+02  0.65275503780E+01 -0.17315656592E+02  0.76264801570E+02  0.47000000000E+01 0.  1.
         15    1    6    6    0    0  0.10932454946E+02  0.10413721763E+03 -0.91257082485E+02  0.13890677269E+03  0.17770000000E+01 0. -1.
        -16    1    6    6    0    0  0.64587893678E+02  0.11598252042E+03 -0.31676014217E+02  0.13648044156E+03  0.00000000000E+00 0.  1.
<mgrwt>
<rscale>  2 0.32284587E+03</rscale>
<asrwt>0</asrwt>
<pdfrwt beam="1">  1       21 0.20851578E-01 0.32296995E+03</pdfrwt>
<pdfrwt beam="2">  1       21 0.17231455E+00 0.32296995E+03</pdfrwt>
<totfact> 0.40067782E+03</totfact>
</mgrwt>
</event>
<event>
12    2  0.4090627E-002  0.2304753E+03  0.7546771E-02  0.1127022E+00
         21   -1    0    0  503  502  0.00000000000E+00  0.00000000000E+00  0.38204738491E+02  0.38204738491E+02  0.00000000000E+00 0. -1.
         21   -1    0    0  501  503 -0.00000000000E+00 -0.00000000000E+00 -0.13814755341E+04  0.13814755341E+04  0.00000000000E+00 0. -1.
          6    2    1    2  501    0  0.14797617491E+03  0.29075794449E+02 -0.75242688972E+03  0.78693397723E+03  0.17428858246E+03 0.  0.
         24    2    3    3    0    0  0.62414692391E+02 -0.49864994625E+02 -0.39104542780E+03  0.40723532502E+03  0.80882456836E+02 0.  0.
         -6    2    1    2    0  502 -0.14797617491E+03 -0.29075794449E+02 -0.59084390591E+03  0.63274629539E+03  0.16890530782E+03 0.  0.
        -24    2    5    5    0    0 -0.14615668388E+03 -0.61120508051E+01 -0.58439567131E+03  0.60836774335E+03  0.84816726534E+02 0.  0.
          5    1    3    3  501    0  0.85561482518E+02  0.78940789074E+02 -0.36138146192E+03  0.37969865221E+03  0.47000000000E+01 0. -1.
        -15    1    4    4    0    0  0.21478914813E+02 -0.63967631771E+02 -0.19154709197E+03  0.20309270756E+03  0.17770000000E+01 0.  1.
         16    1    4    4    0    0  0.40935777577E+02  0.14102637146E+02 -0.19949833584E+03  0.20414261746E+03  0.00000000000E+00 0. -1.
         -5    1    5    5    0  502 -0.18194910270E+01 -0.22963743644E+02 -0.64482346029E+01  0.24378552033E+02  0.47000000000E+01 0.  1.
         15    1    6    6    0    0 -0.70251804361E+02 -0.33428401282E+02 -0.18157066873E+03  0.19754452536E+03  0.17770000000E+01 0. -1.
        -16    1    6    6    0    0 -0.75904879521E+02  0.27316350477E+02 -0.40282500258E+03  0.41082321799E+03  0.00000000000E+00 0.  1.
<mgrwt>
<rscale>  2 0.22945770E+03</rscale>
<asrwt>0</asrwt>
<pdfrwt beam="1">  1       21 0.58776524E-02 0.23047529E+03</pdfrwt>
<pdfrwt beam="2">  1       21 0.21253469E+00 0.23047529E+03</pdfrwt>
<totfact> 0.22228580E+04</totfact>
</mgrwt>
</event>
<event>
12    2  0.4090627E-002  0.2179858E+03  0.7546771E-02  0.1136241E+00
         21   -1    0    0  503  502  0.00000000000E+00  0.00000000000E+00  0.62222313762E+02  0.62222313762E+02  0.00000000000E+00 0.  1.
         21   -1    0    0  501  503 -0.00000000000E+00 -0.00000000000E+00 -0.86859425970E+03  0.86859425970E+03  0.00000000000E+00 0.  1.
          6    2    1    2  501    0  0.11812980612E+03 -0.43204340866E+02 -0.58002738515E+03  0.61963666060E+03  0.17803527032E+03 0.  0.
         24    2    3    3    0    0  0.87386648973E+02 -0.27975126972E+02 -0.57117192583E+03  0.58389341191E+03  0.79215613787E+02 0.  0.
         -6    2    1    2    0  502 -0.11812980612E+03  0.43204340866E+02 -0.22634456079E+03  0.31117991286E+03  0.17256828158E+03 0.  0.
        -24    2    5    5    0    0 -0.48733961067E+02  0.49490013189E+02 -0.44161032067E+02  0.11606912094E+03  0.81838766581E+02 0.  0.
          5    1    3    3  501    0  0.30743157144E+02 -0.15229213893E+02 -0.88554593129E+01  0.35743248686E+02  0.47000000000E+01 0. -1.
        -15    1    4    4    0    0  0.33961796455E+02  0.25502350264E+02 -0.14633690053E+03  0.15238575941E+03  0.17770000000E+01 0.  1.
         16    1    4    4    0    0  0.53424852517E+02 -0.53477477236E+02 -0.42483502531E+03  0.43150765250E+03  0.00000000000E+00 0. -1.
         -5    1    5    5    0  502 -0.69395845050E+02 -0.62856723235E+01 -0.18218352872E+03  0.19511079192E+03  0.47000000000E+01 0.  1.
         15    1    6    6    0    0 -0.18344422528E+02  0.11586969560E+02 -0.60908344191E+02  0.64681989939E+02  0.17770000000E+01 0. -1.
        -16    1    6    6    0    0 -0.30389538540E+02  0.37903043629E+02  0.16747312123E+02  0.51387131000E+02  0.00000000000E+00 0.  1.
<mgrwt>
<rscale>  2 0.21686681E+03</rscale>
<asrwt>0</asrwt>
<pdfrwt beam="1">  1       21 0.95726641E-02 0.21798583E+03</pdfrwt>
<pdfrwt beam="2">  1       21 0.13362988E+00 0.21798583E+03</pdfrwt>
<totfact> 0.34824574E+04</totfact>
</mgrwt>
</event>
<event>
12    2  0.4090627E-002  0.2505744E+03  0.7546771E-02  0.1113193E+00
         21   -1    0    0  503  502  0.00000000000E+00  0.00000000000E+00  0.96204332365E+03  0.96204332365E+03  0.00000000000E+00 0. -1.
         21   -1    0    0  501  503 -0.00000000000E+00 -0.00000000000E+00 -0.86125247290E+02  0.86125247290E+02  0.00000000000E+00 0. -1.
          6    2    1    2  501    0  0.15023945341E+02 -0.17860723649E+03  0.17645352572E+03  0.30517583803E+03  0.17282992079E+03 0.  0.
         24    2    3    3    0    0 -0.21453785411E+02 -0.19919636318E+02  0.76091938380E+02  0.11384649501E+03  0.79460584690E+02 0.  0.
         -6    2    1    2    0  502 -0.15023945341E+02  0.17860723649E+03  0.69946455064E+03  0.74299273291E+03  0.17510362557E+03 0.  0.
        -24    2    5    5    0    0  0.25985295167E+02  0.18374932956E+03  0.63380459156E+03  0.66526552303E+03  0.80192918497E+02 0.  0.
          5    1    3    3  501    0  0.36477730752E+02 -0.15868760017E+03  0.10036158734E+03  0.19132934303E+03  0.47000000000E+01 0. -1.
        -15    1    4    4    0    0  0.18313863421E+02 -0.36527500549E+02  0.44294116364E+02  0.60289156266E+02  0.17770000000E+01 0.  1.
         16    1    4    4    0    0 -0.39767648832E+02  0.16607864232E+02  0.31797822016E+02  0.53557338740E+02  0.00000000000E+00 0. -1.
         -5    1    5    5    0  502 -0.41009240509E+02 -0.51420930641E+01  0.65659959084E+02  0.77727209876E+02  0.47000000000E+01 0.  1.
         15    1    6    6    0    0  0.54707205533E+02  0.11144730353E+03  0.37504644641E+03  0.39506502565E+03  0.17770000000E+01 0. -1.
        -16    1    6    6    0    0 -0.28721910366E+02  0.72302026026E+02  0.25875814515E+03  0.27020049737E+03  0.00000000000E+00 0.  1.
<mgrwt>
<rscale>  2 0.25017759E+03</rscale>
<asrwt>0</asrwt>
<pdfrwt beam="1">  1       21 0.14800666E+00 0.25057443E+03</pdfrwt>
<pdfrwt beam="2">  1       21 0.13250039E-01 0.25057443E+03</pdfrwt>
<totfact> 0.14652379E+04</totfact>
</mgrwt>
</event>
<event>
11    2  0.4090627E-002  0.2345823E+03  0.7546771E-02  0.1123853E+00
         21   -1    0    0  501  502  0.00000000000E+00  0.00000000000E+00  0.54654163531E+03  0.54654163531E+03  0.00000000000E+00 0. -1.
         21   -1    0    0  502  503 -0.00000000000E+00 -0.00000000000E+00 -0.10114240120E+03  0.10114240120E+03  0.00000000000E+00 0. -1.
         -6    2    1    2    0  503  0.15123058035E+03  0.41840702344E+02  0.26029394487E+03  0.34886501869E+03  0.17126742458E+03 0.  0.
          6    2    1    2  501    0 -0.15123058035E+03 -0.41840702344E+02  0.18510528924E+03  0.29881901782E+03  0.17437747705E+03 0.  0.
         24    2    4    4    0    0 -0.76160441314E+02 -0.90637160865E+02  0.92879189725E+02  0.17019412299E+03  0.79523505114E+02 0.  0.
          5    1    4    4  501    0 -0.75070139035E+02  0.48796458520E+02  0.92226099512E+02  0.12862489483E+03  0.47000000000E+01 0. -1.
        -15    1    5    5    0    0 -0.20415452027E+02  0.11991682630E+02  0.27562529107E+02  0.36379140637E+02  0.17770000000E+01 0.  1.
         16    1    5    5    0    0 -0.55744989288E+02 -0.10262884349E+03  0.65316660618E+02  0.13381498235E+03  0.00000000000E+00 0. -1.
         -5    1    3    3    0  503  0.36631077708E+02  0.36687750862E+02  0.26384546453E+02  0.58361470242E+02  0.47000000000E+01 0.  1.
         15    1    3    3    0    0 -0.78824642995E+01 -0.98796437022E+00  0.12859882137E+03  0.12885621406E+03  0.17770000000E+01 0. -1.
        -16    1    3    3    0    0  0.12248196694E+03  0.61409158525E+01  0.10531057705E+03  0.16164733438E+03  0.00000000000E+00 0.  1.
<mgrwt>
<rscale>  2 0.23400449E+03</rscale>
<asrwt>0</asrwt>
<pdfrwt beam="1">  1       21 0.84083327E-01 0.23458226E+03</pdfrwt>
<pdfrwt beam="2">  1       21 0.15560370E-01 0.23458226E+03</pdfrwt>
<totfact> 0.44156953E+04</totfact>
</mgrwt>
</event>
<event>
12    2  0.4090627E-002  0.2037381E+03  0.7546771E-02  0.1148038E+00
         21   -1    0    0  503  502  0.00000000000E+00  0.00000000000E+00  0.69207486042E+03  0.69207486042E+03  0.00000000000E+00 0. -1.
         21   -1    0    0  501  503 -0.00000000000E+00 -0.00000000000E+00 -0.72721537105E+02  0.72721537105E+02  0.00000000000E+00 0.  1.
          6    2    1    2  501    0 -0.21849633235E+02 -0.10558444346E+03  0.13352310446E+03  0.23797555534E+03  0.16485892254E+03 0.  0.
         24    2    3    3    0    0 -0.17093977289E+01 -0.10051848907E+03  0.15878356559E+03  0.20493809363E+03  0.81734404208E+02 0.  0.
         -6    2    1    2    0  502  0.21849633235E+02  0.10558444346E+03  0.48583021885E+03  0.52682084219E+03  0.17286907485E+03 0.  0.
        -24    2    5    5    0    0  0.78605906670E+02  0.66550470792E+02  0.35828770116E+03  0.38178943381E+03  0.82372575774E+02 0.  0.
          5    1    3    3  501    0 -0.20140235506E+02 -0.50659543855E+01 -0.25260461127E+02  0.33037461713E+02  0.47000000000E+01 0. -1.
        -15    1    4    4    0    0  0.18214702350E+02 -0.93064220918E+02  0.82378353777E+02  0.12562673082E+03  0.17770000000E+01 0.  1.
         16    1    4    4    0    0 -0.19924100079E+02 -0.74542681558E+01  0.76405211813E+02  0.79311362805E+02  0.00000000000E+00 0. -1.
         -5    1    5    5    0  502 -0.56756273435E+02  0.39033972668E+02  0.12754251769E+03  0.14503140838E+03  0.47000000000E+01 0.  1.
         15    1    6    6    0    0 -0.13612472504E+02  0.29405738182E+02  0.85931238977E+02  0.91854953088E+02  0.17770000000E+01 0. -1.
        -16    1    6    6    0    0  0.92218379174E+02  0.37144732611E+02  0.27235646218E+03  0.28993448072E+03  0.00000000000E+00 0.  1.
<mgrwt>
<rscale>  2 0.20202895E+03</rscale>
<asrwt>0</asrwt>
<pdfrwt beam="1">  1       21 0.10647305E+00 0.20373806E+03</pdfrwt>
<pdfrwt beam="2">  1       21 0.11187929E-01 0.20373806E+03</pdfrwt>
<totfact> 0.46711051E+04</totfact>
</mgrwt>
</event>
<event>
12    2  0.4090627E-002  0.1955078E+03  0.7546771E-02  0.1153608E+00
         21   -1    0    0  501  502  0.00000000000E+00  0.00000000000E+00  0.13765847950E+04  0.13765847950E+04  0.00000000000E+00 0.  1.
         21   -1    0    0  502  503 -0.00000000000E+00 -0.00000000000E+00 -0.29459138733E+03  0.29459138733E+03  0.00000000000E+00 0.  1.
         -6    2    1    2    0  503 -0.88183758017E+02 -0.23869036890E+02 -0.25427340768E+03  0.32068283111E+03  0.17273218059E+03 0.  0.
        -24    2    3    3    0    0 -0.11860557632E+02 -0.42350439036E+02 -0.21296596370E+03  0.23182796028E+03  0.80345933043E+02 0.  0.
          6    2    1    2  501    0  0.88183758017E+02  0.23869036890E+02  0.13362668153E+04  0.13504933512E+04  0.17285017725E+03 0.  0.
         24    2    5    5    0    0  0.79380369600E+02  0.44901498556E+02  0.13077544017E+04  0.13136842243E+04  0.85013401384E+02 0.  0.
          5    1    5    5  501    0  0.88033884168E+01 -0.21032461666E+02  0.28512413693E+02  0.36809126938E+02  0.47000000000E+01 0. -1.
        -15    1    6    6    0    0  0.47637576016E+02  0.22717601992E+02  0.26496297043E+03  0.27017394678E+03  0.17770000000E+01 0.  1.
         16    1    6    6    0    0  0.31742793585E+02  0.22183896564E+02  0.10427914312E+04  0.10435102775E+04  0.00000000000E+00 0. -1.
         -5    1    3    3    0  503 -0.76323200385E+02  0.18481402146E+02 -0.41307443983E+02  0.88854870833E+02  0.47000000000E+01 0.  1.
         15    1    4    4    0    0  0.19460725765E+02  0.14542371097E+02 -0.37381985480E+02  0.44618056567E+02  0.17770000000E+01 0. -1.
        -16    1    4    4    0    0 -0.31321283397E+02 -0.56892810134E+02 -0.17558397822E+03  0.18720990371E+03  0.00000000000E+00 0.  1.
<mgrwt>
<rscale>  2 0.19548169E+03</rscale>
<asrwt>0</asrwt>
<pdfrwt beam="1">  1       21 0.21178227E+00 0.19550777E+03</pdfrwt>
<pdfrwt beam="2">  1       21 0.45321753E-01 0.19550777E+03</pdfrwt>
<totfact> 0.52630663E+02</totfact>
</mgrwt>
</event>
<event>
12    2  0.4090627E-002  0.2188727E+03  0.7546771E-02  0.1134891E+00
         21   -1    0    0  501  502  0.00000000000E+00  0.00000000000E+00  0.59622483618E+03  0.59622483618E+03  0.00000000000E+00 0. -1.
         21   -1    0    0  502  503 -0.00000000000E+00 -0.00000000000E+00 -0.86898935583E+02  0.86898935583E+02  0.00000000000E+00 0.  1.
         -6    2    1    2    0  503  0.13295651461E+03 -0.49807521821E+01  0.15813351622E+03  0.26931056863E+03  0.17268390415E+03 0.  0.
        -24    2    3    3    0    0  0.12244154106E+02  0.34240192696E+02  0.41042528556E+02  0.96561774458E+02  0.79481928957E+02 0.  0.
          6    2    1    2  501    0 -0.13295651461E+03  0.49807521821E+01  0.35119238437E+03  0.41381320313E+03  0.17379019987E+03 0.  0.
         24    2    5    5    0    0 -0.14071742508E+03  0.36673346671E+02  0.20398784428E+03  0.26296255215E+03  0.79949578757E+02 0.  0.
          5    1    5    5  501    0  0.77609104649E+01 -0.31692594489E+02  0.14720454009E+03  0.15085065098E+03  0.47000000000E+01 0. -1.
        -15    1    6    6    0    0 -0.91855362227E+02  0.14423948612E+02  0.63619456409E+02  0.11267675371E+03  0.17770000000E+01 0.  1.
         16    1    6    6    0    0 -0.48862062848E+02  0.22249398059E+02  0.14036838787E+03  0.15028579844E+03  0.00000000000E+00 0. -1.
         -5    1    3    3    0  503  0.12071236050E+03 -0.39220944878E+02  0.11709098766E+03  0.17274879417E+03  0.47000000000E+01 0.  1.
         15    1    4    4    0    0  0.46045700245E+02  0.23865651001E+02  0.21583687209E+02  0.56203105709E+02  0.17770000000E+01 0. -1.
        -16    1    4    4    0    0 -0.33801546138E+02  0.10374541695E+02  0.19458841346E+02  0.40358668750E+02  0.00000000000E+00 0.  1.
<mgrwt>
<rscale>  2 0.21865306E+03</rscale>
<asrwt>0</asrwt>
<pdfrwt beam="1">  1       21 0.91726895E-01 0.21887274E+03</pdfrwt>
<pdfrwt beam="2">  1       21 0.13369067E-01 0.21887274E+03</pdfrwt>
<totfact> 0.47954264E+04</totfact>
</mgrwt>
</event>
<event>
12    2  0.4090627E-002  0.1846152E+03  0.7546771E-02  0.1163916E+00
         21   -1    0    0  501  502  0.00000000000E+00  0.00000000000E+00  0.68719443723E+02  0.68719443723E+02  0.00000000000E+00 0.  1.
         21   -1    0    0  502  503 -0.00000000000E+00 -0.00000000000E+00 -0.50305285275E+03  0.50305285275E+03  0.00000000000E+00 0. -1.
         -6    2    1    2    0  503  0.31855105058E+02  0.46995524370E+02 -0.26160336547E+03  0.31895129702E+03  0.17340784878E+03 0.  0.
        -24    2    3    3    0    0  0.20844422493E+02  0.61105501286E+02 -0.27654565721E+03  0.29516708668E+03  0.80484385417E+02 0.  0.
          6    2    1    2  501    0 -0.31855105058E+02 -0.46995524370E+02 -0.17273004357E+03  0.25282099946E+03  0.17566861640E+03 0.  0.
         24    2    5    5    0    0 -0.84329518287E+02 -0.23963157329E+02 -0.89526735917E+02  0.15168280499E+03  0.85480619577E+02 0.  0.
          5    1    5    5  501    0  0.52474413229E+02 -0.23032367041E+02 -0.83203307649E+02  0.10113819446E+03  0.47000000000E+01 0. -1.
        -15    1    6    6    0    0 -0.60898011239E+02 -0.54306105484E+02 -0.46018652503E+02  0.93694156556E+02  0.17770000000E+01 0.  1.
         16    1    6    6    0    0 -0.23431507048E+02  0.30342948155E+02 -0.43508083414E+02  0.57988648437E+02  0.00000000000E+00 0. -1.
         -5    1    3    3    0  503  0.11010682565E+02 -0.14109976916E+02  0.14942291748E+02  0.23784210347E+02  0.47000000000E+01 0.  1.
         15    1    4    4    0    0  0.49311868821E+02  0.41570481055E+02 -0.13728999636E+03  0.15169530688E+03  0.17770000000E+01 0. -1.
        -16    1    4    4    0    0 -0.28467446328E+02  0.19535020231E+02 -0.13925566086E+03  0.14347177979E+03  0.00000000000E+00 0.  1.
<mgrwt>
<rscale>  2 0.18407541E+03</rscale>
<asrwt>0</asrwt>
<pdfrwt beam="1">  1       21 0.10572222E-01 0.18461525E+03</pdfrwt>
<pdfrwt beam="2">  1       21 0.77392749E-01 0.18461525E+03</pdfrwt>
<totfact> 0.10930708E+05</totfact>
</mgrwt>
</event>
<event>
12    2  0.4090627E-002  0.3557141E+03  0.7546771E-02  0.1060400E+00
         21   -1    0    0  503  502  0.00000000000E+00  0.00000000000E+00  0.32444740586E+04  0.32444740586E+04  0.00000000000E+00 0.  1.
         21   -1    0    0  501  503 -0.00000000000E+00 -0.00000000000E+00 -0.39049933157E+02  0.39049933157E+02  0.00000000000E+00 0. -1.
          6    2    1    2  501    0  0.29721609194E+03 -0.88608132542E+02  0.17120455786E+04  0.17486087583E+04  0.17419448876E+03 0.  0.
         24    2    3    3    0    0  0.19391241217E+03 -0.12555759308E+03  0.10531131750E+04  0.10805886123E+04  0.72509702649E+02 0.  0.
         -6    2    1    2    0  502 -0.29721609194E+03  0.88608132542E+02  0.14933785468E+04  0.15349152334E+04  0.17203628479E+03 0.  0.
        -24    2    5    5    0    0 -0.99157114868E+02 -0.15833441941E+01  0.72012721369E+03  0.73160858274E+03  0.82663619757E+02 0.  0.
          5    1    3    3  501    0  0.10330367978E+03  0.36949460542E+02  0.65893240367E+03  0.66802014603E+03  0.47000000000E+01 0. -1.
        -15    1    4    4    0    0  0.57745618316E+02 -0.52545263125E+02  0.50929591893E+03  0.51524853409E+03  0.17770000000E+01 0.  1.
         16    1    4    4    0    0  0.13616679385E+03 -0.73012329959E+02  0.54381725602E+03  0.56534007820E+03  0.00000000000E+00 0. -1.
         -5    1    5    5    0  502 -0.19805897708E+03  0.90191476736E+02  0.77325133309E+03  0.80330665067E+03  0.47000000000E+01 0.  1.
         15    1    6    6    0    0 -0.54787348182E+02 -0.25635808448E+02  0.19782804137E+03  0.20687662961E+03  0.17770000000E+01 0. -1.
        -16    1    6    6    0    0 -0.44369766686E+02  0.24052464253E+02  0.52229917232E+03  0.52473195313E+03  0.00000000000E+00 0.  1.
<mgrwt>
<rscale>  2 0.35545084E+03</rscale>
<asrwt>0</asrwt>
<pdfrwt beam="1">  1       21 0.49914964E+00 0.35571411E+03</pdfrwt>
<pdfrwt beam="2">  1       21 0.60076846E-02 0.35571411E+03</pdfrwt>
<totfact> 0.31002701E+02</totfact>
</mgrwt>
</event>
<event>
12    2  0.4090627E-002  0.2420194E+03  0.7546771E-02  0.1118559E+00
         21   -1    0    0  501  502  0.00000000000E+00  0.00000000000E+00  0.43910819633E+03  0.43910819633E+03  0.00000000000E+00 0.  1.
         21   -1    0    0  502  503 -0.00000000000E+00 -0.00000000000E+00 -0.16929349274E+03  0.16929349274E+03  0.00000000000E+00 0.  1.
         -6    2    1    2    0  503 -0.16753716233E+03 -0.16384781265E+02 -0.59973639016E+01  0.24146068151E+03  0.17300326737E+03 0.  0.
        -24    2    3    3    0    0 -0.23247677540E+02 -0.36181525267E+02 -0.23123212961E+02  0.94740706043E+02  0.81188429732E+02 0.  0.
          6    2    1    2  501    0  0.16753716233E+03  0.16384781265E+02  0.27581206748E+03  0.36694100756E+03  0.17388572294E+03 0.  0.
         24    2    5    5    0    0  0.14872920264E+03 -0.19777455814E+02  0.27817975104E+03  0.32584182675E+03  0.79230036532E+02 0.  0.
          5    1    5    5  501    0  0.18807959690E+02  0.36162237079E+02 -0.23676835601E+01  0.41099180816E+02  0.47000000000E+01 0. -1.
        -15    1    6    6    0    0  0.53707755535E+02  0.30507866299E+02  0.11209632817E+03  0.12799998995E+03  0.17770000000E+01 0.  1.
         16    1    6    6    0    0  0.95021447108E+02 -0.50285322113E+02  0.16608342288E+03  0.19784183679E+03  0.00000000000E+00 0. -1.
         -5    1    3    3    0  503 -0.14428948479E+03  0.19796744002E+02  0.17125849059E+02  0.14671997547E+03  0.47000000000E+01 0.  1.
         15    1    4    4    0    0 -0.46771477416E+02 -0.19048066235E+02 -0.36871683977E+02  0.62554606027E+02  0.17770000000E+01 0. -1.
        -16    1    4    4    0    0  0.23523799875E+02 -0.17133459032E+02  0.13748471016E+02  0.32186100016E+02  0.00000000000E+00 0.  1.
<mgrwt>
<rscale>  2 0.24186097E+03</rscale>
<asrwt>0</asrwt>
<pdfrwt beam="1">  1       21 0.67555107E-01 0.24201943E+03</pdfrwt>
<pdfrwt beam="2">  1       21 0.26045153E-01 0.24201943E+03</pdfrwt>
<totfact> 0.27343656E+04</totfact>
</mgrwt>
</event>
<event>
12    2  0.4090627E-002  0.2389047E+03  0.7546771E-02  0.1120544E+00
         21   -1    0    0  501  502  0.00000000000E+00  0.00000000000E+00  0.11141083968E+03  0.11141083968E+03  0.00000000000E+00 0.  1.
         21   -1    0    0  502  503 -0.00000000000E+00 -0.00000000000E+00 -0.14569018142E+04  0.14569018142E+04  0.00000000000E+00 0.  1.
         -6    2    1    2    0  503 -0.17083986531E+02  0.16359080899E+03 -0.13042995649E+04  0.13259987975E+04  0.17326754003E+03 0.  0.
        -24    2    3    3    0    0  0.42010083773E+01  0.16482104167E+03 -0.80315417706E+03  0.82437806996E+03  0.85784298417E+02 0.  0.
          6    2    1    2  501    0  0.17083986531E+02 -0.16359080899E+03 -0.41191409563E+02  0.24231385639E+03  0.17310533613E+03 0.  0.
         24    2    5    5    0    0  0.12115231456E+02 -0.14290716440E+03  0.29706457285E+02  0.16814446106E+03  0.82588435683E+02 0.  0.
          5    1    5    5  501    0  0.49687550752E+01 -0.20683644584E+02 -0.70897866849E+02  0.74169395332E+02  0.47000000000E+01 0. -1.
        -15    1    6    6    0    0 -0.56008718199E+01 -0.12785965216E+03 -0.29879507212E+01  0.12802947315E+03  0.17770000000E+01 0.  1.
         16    1    6    6    0    0  0.17716103275E+02 -0.15047512241E+02  0.32694408007E+02  0.40114987907E+02  0.00000000000E+00 0. -1.
         -5    1    3    3    0  503 -0.21284994908E+02 -0.12302326833E+01 -0.50114538787E+03  0.50162072751E+03  0.47000000000E+01 0.  1.
         15    1    4    4    0    0 -0.37302181302E+02  0.70849278596E+02 -0.27978207623E+03  0.29101931365E+03  0.17770000000E+01 0. -1.
        -16    1    4    4    0    0  0.41503189679E+02  0.93971763077E+02 -0.52337210082E+03  0.53335875631E+03  0.00000000000E+00 0.  1.
<mgrwt>
<rscale>  2 0.23887529E+03</rscale>
<asrwt>0</asrwt>
<pdfrwt beam="1">  1       21 0.17140129E-01 0.23890470E+03</pdfrwt>
<pdfrwt beam="2">  1       21 0.22413875E+00 0.23890470E+03</pdfrwt>
<totfact> 0.27899130E+03</totfact>
</mgrwt>
</event>
<event>
12    2  0.4090627E-002  0.1886615E+03  0.7546771E-02  0.1159827E+00
         21   -1    0    0  503  502  0.00000000000E+00  0.00000000000E+00  0.19093150339E+04  0.19093150339E+04  0.00000000000E+00 0.  1.
         21   -1    0    0  501  503 -0.00000000000E+00 -0.00000000000E+00 -0.27701190345E+02  0.27701190345E+02  0.00000000000E+00 0.  1.
          6    2    1    2  501    0  0.63254310277E+02  0.27251286704E+02  0.38379404388E+03  0.42736151978E+03  0.17491786664E+03 0.  0.
         24    2    3    3    0    0  0.76541395782E+02 -0.97857466915E+01  0.36832048022E+03  0.38481966208E+03  0.80447809587E+02 0.  0.
         -6    2    1    2    0  502 -0.63254310277E+02 -0.27251286704E+02  0.14978197997E+04  0.15096547045E+04  0.17564006957E+03 0.  0.
        -24    2    5    5    0    0  0.33341407810E+01 -0.63969621584E+02  0.61205526293E+03  0.62061974313E+03  0.80336739432E+02 0.  0.
          5    1    3    3  501    0 -0.13287085505E+02  0.37037033396E+02  0.15473563665E+02  0.42541857699E+02  0.47000000000E+01 0. -1.
        -15    1    4    4    0    0  0.40525528645E+02 -0.19496170319E+02  0.64108609327E+02  0.78329372830E+02  0.17770000000E+01 0.  1.
         16    1    4    4    0    0  0.36015867137E+02  0.97104236273E+01  0.30421187089E+03  0.30649028925E+03  0.00000000000E+00 0. -1.
         -5    1    5    5    0  502 -0.66588451058E+02  0.36718334880E+02  0.88576453677E+03  0.88903496137E+03  0.47000000000E+01 0.  1.
         15    1    6    6    0    0  0.31102663098E+02 -0.32215775282E+02  0.47771355078E+03  0.47981103172E+03  0.17770000000E+01 0. -1.
        -16    1    6    6    0    0 -0.27768522317E+02 -0.31753846302E+02  0.13434171214E+03  0.14080871141E+03  0.00000000000E+00 0.  1.
<mgrwt>
<rscale>  2 0.18849327E+03</rscale>
<asrwt>0</asrwt>
<pdfrwt beam="1">  1       21 0.29374067E+00 0.18866153E+03</pdfrwt>
<pdfrwt beam="2">  1       21 0.42617231E-02 0.18866153E+03</pdfrwt>
<totfact> 0.13120190E+04</totfact>
</mgrwt>
</event>
<event>
12    2  0.4090627E-002  0.1998787E+03  0.7546771E-02  0.1152093E+00
         21   -1    0    0  503  502  0.00000000000E+00  0.00000000000E+00  0.45397365260E+03  0.45397365260E+03  0.00000000000E+00 0.  1.
         21   -1    0    0  501  503 -0.00000000000E+00 -0.00000000000E+00 -0.83557408037E+02  0.83557408037E+02  0.00000000000E+00 0.  1.
          6    2    1    2  501    0 -0.30104570772E+02 -0.95203825782E+02  0.19719200278E+03  0.28077784138E+03  0.17315154236E+03 0.  0.
         24    2    3    3    0    0 -0.78930092267E+02 -0.74852966415E+02  0.93596738524E+02  0.16436410592E+03  0.80139152772E+02 0.  0.
         -6    2    1    2    0  502  0.30104570772E+02  0.95203825782E+02  0.17322424178E+03  0.25675321926E+03  0.16107614359E+03 0.  0.
        -24    2    5    5    0    0  0.18945821789E+01  0.66888151903E+02  0.18736799354E+03  0.21409508337E+03  0.79071647355E+02 0.  0.
          5    1    3    3  501    0  0.48825521495E+02 -0.20350859367E+02  0.10359526426E+03  0.11641373545E+03  0.47000000000E+01 0. -1.
        -15    1    4    4    0    0 -0.25043936929E+02 -0.71635679647E+02  0.76425722231E+02  0.10771684234E+03  0.17770000000E+01 0.  1.
         16    1    4    4    0    0 -0.53886155338E+02 -0.32172867680E+01  0.17171016293E+02  0.56647263586E+02  0.00000000000E+00 0. -1.
         -5    1    5    5    0  502  0.28209988594E+02  0.28315673879E+02 -0.14143751755E+02  0.42658135887E+02  0.47000000000E+01 0.  1.
         15    1    6    6    0    0 -0.32410825797E+02  0.58241324770E+02  0.10409074532E+03  0.12361454013E+03  0.17770000000E+01 0. -1.
        -16    1    6    6    0    0  0.34305407976E+02  0.86468271326E+01  0.83277248215E+02  0.90480543246E+02  0.00000000000E+00 0.  1.
<mgrwt>
<rscale>  2 0.19723560E+03</rscale>
<asrwt>0</asrwt>
<pdfrwt beam="1">  1       21 0.69842099E-01 0.19987874E+03</pdfrwt>
<pdfrwt beam="2">  1       21 0.12854986E-01 0.19987874E+03</pdfrwt>
<totfact> 0.96294616E+04</totfact>
</mgrwt>
</event>
<event>
12    2  0.4090627E-002  0.2274989E+03  0.7546771E-02  0.1128497E+00
         21   -1    0    0  503  502  0.00000000000E+00  0.00000000000E+00  0.27297953793E+03  0.27297953793E+03  0.00000000000E+00 0.  1.
         21   -1    0    0  501  503 -0.00000000000E+00 -0.00000000000E+00 -0.19375561879E+03  0.19375561879E+03  0.00000000000E+00 0. -1.
          6    2    1    2  501    0 -0.15120835909E+02  0.14315950263E+03  0.37909064078E+01  0.22705643474E+03  0.17554763090E+03 0.  0.
         24    2    3    3    0    0 -0.14066147494E+02  0.50790934855E+02  0.64833133810E+02  0.11623537083E+03  0.80806872372E+02 0.  0.
         -6    2    1    2    0  502  0.15120835909E+02 -0.14315950263E+03  0.75433012736E+02  0.23967872198E+03  0.17616034595E+03 0.  0.
        -24    2    5    5    0    0  0.28189817150E+02 -0.75003304366E+02  0.11603333077E+03  0.15913965408E+03  0.73766755361E+02 0.  0.
          5    1    3    3  501    0 -0.10546884145E+01  0.92368567778E+02 -0.61042227402E+02  0.11082106392E+03  0.47000000000E+01 0. -1.
        -15    1    4    4    0    0 -0.17242194291E+01 -0.71552363300E+01  0.55792143429E+02  0.56303564158E+02  0.17770000000E+01 0.  1.
         16    1    4    4    0    0 -0.12341928065E+02  0.57946171184E+02  0.90409903816E+01  0.59931806667E+02  0.00000000000E+00 0. -1.
         -5    1    5    5    0  502 -0.13068981241E+02 -0.68156198266E+02 -0.40600318032E+02  0.80539067893E+02  0.47000000000E+01 0.  1.
         15    1    6    6    0    0  0.14868462211E+02 -0.52369622840E+02  0.17567144058E+02  0.57231205162E+02  0.17770000000E+01 0. -1.
        -16    1    6    6    0    0  0.13321354939E+02 -0.22633681526E+02  0.98466186709E+02  0.10190844892E+03  0.00000000000E+00 0.  1.
<mgrwt>
<rscale>  2 0.22738028E+03</rscale>
<asrwt>0</asrwt>
<pdfrwt beam="1">  1       21 0.41996852E-01 0.22749890E+03</pdfrwt>
<pdfrwt beam="2">  1       21 0.29808557E-01 0.22749890E+03</pdfrwt>
<totfact> 0.57967750E+04</totfact>
</mgrwt>
</event>
<event>
12    2  0.4090627E-002  0.2213780E+03  0.7546771E-02  0.1132943E+00
         21   -1    0    0  501  502  0.00000000000E+00  0.00000000000E+00  0.51342387522E+03  0.51342387522E+03  0.00000000000E+00 0. -1.
         21   -1    0    0  502  503 -0.00000000000E+00 -0.00000000000E+00 -0.10475752932E+03  0.10475752932E+03  0.00000000000E+00 0.  1.
         -6    2    1    2    0  503  0.12899508940E+03  0.46346467561E+02  0.11108064964E+03  0.24728324635E+03  0.17326963108E+03 0.  0.
        -24    2    3    3    0    0  0.11927335960E+03 -0.23039977692E+01  0.22898168170E+02  0.14599346480E+03  0.80983473271E+02 0.  0.
          6    2    1    2  501    0 -0.12899508940E+03 -0.46346467561E+02  0.29758569626E+03  0.37089815819E+03  0.17384035487E+03 0.  0.
         24    2    5    5    0    0 -0.87074786907E+02 -0.56150928593E+02  0.29719747530E+03  0.32758903752E+03  0.90847635526E+02 0.  0.
          5    1    5    5  501    0 -0.41920302497E+02  0.98044610316E+01  0.38822095911E+00  0.43309120668E+02  0.47000000000E+01 0. -1.
        -15    1    6    6    0    0  0.16299462456E+01  0.53303310686E+01  0.11977725556E+03  0.11992004766E+03  0.17770000000E+01 0.  1.
         16    1    6    6    0    0 -0.88704733152E+02 -0.61481259662E+02  0.17742021974E+03  0.20766898985E+03  0.00000000000E+00 0. -1.
         -5    1    3    3    0  503  0.97217297984E+01  0.48650465331E+02  0.88182481470E+02  0.10128978154E+03  0.47000000000E+01 0.  1.
         15    1    4    4    0    0  0.93024330031E+02  0.31172374621E+02  0.30550624269E+02  0.10277033273E+03  0.17770000000E+01 0. -1.
        -16    1    4    4    0    0  0.26249029574E+02 -0.33476372390E+02 -0.76524560991E+01  0.43223132075E+02  0.00000000000E+00 0.  1.
<mgrwt>
<rscale>  2 0.22126589E+03</rscale>
<asrwt>0</asrwt>
<pdfrwt beam="1">  1       21 0.78988287E-01 0.22137795E+03</pdfrwt>
<pdfrwt beam="2">  1       21 0.16116543E-01 0.22137795E+03</pdfrwt>
<totfact> 0.48024386E+04</totfact>
</mgrwt>
</event>
<event>
12    2  0.4090627E-002  0.2302183E+03  0.7546771E-02  0.1127058E+00
         21   -1    0    0  503  502  0.00000000000E+00  0.00000000000E+00  0.13381200134E+04  0.13381200134E+04  0.00000000000E+00 0. -1.
         21   -1    0    0  501  503 -0.00000000000E+00 -0.00000000000E+00 -0.28686505033E+03  0.28686505033E+03  0.00000000000E+00 0.  1.
          6    2    1    2  501    0 -0.15128259051E+03  0.28582817243E+01 -0.22902691367E+03  0.32473649391E+03  0.17351043577E+03 0.  0.
         24    2    3    3    0    0 -0.95111633549E+02  0.69094572749E+02 -0.17255076498E+03  0.22103467123E+03  0.72541550658E+02 0.  0.
         -6    2    1    2    0  502  0.15128259051E+03 -0.28582817243E+01  0.12802818767E+04  0.13002485698E+04  0.16920421825E+03 0.  0.
        -24    2    5    5    0    0  0.82749149852E+02  0.60849664884E+02  0.85513141366E+03  0.86489751469E+03  0.79043486651E+02 0.  0.
          5    1    3    3  501    0 -0.56170956964E+02 -0.66236291025E+02 -0.56476148694E+02  0.10370182268E+03  0.47000000000E+01 0. -1.
        -15    1    4    4    0    0 -0.94250368576E+01  0.46267016189E+02 -0.79617644246E+02  0.92582909390E+02  0.17770000000E+01 0.  1.
         16    1    4    4    0    0 -0.85686596692E+02  0.22827556560E+02 -0.92933120733E+02  0.12845176184E+03  0.00000000000E+00 0. -1.
         -5    1    5    5    0  502  0.68533440661E+02 -0.63707946608E+02  0.42515046308E+03  0.43535105514E+03  0.47000000000E+01 0.  1.
         15    1    6    6    0    0  0.62822346960E+02 -0.16142557318E+01  0.36070086625E+03  0.36613867010E+03  0.17770000000E+01 0. -1.
        -16    1    6    6    0    0  0.19926802892E+02  0.62463920616E+02  0.49443054740E+03  0.49875884459E+03  0.00000000000E+00 0.  1.
<mgrwt>
<rscale>  2 0.22940705E+03</rscale>
<asrwt>0</asrwt>
<pdfrwt beam="1">  1       21 0.20586461E+00 0.23021829E+03</pdfrwt>
<pdfrwt beam="2">  1       21 0.44133085E-01 0.23021829E+03</pdfrwt>
<totfact> 0.58245114E+02</totfact>
</mgrwt>
</event>
<event>
12    2  0.4090627E-002  0.1953963E+03  0.7546771E-02  0.1155199E+00
         21   -1    0    0  501  502  0.00000000000E+00  0.00000000000E+00  0.39989645856E+02  0.39989645856E+02  0.00000000000E+00 0.  1.
         21   -1    0    0  502  503 -0.00000000000E+00 -0.00000000000E+00 -0.10759828477E+04  0.10759828477E+04  0.00000000000E+00 0. -1.
         -6    2    1    2    0  503  0.62066108267E+02 -0.40443337603E+02 -0.73724907293E+03  0.76270303673E+03  0.18080890838E+03 0.  0.
        -24    2    3    3    0    0  0.71073921826E+02 -0.90585129557E+02 -0.46976935552E+03  0.49037450493E+03  0.80788239497E+02 0.  0.
          6    2    1    2  501    0 -0.62066108267E+02  0.40443337603E+02 -0.29874412891E+03  0.35326945682E+03  0.17338797309E+03 0.  0.
         24    2    5    5    0    0  0.30617397979E+02 -0.98477647517E+00 -0.11821696072E+03  0.14610124154E+03  0.80199302587E+02 0.  0.
          5    1    5    5  501    0 -0.92683506246E+02  0.41428114078E+02 -0.18052716819E+03  0.20716821527E+03  0.47000000000E+01 0. -1.
        -15    1    6    6    0    0  0.22688846126E+02 -0.18752158438E+02 -0.12265106150E+03  0.12614621596E+03  0.17770000000E+01 0.  1.
         16    1    6    6    0    0  0.79285518532E+01  0.17767381963E+02  0.44341007826E+01  0.19955025584E+02  0.00000000000E+00 0. -1.
         -5    1    3    3    0  503 -0.90078135592E+01  0.50141791954E+02 -0.26747971741E+03  0.27232853180E+03  0.47000000000E+01 0.  1.
         15    1    4    4    0    0  0.43849159627E+02 -0.70131788321E+02 -0.43058919195E+03  0.43846485206E+03  0.17770000000E+01 0. -1.
        -16    1    4    4    0    0  0.27224762200E+02 -0.20453341236E+02 -0.39180163568E+02  0.51909652876E+02  0.00000000000E+00 0.  1.
<mgrwt>
<rscale>  2 0.19366189E+03</rscale>
<asrwt>0</asrwt>
<pdfrwt beam="1">  1       21 0.61522534E-02 0.19539633E+03</pdfrwt>
<pdfrwt beam="2">  1       21 0.16553582E+00 0.19539633E+03</pdfrwt>
<totfact> 0.43282387E+04</totfact>
</mgrwt>
</event>
<event>
12    2  0.4090627E-002  0.1778192E+03  0.7546771E-02  0.1169933E+00
         21   -1    0    0  501  502  0.00000000000E+00  0.00000000000E+00  0.21862134434E+02  0.21862134434E+02  0.00000000000E+00 0.  1.
         21   -1    0    0  502  503 -0.00000000000E+00 -0.00000000000E+00 -0.14895221295E+04  0.14895221295E+04  0.00000000000E+00 0. -1.
         -6    2    1    2    0  503  0.32043479476E+02  0.27711439159E+02 -0.86263451638E+03  0.88076909855E+03  0.17268812253E+03 0.  0.
        -24    2    3    3    0    0  0.75719707152E+02  0.50765352051E+02 -0.70753543529E+03  0.71792896001E+03  0.80653607516E+02 0.  0.
          6    2    1    2  501    0 -0.32043479476E+02 -0.27711439159E+02 -0.60502547872E+03  0.63061516542E+03  0.17269901136E+03 0.  0.
         24    2    5    5    0    0 -0.81853283239E+02 -0.88123332225E+01 -0.31250210360E+03  0.33324299499E+03  0.81337025780E+02 0.  0.
          5    1    5    5  501    0  0.49809803763E+02 -0.18899105936E+02 -0.29252337512E+03  0.29737217043E+03  0.47000000000E+01 0. -1.
        -15    1    6    6    0    0  0.14050299253E+01  0.37480259112E+01  0.38783020157E+01  0.58498515235E+01  0.17770000000E+01 0.  1.
         16    1    6    6    0    0 -0.83258313164E+02 -0.12560359134E+02 -0.31638040561E+03  0.32739314347E+03  0.00000000000E+00 0. -1.
         -5    1    3    3    0  503 -0.43676227676E+02 -0.23053912893E+02 -0.15509908109E+03  0.16284013854E+03  0.47000000000E+01 0.  1.
         15    1    4    4    0    0  0.42841151734E+02 -0.13405623938E+02 -0.18161521175E+03  0.18708906410E+03  0.17770000000E+01 0. -1.
        -16    1    4    4    0    0  0.32878555418E+02  0.64170975989E+02 -0.52592022353E+03  0.53083989591E+03  0.00000000000E+00 0.  1.
<mgrwt>
<rscale>  2 0.17781653E+03</rscale>
<asrwt>0</asrwt>
<pdfrwt beam="1">  1       21 0.33634052E-02 0.17781917E+03</pdfrwt>
<pdfrwt beam="2">  1       21 0.22915726E+00 0.17781917E+03</pdfrwt>
<totfact> 0.46825271E+04</totfact>
</mgrwt>
</event>
<event>
12    2  0.4090627E-002  0.2492960E+03  0.7546771E-02  0.1113909E+00
         21   -1    0    0  503  502  0.00000000000E+00  0.00000000000E+00  0.30373570918E+03  0.30373570918E+03  0.00000000000E+00 0. -1.
         21   -1    0    0  501  503 -0.00000000000E+00 -0.00000000000E+00 -0.29803834940E+03  0.29803834940E+03  0.00000000000E+00 0. -1.
          6    2    1    2  501    0 -0.16540867156E+03  0.69376420705E+02 -0.16635279601E+03  0.29887180329E+03  0.17169154227E+03 0.  0.
         24    2    3    3    0    0 -0.39777583123E+02  0.63090607814E+02 -0.11804799274E+03  0.16404552305E+03  0.86098339873E+02 0.  0.
         -6    2    1    2    0  502  0.16540867156E+03 -0.69376420705E+02  0.17205015579E+03  0.30290225528E+03  0.17313406299E+03 0.  0.
        -24    2    5    5    0    0  0.14895078853E+03 -0.85885230565E+02  0.19324471429E+03  0.27104786741E+03  0.80998867838E+02 0.  0.
          5    1    3    3  501    0 -0.12563108844E+03  0.62858128906E+01 -0.48304803266E+02  0.13482628024E+03  0.47000000000E+01 0. -1.
        -15    1    4    4    0    0  0.21515705392E+01 -0.64146968555E+01  0.10139545582E+02  0.12318510671E+02  0.17770000000E+01 0.  1.
         16    1    4    4    0    0 -0.41929153662E+02  0.69505304670E+02 -0.12818753832E+03  0.15172701238E+03  0.00000000000E+00 0. -1.
         -5    1    5    5    0  502  0.16457883029E+02  0.16508809860E+02 -0.21194558499E+02  0.31854387873E+02  0.47000000000E+01 0.  1.
         15    1    6    6    0    0  0.90616899638E+02 -0.56001760311E+01  0.94019403896E+02  0.13071186063E+03  0.17770000000E+01 0. -1.
        -16    1    6    6    0    0  0.58333888895E+02 -0.80285054534E+02  0.99225310392E+02  0.14033600677E+03  0.00000000000E+00 0.  1.
<mgrwt>
<rscale>  2 0.24904576E+03</rscale>
<asrwt>0</asrwt>
<pdfrwt beam="1">  1       21 0.46728571E-01 0.24929605E+03</pdfrwt>
<pdfrwt beam="2">  1       21 0.45852054E-01 0.24929605E+03</pdfrwt>
<totfact> 0.19379478E+04</totfact>
</mgrwt>
</event>
<event>
12    2  0.4090627E-002  0.2478491E+03  0.7546771E-02  0.1115961E+00
         21   -1    0    0  503  502  0.00000000000E+00  0.00000000000E+00  0.98499306292E+03  0.98499306292E+03  0.00000000000E+00 0.  1.
         21   -1    0    0  501  503 -0.00000000000E+00 -0.00000000000E+00 -0.60430618703E+02  0.60430618703E+02  0.00000000000E+00 0.  1.
          6    2    1    2  501    0  0.20814728621E+02  0.17658171298E+03  0.45552120796E+03  0.51858341192E+03  0.17266971341E+03 0.  0.
         24    2    3    3    0    0  0.21795468109E+02  0.13835175926E+03  0.18757176725E+03  0.24787788189E+03  0.81510887253E+02 0.  0.
         -6    2    1    2    0  502 -0.20814728621E+02 -0.17658171298E+03  0.46904123625E+03  0.52684026970E+03  0.16107958960E+03 0.  0.
        -24    2    5    5    0    0 -0.26379392204E+02 -0.60258187616E+02  0.11781822827E+03  0.15678376135E+03  0.79831644126E+02 0.  0.
          5    1    3    3  501    0 -0.98073948818E+00  0.38229953721E+02  0.26794944071E+03  0.27070553003E+03  0.47000000000E+01 0. -1.
        -15    1    4    4    0    0  0.51552979956E+02  0.69491685090E+02  0.90823471166E+02  0.12545463197E+03  0.17770000000E+01 0.  1.
         16    1    4    4    0    0 -0.29757511846E+02  0.68860074170E+02  0.96748296088E+02  0.12242324992E+03  0.00000000000E+00 0. -1.
         -5    1    5    5    0  502  0.55646635827E+01 -0.11632352536E+03  0.35122300798E+03  0.37005650835E+03  0.47000000000E+01 0.  1.
         15    1    6    6    0    0  0.53249922399E+01  0.12852690607E+02  0.50672506991E+02  0.52577636805E+02  0.17770000000E+01 0. -1.
        -16    1    6    6    0    0 -0.31704384444E+02 -0.73110878223E+02  0.67145721279E+02  0.10420612455E+03  0.00000000000E+00 0.  1.
<mgrwt>
<rscale>  2 0.24584227E+03</rscale>
<asrwt>0</asrwt>
<pdfrwt beam="1">  1       21 0.15153738E+00 0.24784912E+03</pdfrwt>
<pdfrwt beam="2">  1       21 0.92970190E-02 0.24784912E+03</pdfrwt>
<totfact> 0.25988855E+04</totfact>
</mgrwt>
</event>
<event>
12    2  0.4090627E-002  0.1965892E+03  0.7546771E-02  0.1152791E+00
         21   -1    0    0  503  502  0.00000000000E+00  0.00000000000E+00  0.16863080371E+03  0.16863080371E+03  0.00000000000E+00 0.  1.
         21   -1    0    0  501  503 -0.00000000000E+00 -0.00000000000E+00 -0.23314542951E+03  0.23314542951E+03  0.00000000000E+00 0.  1.
          6    2    1    2  501    0 -0.58383874424E+02  0.77938978478E+02 -0.60917775997E+02  0.20581130109E+03  0.17077515939E+03 0.  0.
         24    2    3    3    0    0 -0.29516709797E+02  0.68839151835E+02 -0.10545111862E+03  0.15176105924E+03  0.79381456900E+02 0.  0.
         -6    2    1    2    0  502  0.58383874424E+02 -0.77938978478E+02 -0.35968498066E+01  0.19596493213E+03  0.17001810533E+03 0.  0.
        -24    2    5    5    0    0  0.83703104408E+02 -0.10271315078E+03  0.19228122560E+02  0.15356337103E+03  0.75204967894E+02 0.  0.
          5    1    3    3  501    0 -0.28867164627E+02  0.90998266430E+01  0.44533342627E+02  0.54050241850E+02  0.47000000000E+01 0. -1.
        -15    1    4    4    0    0 -0.58633708443E+01 -0.45943009118E+01 -0.63468591808E+02  0.63928918289E+02  0.17770000000E+01 0.  1.
         16    1    4    4    0    0 -0.23653338953E+02  0.73433452746E+02 -0.41982526816E+02  0.87832140949E+02  0.00000000000E+00 0. -1.
         -5    1    5    5    0  502 -0.25319229985E+02  0.24774172299E+02 -0.22824972366E+02  0.42401561099E+02  0.47000000000E+01 0.  1.
         15    1    6    6    0    0 -0.42130088646E+01 -0.15608093923E+02 -0.18063946850E+02  0.24306911453E+02  0.17770000000E+01 0. -1.
        -16    1    6    6    0    0  0.87916113273E+02 -0.87105056854E+02  0.37292069409E+02  0.12925645958E+03  0.00000000000E+00 0.  1.
<mgrwt>
<rscale>  2 0.19642468E+03</rscale>
<asrwt>0</asrwt>
<pdfrwt beam="1">  1       21 0.25943201E-01 0.19658921E+03</pdfrwt>
<pdfrwt beam="2">  1       21 0.35868527E-01 0.19658921E+03</pdfrwt>
<totfact> 0.10560153E+05</totfact>
</mgrwt>
</event>
<event>
12    2  0.4090627E-002  0.3032916E+03  0.7546771E-02  0.1084084E+00
         21   -1    0    0  501  502  0.00000000000E+00  0.00000000000E+00  0.22199876998E+03  0.22199876998E+03  0.00000000000E+00 0.  1.
         21   -1    0    0  502  503 -0.00000000000E+00 -0.00000000000E+00 -0.62646776207E+03  0.62646776207E+03  0.00000000000E+00 0. -1.
         -6    2    1    2    0  503  0.24642759798E+03 -0.10628674439E+01 -0.45295476148E+03  0.54511818081E+03  0.17679967299E+03 0.  0.
        -24    2    3    3    0    0  0.19751526018E+03  0.62790767137E+02 -0.34260992629E+03  0.40848811058E+03  0.80783763536E+02 0.  0.
          6    2    1    2  501    0 -0.24642759798E+03  0.10628674439E+01  0.48485769389E+02  0.30334835125E+03  0.17012249010E+03 0.  0.
         24    2    5    5    0    0 -0.17309937466E+03 -0.62096353071E+02  0.49964104072E+02  0.20644432169E+03  0.79394557056E+02 0.  0.
          5    1    5    5  501    0 -0.73328223320E+02  0.63159220515E+02 -0.14783346825E+01  0.96904029559E+02  0.47000000000E+01 0. -1.
        -15    1    6    6    0    0 -0.32703637404E+02 -0.49062029909E+02  0.20073100690E+02  0.62311297359E+02  0.17770000000E+01 0.  1.
         16    1    6    6    0    0 -0.14039573725E+03 -0.13034323162E+02  0.29891003381E+02  0.14413302433E+03  0.00000000000E+00 0. -1.
         -5    1    3    3    0  503  0.48912337799E+02 -0.63853634580E+02 -0.11034483519E+03  0.13663007023E+03  0.47000000000E+01 0.  1.
         15    1    4    4    0    0  0.13239712149E+03  0.47662522309E+01 -0.23697151403E+03  0.27149653982E+03  0.17770000000E+01 0. -1.
        -16    1    4    4    0    0  0.65118138685E+02  0.58024514906E+02 -0.10563841226E+03  0.13699157076E+03  0.00000000000E+00 0.  1.
<mgrwt>
<rscale>  2 0.30232623E+03</rscale>
<asrwt>0</asrwt>
<pdfrwt beam="1">  1       21 0.34153657E-01 0.30329163E+03</pdfrwt>
<pdfrwt beam="2">  1       21 0.96379655E-01 0.30329163E+03</pdfrwt>
<totfact> 0.69181770E+03</totfact>
</mgrwt>
</event>
<event>
12    2  0.4090627E-002  0.2157168E+03  0.7546771E-02  0.1137851E+00
         21   -1    0    0  501  502  0.00000000000E+00  0.00000000000E+00  0.37446385365E+03  0.37446385365E+03  0.00000000000E+00 0.  1.
         21   -1    0    0  502  503 -0.00000000000E+00 -0.00000000000E+00 -0.13733154143E+03  0.13733154143E+03  0.00000000000E+00 0.  1.
         -6    2    1    2    0  503 -0.54046748015E+02 -0.11129218074E+03  0.34245172036E+02  0.21841814104E+03  0.17671092796E+03 0.  0.
        -24    2    3    3    0    0  0.19314239449E+01 -0.12546703073E+02  0.61524263755E+02  0.10158294111E+03  0.79829247387E+02 0.  0.
          6    2    1    2  501    0  0.54046748015E+02  0.11129218074E+03  0.20288714018E+03  0.29337725404E+03  0.17204656659E+03 0.  0.
         24    2    5    5    0    0  0.54748415133E+02  0.12003539958E+02  0.14738897042E+03  0.17953146636E+03  0.85828694982E+02 0.  0.
          5    1    5    5  501    0 -0.70166711716E+00  0.99288640785E+02  0.55498169761E+02  0.11384578768E+03  0.47000000000E+01 0. -1.
        -15    1    6    6    0    0  0.55625068066E+02  0.40627130495E+02  0.12662521535E+03  0.14415899147E+03  0.17770000000E+01 0.  1.
         16    1    6    6    0    0 -0.87665293382E+00 -0.28623590538E+02  0.20763755070E+02  0.35372474895E+02  0.00000000000E+00 0. -1.
         -5    1    3    3    0  503 -0.55978171960E+02 -0.98745477670E+02 -0.27279091719E+02  0.11683519992E+03  0.47000000000E+01 0.  1.
         15    1    4    4    0    0  0.30371846702E+02 -0.11155658938E+02 -0.14848809151E+01  0.32438563451E+02  0.17770000000E+01 0. -1.
        -16    1    4    4    0    0 -0.28440422757E+02 -0.13910441356E+01  0.63009144670E+02  0.69144377663E+02  0.00000000000E+00 0.  1.
<mgrwt>
<rscale>  2 0.21475946E+03</rscale>
<asrwt>0</asrwt>
<pdfrwt beam="1">  1       21 0.57609823E-01 0.21571683E+03</pdfrwt>
<pdfrwt beam="2">  1       21 0.21127930E-01 0.21571683E+03</pdfrwt>
<totfact> 0.58253552E+04</totfact>
</mgrwt>
</event>
<event>
12    2  0.4090627E-002  0.4510260E+03  0.7546771E-02  0.1027681E+00
         21   -1    0    0  503  502  0.00000000000E+00  0.00000000000E+00  0.18977783597E+03  0.18977783597E+03  0.00000000000E+00 0. -1.
         21   -1    0    0  501  503 -0.00000000000E+00 -0.00000000000E+00 -0.12428299300E+04  0.12428299300E+04  0.00000000000E+00 0.  1.
          6    2    1    2  501    0 -0.37693730909E+03 -0.16812578085E+03 -0.79684293928E+03  0.91389055034E+03  0.17288509177E+03 0.  0.
         24    2    3    3    0    0 -0.24149569278E+03 -0.42889969310E+02 -0.39702150646E+03  0.47354102092E+03  0.80344899057E+02 0.  0.
         -6    2    1    2    0  502  0.37693730909E+03  0.16812578085E+03 -0.25620915473E+03  0.51871721561E+03  0.18186919923E+03 0.  0.
        -24    2    5    5    0    0  0.31013650425E+03  0.89887254255E+02 -0.13375237319E+03  0.35871294093E+03  0.80752132539E+02 0.  0.
          5    1    3    3  501    0 -0.13544161632E+03 -0.12523581154E+03 -0.39982143282E+03  0.44034952943E+03  0.47000000000E+01 0. -1.
        -15    1    4    4    0    0 -0.10556655925E+03  0.21188765257E+02 -0.15818069215E+03  0.19135713026E+03  0.17770000000E+01 0.  1.
         16    1    4    4    0    0 -0.13592913353E+03 -0.64078734567E+02 -0.23884081431E+03  0.28218389066E+03  0.00000000000E+00 0. -1.
         -5    1    5    5    0  502  0.66800804847E+02  0.78238526598E+02 -0.12245678154E+03  0.16000427469E+03  0.47000000000E+01 0.  1.
         15    1    6    6    0    0  0.16659192999E+03  0.71563586010E+02 -0.10996770731E+03  0.21206195406E+03  0.17770000000E+01 0. -1.
        -16    1    6    6    0    0  0.14354457426E+03  0.18323668245E+02 -0.23784665877E+02  0.14665098687E+03  0.00000000000E+00 0.  1.
<mgrwt>
<rscale>  2 0.45013654E+03</rscale>
<asrwt>0</asrwt>
<pdfrwt beam="1">  1       21 0.29196591E-01 0.45102596E+03</pdfrwt>
<pdfrwt beam="2">  1       21 0.19120460E+00 0.45102596E+03</pdfrwt>
<totfact> 0.14489182E+03</totfact>
</mgrwt>
</event>
<event>
12    2  0.4090627E-002  0.1795581E+03  0.7546771E-02  0.1168360E+00
         21   -1    0    0  501  502  0.00000000000E+00  0.00000000000E+00  0.15965403449E+03  0.15965403449E+03  0.00000000000E+00 0. -1.
         21   -1    0    0  502  503 -0.00000000000E+00 -0.00000000000E+00 -0.54513332339E+03  0.54513332339E+03  0.00000000000E+00 0. -1.
         -6    2    1    2    0  503 -0.45817406015E+02 -0.52314414245E+01 -0.47269010193E+03  0.50564516647E+03  0.17353529679E+03 0.  0.
        -24    2    3    3    0    0 -0.19280789024E+02 -0.18061746417E+02 -0.46794911227E+03  0.47542305948E+03  0.79704067067E+02 0.  0.
          6    2    1    2  501    0  0.45817406015E+02  0.52314414245E+01  0.87210813033E+02  0.19914219142E+03  0.17298925926E+03 0.  0.
         24    2    5    5    0    0  0.79008008760E+02  0.46684009854E+02  0.41786551764E+02  0.12910373732E+03  0.80622557998E+02 0.  0.
          5    1    5    5  501    0 -0.33190602744E+02 -0.41452568430E+02  0.45424261269E+02  0.70038454093E+02  0.47000000000E+01 0. -1.
        -15    1    6    6    0    0  0.28288205022E+02  0.42411112443E+02 -0.14681546072E+02  0.53081357614E+02  0.17770000000E+01 0.  1.
         16    1    6    6    0    0  0.50719803737E+02  0.42728974114E+01  0.56468097836E+02  0.76022379710E+02  0.00000000000E+00 0. -1.
         -5    1    3    3    0  503 -0.26536616992E+02  0.12830304992E+02 -0.47409896660E+01  0.30222106984E+02  0.47000000000E+01 0.  1.
         15    1    4    4    0    0 -0.45866229798E+02  0.57699211772E+01 -0.21148898639E+03  0.21648961204E+03  0.17770000000E+01 0. -1.
        -16    1    4    4    0    0  0.26585440775E+02 -0.23831667594E+02 -0.25646012587E+03  0.25893344744E+03  0.00000000000E+00 0.  1.
<mgrwt>
<rscale>  2 0.17942601E+03</rscale>
<asrwt>0</asrwt>
<pdfrwt beam="1">  1       21 0.24562159E-01 0.17955807E+03</pdfrwt>
<pdfrwt beam="2">  1       21 0.83866666E-01 0.17955807E+03</pdfrwt>
<totfact> 0.19511967E+04</totfact>
</mgrwt>
</event>
<event>
12    2  0.4090627E-002  0.1744450E+03  0.7546771E-02  0.1173536E+00
         21   -1    0    0  501  502  0.00000000000E+00  0.00000000000E+00  0.45009525627E+02  0.45009525627E+02  0.00000000000E+00 0.  1.
         21   -1    0    0  502  503 -0.00000000000E+00 -0.00000000000E+00 -0.14377800817E+04  0.14377800817E+04  0.00000000000E+00 0.  1.
         -6    2    1    2    0  503 -0.64000070163E+00 -0.16358300416E+02 -0.12364270844E+04  0.12485369088E+04  0.17269763779E+03 0.  0.
        -24    2    3    3    0    0 -0.14955271770E+02  0.50694018256E+02 -0.50658790556E+03  0.51546920570E+03  0.79269491717E+02 0.  0.
          6    2    1    2  501    0  0.64000070163E+00  0.16358300416E+02 -0.15634347166E+03  0.23425269848E+03  0.17367510478E+03 0.  0.
         24    2    5    5    0    0 -0.57558932938E+02 -0.23992324922E+02 -0.90230375830E+02  0.13725620224E+03  0.82517161335E+02 0.  0.
          5    1    5    5  501    0  0.58198933640E+02  0.40350625338E+02 -0.66113095831E+02  0.96996496237E+02  0.47000000000E+01 0. -1.
        -15    1    6    6    0    0 -0.75950326566E+02 -0.57749705801E+01 -0.57102663871E+02  0.95213834818E+02  0.17770000000E+01 0.  1.
         16    1    6    6    0    0  0.18391393628E+02 -0.18217354342E+02 -0.33127711959E+02  0.42042367421E+02  0.00000000000E+00 0. -1.
         -5    1    3    3    0  503  0.14315271068E+02 -0.67052318672E+02 -0.72983917881E+03  0.73306770311E+03  0.47000000000E+01 0.  1.
         15    1    4    4    0    0  0.31375059495E+02  0.30210531554E+02 -0.27233796828E+03  0.27580463606E+03  0.17770000000E+01 0. -1.
        -16    1    4    4    0    0 -0.46330331265E+02  0.20483486701E+02 -0.23424993728E+03  0.23966456964E+03  0.00000000000E+00 0.  1.
<mgrwt>
<rscale>  2 0.17420117E+03</rscale>
<asrwt>0</asrwt>
<pdfrwt beam="1">  1       21 0.69245418E-02 0.17444496E+03</pdfrwt>
<pdfrwt beam="2">  1       21 0.22119696E+00 0.17444496E+03</pdfrwt>
<totfact> 0.15486290E+04</totfact>
</mgrwt>
</event>
<event>
12    2  0.4090627E-002  0.2170722E+03  0.7546771E-02  0.1138068E+00
         21   -1    0    0  503  502  0.00000000000E+00  0.00000000000E+00  0.41997577636E+03  0.41997577636E+03  0.00000000000E+00 0.  1.
         21   -1    0    0  501  503 -0.00000000000E+00 -0.00000000000E+00 -0.11852610081E+03  0.11852610081E+03  0.00000000000E+00 0.  1.
          6    2    1    2  501    0  0.10527765416E+03  0.39876137424E+02  0.70026039612E+02  0.22808765907E+03  0.18559860773E+03 0.  0.
         24    2    3    3    0    0  0.58404198000E+02  0.81511432141E+01 -0.37976337812E+02  0.10606225319E+03  0.79558204091E+02 0.  0.
         -6    2    1    2    0  502 -0.10527765416E+03 -0.39876137424E+02  0.23142363594E+03  0.31041421810E+03  0.17357014930E+03 0.  0.
        -24    2    5    5    0    0 -0.73502440276E+02  0.43899398309E+02  0.12679134595E+03  0.17258094667E+03  0.79864709657E+02 0.  0.
          5    1    3    3  501    0  0.46873456161E+02  0.31724994210E+02  0.10800237742E+03  0.12202540588E+03  0.47000000000E+01 0. -1.
        -15    1    4    4    0    0  0.14536861575E+02 -0.25009199400E+02 -0.41883726401E+02  0.50933139166E+02  0.17770000000E+01 0.  1.
         16    1    4    4    0    0  0.43867336426E+02  0.33160342614E+02  0.39073885883E+01  0.55129114023E+02  0.00000000000E+00 0. -1.
         -5    1    5    5    0  502 -0.31775213885E+02 -0.83775535733E+02  0.10463228999E+03  0.13783327143E+03  0.47000000000E+01 0.  1.
         15    1    6    6    0    0 -0.20377011496E+02 -0.15410041418E+02  0.35484635383E+01  0.25854231694E+02  0.17770000000E+01 0. -1.
        -16    1    6    6    0    0 -0.53125428780E+02  0.59309439726E+02  0.12324288241E+03  0.14672671498E+03  0.00000000000E+00 0.  1.
<mgrwt>
<rscale>  2 0.21447848E+03</rscale>
<asrwt>0</asrwt>
<pdfrwt beam="1">  1       21 0.64611657E-01 0.21707219E+03</pdfrwt>
<pdfrwt beam="2">  1       21 0.18234785E-01 0.21707219E+03</pdfrwt>
<totfact> 0.59848106E+04</totfact>
</mgrwt>
</event>
<event>
12    2  0.4090627E-002  0.2079735E+03  0.7546771E-02  0.1143388E+00
         21   -1    0    0  503  502  0.00000000000E+00  0.00000000000E+00  0.84877445391E+02  0.84877445391E+02  0.00000000000E+00 0.  1.
         21   -1    0    0  501  503 -0.00000000000E+00 -0.00000000000E+00 -0.53471130036E+03  0.53471130036E+03  0.00000000000E+00 0. -1.
          6    2    1    2  501    0 -0.14436259622E+02  0.11326864592E+03 -0.15395408358E+03  0.25792892326E+03  0.17258991241E+03 0.  0.
         24    2    3    3    0    0 -0.15340667679E+02  0.16175501765E+02 -0.13481315830E+03  0.15885136972E+03  0.81007327262E+02 0.  0.
         -6    2    1    2    0  502  0.14436259622E+02 -0.11326864592E+03 -0.29587977139E+03  0.36165982249E+03  0.17382403846E+03 0.  0.
        -24    2    5    5    0    0  0.13495370723E+02  0.76753292358E+01 -0.88123334755E+02  0.12121615474E+03  0.81771623022E+02 0.  0.
          5    1    3    3  501    0  0.90440805653E+00  0.97093144151E+02 -0.19140925281E+02  0.99077553541E+02  0.47000000000E+01 0. -1.
        -15    1    4    4    0    0 -0.19963322265E+02 -0.30773416143E+02 -0.54852206350E+02  0.66011057009E+02  0.17770000000E+01 0.  1.
         16    1    4    4    0    0  0.46226545864E+01  0.46948917909E+02 -0.79960951948E+02  0.92840312713E+02  0.00000000000E+00 0. -1.
         -5    1    5    5    0  502  0.94088889886E+00 -0.12094397515E+03 -0.20775643664E+03  0.24044366775E+03  0.47000000000E+01 0.  1.
         15    1    6    6    0    0 -0.22792311714E+02 -0.24849367220E+02 -0.44121405694E+02  0.55559307897E+02  0.17770000000E+01 0. -1.
        -16    1    6    6    0    0  0.36287682438E+02  0.32524696456E+02 -0.44001929061E+02  0.65656846843E+02  0.00000000000E+00 0.  1.
<mgrwt>
<rscale>  2 0.20771545E+03</rscale>
<asrwt>0</asrwt>
<pdfrwt beam="1">  1       21 0.13058069E-01 0.20797353E+03</pdfrwt>
<pdfrwt beam="2">  1       21 0.82263275E-01 0.20797353E+03</pdfrwt>
<totfact> 0.64637669E+04</totfact>
</mgrwt>
</event>
<event>
12    2  0.4090627E-002  0.1947795E+03  0.7546771E-02  0.1155258E+00
         21   -1    0    0  503  502  0.00000000000E+00  0.00000000000E+00  0.39059501047E+03  0.39059501047E+03  0.00000000000E+00 0. -1.
         21   -1    0    0  501  503 -0.00000000000E+00 -0.00000000000E+00 -0.23350525948E+03  0.23350525948E+03  0.00000000000E+00 0.  1.
          6    2    1    2  501    0  0.50019945797E+02  0.72588271384E+02 -0.16155879712E+03  0.25306188073E+03  0.17368943097E+03 0.  0.
         24    2    3    3    0    0  0.41525425479E+02  0.52219098496E+02 -0.18993889462E+03  0.21680474331E+03  0.80475572838E+02 0.  0.
         -6    2    1    2    0  502 -0.50019945797E+02 -0.72588271384E+02  0.31864854811E+03  0.37103838923E+03  0.16840883869E+03 0.  0.
        -24    2    5    5    0    0  0.36443780747E+02 -0.28401832272E+02  0.18849103636E+03  0.20858382551E+03  0.76442973804E+02 0.  0.
          5    1    3    3  501    0  0.84945203187E+01  0.20369172888E+02  0.28380097499E+02  0.36257137417E+02  0.47000000000E+01 0. -1.
        -15    1    4    4    0    0  0.43191116059E+02  0.71571555665E+02 -0.13801745916E+03  0.16136894636E+03  0.17770000000E+01 0.  1.
         16    1    4    4    0    0 -0.16656905800E+01 -0.19352457168E+02 -0.51921435462E+02  0.55435796955E+02  0.00000000000E+00 0. -1.
         -5    1    5    5    0  502 -0.86463726544E+02 -0.44186439112E+02  0.13015751175E+03  0.16245456372E+03  0.47000000000E+01 0.  1.
         15    1    6    6    0    0 -0.20353936936E+02 -0.96514908847E+01  0.21445753860E+02  0.31153043394E+02  0.17770000000E+01 0. -1.
        -16    1    6    6    0    0  0.56797717682E+02 -0.18750341387E+02  0.16704528250E+03  0.17743078211E+03  0.00000000000E+00 0.  1.
<mgrwt>
<rscale>  2 0.19359534E+03</rscale>
<asrwt>0</asrwt>
<pdfrwt beam="1">  1       21 0.60091540E-01 0.19477954E+03</pdfrwt>
<pdfrwt beam="2">  1       21 0.35923886E-01 0.19477954E+03</pdfrwt>
<totfact> 0.19274469E+04</totfact>
</mgrwt>
</event>
<event>
12    2  0.4090627E-002  0.2334759E+03  0.7546771E-02  0.1124428E+00
         21   -1    0    0  501  502  0.00000000000E+00  0.00000000000E+00  0.11599261978E+04  0.11599261978E+04  0.00000000000E+00 0. -1.
         21   -1    0    0  502  503 -0.00000000000E+00 -0.00000000000E+00 -0.51606962980E+02  0.51606962980E+02  0.00000000000E+00 0. -1.
         -6    2    1    2    0  503 -0.14932323950E+03 -0.41591086387E+02  0.36699911296E+03  0.43431600941E+03  0.17295895119E+03 0.  0.
        -24    2    3    3    0    0 -0.95133447583E+02 -0.78124406411E+02  0.15825907515E+03  0.21553367373E+03  0.79088772404E+02 0.  0.
          6    2    1    2  501    0  0.14932323950E+03  0.41591086387E+02  0.74132012191E+03  0.77721715141E+03  0.17459590196E+03 0.  0.
         24    2    5    5    0    0  0.60048278520E+02  0.42713181929E+02  0.19726232571E+03  0.22586222638E+03  0.81676854102E+02 0.  0.
          5    1    5    5  501    0  0.89274960984E+02 -0.11220955423E+01  0.54405779620E+03  0.55135492504E+03  0.47000000000E+01 0. -1.
        -15    1    6    6    0    0  0.24553849821E+02  0.30117634709E+02  0.18048878651E+03  0.18463294193E+03  0.17770000000E+01 0.  1.
         16    1    6    6    0    0  0.35494428699E+02  0.12595547221E+02  0.16773539196E+02  0.41229284443E+02  0.00000000000E+00 0. -1.
         -5    1    3    3    0  503 -0.54189791921E+02  0.36533320024E+02  0.20874003781E+03  0.21878233568E+03  0.47000000000E+01 0.  1.
         15    1    4    4    0    0 -0.22384141366E+02  0.14564504333E+02  0.43372219088E+02  0.50965495080E+02  0.17770000000E+01 0. -1.
        -16    1    4    4    0    0 -0.72749306217E+02 -0.92688910744E+02  0.11488685606E+03  0.16456817865E+03  0.00000000000E+00 0.  1.
<mgrwt>
<rscale>  2 0.23316986E+03</rscale>
<asrwt>0</asrwt>
<pdfrwt beam="1">  1       21 0.17845016E+00 0.23347586E+03</pdfrwt>
<pdfrwt beam="2">  1       21 0.79395337E-02 0.23347586E+03</pdfrwt>
<totfact> 0.22062116E+04</totfact>
</mgrwt>
</event>
<event>
11    2  0.4090627E-002  0.2414312E+03  0.7546771E-02  0.1119097E+00
         21   -1    0    0  503  502  0.00000000000E+00  0.00000000000E+00  0.42176223345E+03  0.42176223345E+03  0.00000000000E+00 0.  1.
         21   -1    0    0  501  503 -0.00000000000E+00 -0.00000000000E+00 -0.13931622274E+03  0.13931622274E+03  0.00000000000E+00 0. -1.
          6    2    1    2  501    0  0.15365371706E+03  0.64600795929E+02  0.10814642022E+03  0.26454614509E+03  0.17466049088E+03 0.  0.
         -6    2    1    2    0  502 -0.15365371706E+03 -0.64600795929E+02  0.17429959049E+03  0.29653231111E+03  0.17253503032E+03 0.  0.
        -24    2    4    4    0    0 -0.57213460491E+02 -0.95794167112E+02  0.11395923168E+03  0.17847809308E+03  0.80111302021E+02 0.  0.
          5    1    3    3  501    0  0.73243090931E+02  0.36854176713E+01 -0.37434496360E+02  0.82471596263E+02  0.47000000000E+01 0. -1.
        -15    1    3    3    0    0  0.69048700127E+01  0.50863353687E+01  0.43822545980E+02  0.44689163144E+02  0.17770000000E+01 0.  1.
         16    1    3    3    0    0  0.73505756112E+02  0.55829042890E+02  0.10175837060E+03  0.13738538568E+03  0.00000000000E+00 0. -1.
         -5    1    4    4    0  502 -0.96440256564E+02  0.31193371183E+02  0.60340358808E+02  0.11805421802E+03  0.47000000000E+01 0.  1.
         15    1    5    5    0    0  0.40254471089E+01  0.12277759222E+02  0.12904368984E+02  0.18347426626E+02  0.17770000000E+01 0. -1.
        -16    1    5    5    0    0 -0.61238907600E+02 -0.10807192633E+03  0.10105486269E+03  0.16013066646E+03  0.00000000000E+00 0.  1.
<mgrwt>
<rscale>  2 0.24104698E+03</rscale>
<asrwt>0</asrwt>
<pdfrwt beam="1">  1       21 0.64886497E-01 0.24143118E+03</pdfrwt>
<pdfrwt beam="2">  1       21 0.21433265E-01 0.24143118E+03</pdfrwt>
<totfact> 0.43346630E+04</totfact>
</mgrwt>
</event>
<event>
12    2  0.4090627E-002  0.3879327E+03  0.7546771E-02  0.1048071E+00
         21   -1    0    0  501  502  0.00000000000E+00  0.00000000000E+00  0.17851506858E+04  0.17851506858E+04  0.00000000000E+00 0. -1.
         21   -1    0    0  502  503 -0.00000000000E+00 -0.00000000000E+00 -0.85988092485E+02  0.85988092485E+02  0.00000000000E+00 0.  1.
         -6    2    1    2    0  503  0.26128680154E+03  0.22773743458E+03  0.71611360746E+03  0.81443874070E+03  0.17423154650E+03 0.  0.
        -24    2    3    3    0    0  0.27776446508E+03  0.21123607749E+03  0.61370587496E+03  0.70930434168E+03  0.68585491710E+02 0.  0.
          6    2    1    2  501    0 -0.26128680154E+03 -0.22773743458E+03  0.98304898587E+03  0.10567000376E+04  0.17347774808E+03 0.  0.
         24    2    5    5    0    0 -0.22771358124E+03 -0.12364459660E+03  0.61202612867E+03  0.66986346926E+03  0.83663755159E+02 0.  0.
          5    1    5    5  501    0 -0.33573220302E+02 -0.10409283797E+03  0.37102285720E+03  0.38683656834E+03  0.47000000000E+01 0. -1.
        -15    1    6    6    0    0  0.57130246287E+01 -0.92153396428E+01  0.40985413245E+02  0.42432569602E+02  0.17770000000E+01 0.  1.
         16    1    6    6    0    0 -0.23342660587E+03 -0.11442925696E+03  0.57104071542E+03  0.62743089966E+03  0.00000000000E+00 0. -1.
         -5    1    3    3    0  503 -0.16477663535E+02  0.16501357091E+02  0.10240773250E+03  0.10513439902E+03  0.47000000000E+01 0.  1.
         15    1    4    4    0    0  0.21502926162E+03  0.14557981351E+03  0.39754598938E+03  0.47484422378E+03  0.17770000000E+01 0. -1.
        -16    1    4    4    0    0  0.62735203457E+02  0.65656263979E+02  0.21615988558E+03  0.23446011790E+03  0.00000000000E+00 0.  1.
<mgrwt>
<rscale>  2 0.38784816E+03</rscale>
<asrwt>0</asrwt>
<pdfrwt beam="1">  1       21 0.27463854E+00 0.38793268E+03</pdfrwt>
<pdfrwt beam="2">  1       21 0.13228939E-01 0.38793268E+03</pdfrwt>
<totfact> 0.20056263E+03</totfact>
</mgrwt>
</event>
<event>
12    2  0.4090627E-002  0.2045157E+03  0.7546771E-02  0.1146127E+00
         21   -1    0    0  503  502  0.00000000000E+00  0.00000000000E+00  0.50391740904E+03  0.50391740904E+03  0.00000000000E+00 0. -1.
         21   -1    0    0  501  503 -0.00000000000E+00 -0.00000000000E+00 -0.82748614360E+02  0.82748614360E+02  0.00000000000E+00 0.  1.
          6    2    1    2  501    0 -0.44707130468E+02  0.10000001273E+03  0.21633544935E+03  0.29770402912E+03  0.17270764965E+03 0.  0.
         24    2    3    3    0    0 -0.50210800299E+02  0.46832041464E+02  0.40724616798E+02  0.11407838260E+03  0.81492443753E+02 0.  0.
         -6    2    1    2    0  502  0.44707130468E+02 -0.10000001273E+03  0.20483334534E+03  0.28896199429E+03  0.17188253175E+03 0.  0.
        -24    2    5    5    0    0  0.50435123451E+02 -0.64676933321E+02  0.21961345216E+03  0.24996107891E+03  0.86739063991E+02 0.  0.
          5    1    3    3  501    0  0.55036698308E+01  0.53167971265E+02  0.17561083255E+03  0.18362564652E+03  0.47000000000E+01 0. -1.
        -15    1    4    4    0    0 -0.30454975203E+02  0.65047818976E+02  0.47795146300E+02  0.86291703002E+02  0.17770000000E+01 0.  1.
         16    1    4    4    0    0 -0.19755825096E+02 -0.18215777512E+02 -0.70705295019E+01  0.27786679597E+02  0.00000000000E+00 0. -1.
         -5    1    5    5    0  502 -0.57279929827E+01 -0.35323079408E+02 -0.14780106820E+02  0.39000915375E+02  0.47000000000E+01 0.  1.
         15    1    6    6    0    0  0.14493283372E+02 -0.38761450838E+02  0.19484269898E+03  0.19919673795E+03  0.17770000000E+01 0. -1.
        -16    1    6    6    0    0  0.35941840079E+02 -0.25915482483E+02  0.24770753173E+02  0.50764340962E+02  0.00000000000E+00 0.  1.
<mgrwt>
<rscale>  2 0.20434138E+03</rscale>
<asrwt>0</asrwt>
<pdfrwt beam="1">  1       21 0.77525753E-01 0.20451568E+03</pdfrwt>
<pdfrwt beam="2">  1       21 0.12730556E-01 0.20451568E+03</pdfrwt>
<totfact> 0.77508256E+04</totfact>
</mgrwt>
</event>
<event>
12    2  0.4090627E-002  0.1801418E+03  0.7546771E-02  0.1167694E+00
         21   -1    0    0  501  502  0.00000000000E+00  0.00000000000E+00  0.76380330178E+03  0.76380330178E+03  0.00000000000E+00 0. -1.
         21   -1    0    0  502  503 -0.00000000000E+00 -0.00000000000E+00 -0.42475794930E+02  0.42475794930E+02  0.00000000000E+00 0. -1.
         -6    2    1    2    0  503  0.19586022604E+02  0.47876465238E+02  0.35267013724E+03  0.39601426787E+03  0.17255522726E+03 0.  0.
        -24    2    3    3    0    0  0.67150192350E+02 -0.99313478397E+00  0.17679098193E+03  0.20731833437E+03  0.84945310777E+02 0.  0.
          6    2    1    2  501    0 -0.19586022604E+02 -0.47876465238E+02  0.36865736962E+03  0.41026482884E+03  0.17243319114E+03 0.  0.
         24    2    5    5    0    0 -0.45500872154E+02  0.24003945118E+02  0.26170433030E+03  0.27873758665E+03  0.80987449429E+02 0.  0.
          5    1    5    5  501    0  0.25914849550E+02 -0.71880410356E+02  0.10695303932E+03  0.13152724219E+03  0.47000000000E+01 0. -1.
        -15    1    6    6    0    0 -0.11225520131E+01  0.12711471758E+02 -0.17447140215E+00  0.12885255393E+02  0.17770000000E+01 0.  1.
         16    1    6    6    0    0 -0.44378320141E+02  0.11292473360E+02  0.26187880171E+03  0.26585233126E+03  0.00000000000E+00 0. -1.
         -5    1    3    3    0  503 -0.47564169746E+02  0.48869600022E+02  0.17587915530E+03  0.18869593350E+03  0.47000000000E+01 0.  1.
         15    1    4    4    0    0  0.60153123917E+02  0.36234138028E+02  0.12016999295E+03  0.13919517237E+03  0.17770000000E+01 0. -1.
        -16    1    4    4    0    0  0.69970684329E+01 -0.37227272812E+02  0.56620988977E+02  0.68123161996E+02  0.00000000000E+00 0.  1.
<mgrwt>
<rscale>  2 0.18011259E+03</rscale>
<asrwt>0</asrwt>
<pdfrwt beam="1">  1       21 0.11750819E+00 0.18014182E+03</pdfrwt>
<pdfrwt beam="2">  1       21 0.65347382E-02 0.18014182E+03</pdfrwt>
<totfact> 0.95235567E+04</totfact>
</mgrwt>
</event>
<event>
12    2  0.4090627E-002  0.1926269E+03  0.7546771E-02  0.1156352E+00
         21   -1    0    0  503  502  0.00000000000E+00  0.00000000000E+00  0.49545594520E+03  0.49545594520E+03  0.00000000000E+00 0. -1.
         21   -1    0    0  501  503 -0.00000000000E+00 -0.00000000000E+00 -0.77444174462E+02  0.77444174462E+02  0.00000000000E+00 0. -1.
          6    2    1    2  501    0  0.61004123675E+02  0.55744845555E+02  0.26454504923E+03  0.32661338401E+03  0.17280980479E+03 0.  0.
         24    2    3    3    0    0  0.42202345766E+02 -0.29551756358E+02  0.18466673492E+03  0.20815810870E+03  0.81078054624E+02 0.  0.
         -6    2    1    2    0  502 -0.61004123675E+02 -0.55744845555E+02  0.15346672151E+03  0.24628673565E+03  0.17400037539E+03 0.  0.
        -24    2    5    5    0    0 -0.49527037107E+02  0.31664944847E+02  0.11011127658E+03  0.14793034502E+03  0.79393309599E+02 0.  0.
          5    1    3    3  501    0  0.18801777908E+02  0.85296601913E+02  0.79878314311E+02  0.11845527530E+03  0.47000000000E+01 0. -1.
        -15    1    4    4    0    0  0.10003411672E+02 -0.30772648771E+02  0.15450348204E+02  0.35901185859E+02  0.17770000000E+01 0.  1.
         16    1    4    4    0    0  0.32198934094E+02  0.12208924134E+01  0.16921638671E+03  0.17225692284E+03  0.00000000000E+00 0. -1.
         -5    1    5    5    0  502 -0.11477086568E+02 -0.87409790402E+02  0.43355444923E+02  0.98356390635E+02  0.47000000000E+01 0.  1.
         15    1    6    6    0    0 -0.56332805659E+02 -0.73957289496E+01  0.80021292689E+02  0.98156236749E+02  0.17770000000E+01 0. -1.
        -16    1    6    6    0    0  0.68057685523E+01  0.39060673797E+02  0.30089983896E+02  0.49774108268E+02  0.00000000000E+00 0.  1.
<mgrwt>
<rscale>  2 0.19235764E+03</rscale>
<asrwt>0</asrwt>
<pdfrwt beam="1">  1       21 0.76223990E-01 0.19262690E+03</pdfrwt>
<pdfrwt beam="2">  1       21 0.11914489E-01 0.19262690E+03</pdfrwt>
<totfact> 0.91147626E+04</totfact>
</mgrwt>
</event>
<event>
12    2  0.4090627E-002  0.3332585E+03  0.7546771E-02  0.1069865E+00
         21   -1    0    0  501  502  0.00000000000E+00  0.00000000000E+00  0.90041724374E+03  0.90041724374E+03  0.00000000000E+00 0.  1.
         21   -1    0    0  502  503 -0.00000000000E+00 -0.00000000000E+00 -0.30460999155E+03  0.30460999155E+03  0.00000000000E+00 0.  1.
         -6    2    1    2    0  503  0.24817605624E+03 -0.13705609446E+03 -0.16784410544E+03  0.37182578518E+03  0.17235731165E+03 0.  0.
        -24    2    3    3    0    0  0.55125712658E+02 -0.16726674323E+02 -0.21463397278E+02  0.10127633272E+03  0.80483490958E+02 0.  0.
          6    2    1    2  501    0 -0.24817605624E+03  0.13705609446E+03  0.76365135763E+03  0.83320145011E+03  0.17517286474E+03 0.  0.
         24    2    5    5    0    0 -0.12336029159E+03  0.15159507906E+02  0.45800777924E+03  0.48123861126E+03  0.79824200014E+02 0.  0.
          5    1    5    5  501    0 -0.12481576465E+03  0.12189658655E+03  0.30564357839E+03  0.35196283885E+03  0.47000000000E+01 0. -1.
        -15    1    6    6    0    0 -0.12460396221E+03  0.91296634002E+01  0.32658767946E+03  0.34967437461E+03  0.17770000000E+01 0.  1.
         16    1    6    6    0    0  0.12436706244E+01  0.60298445060E+01  0.13142009978E+03  0.13156423665E+03  0.00000000000E+00 0. -1.
         -5    1    3    3    0  503  0.19305034358E+03 -0.12032942014E+03 -0.14638070816E+03  0.27054945246E+03  0.47000000000E+01 0.  1.
         15    1    4    4    0    0  0.34741762404E+02  0.46395930103E-01 -0.50954200638E+02  0.61696681428E+02  0.17770000000E+01 0. -1.
        -16    1    4    4    0    0  0.20383950255E+02 -0.16773070253E+02  0.29490803360E+02  0.39579651294E+02  0.00000000000E+00 0.  1.
<mgrwt>
<rscale>  2 0.33289011E+03</rscale>
<asrwt>0</asrwt>
<pdfrwt beam="1">  1       21 0.13852573E+00 0.33325855E+03</pdfrwt>
<pdfrwt beam="2">  1       21 0.46863076E-01 0.33325855E+03</pdfrwt>
<totfact> 0.14435115E+03</totfact>
</mgrwt>
</event>
<event>
12    2  0.4090627E-002  0.2048136E+03  0.7546771E-02  0.1146938E+00
         21   -1    0    0  501  502  0.00000000000E+00  0.00000000000E+00  0.96821720576E+02  0.96821720576E+02  0.00000000000E+00 0.  1.
         21   -1    0    0  502  503 -0.00000000000E+00 -0.00000000000E+00 -0.10605609525E+04  0.10605609525E+04  0.00000000000E+00 0.  1.
         -6    2    1    2    0  503  0.91573889337E+02  0.20420741675E+02 -0.92845596469E+03  0.94955220277E+03  0.17554521790E+03 0.  0.
        -24    2    3    3    0    0  0.50014239592E+02 -0.50300367802E+02 -0.66619225305E+03  0.67471948228E+03  0.80016939326E+02 0.  0.
          6    2    1    2  501    0 -0.91573889337E+02 -0.20420741675E+02 -0.35283267257E+02  0.20783047032E+03  0.18205991197E+03 0.  0.
         24    2    5    5    0    0  0.21534613548E+02  0.10374685882E+02  0.40403926528E+01  0.84095543921E+02  0.80525536613E+02 0.  0.
          5    1    5    5  501    0 -0.11310850288E+03 -0.30795427557E+02 -0.39323659910E+02  0.12373492640E+03  0.47000000000E+01 0. -1.
        -15    1    6    6    0    0  0.15735688008E+02 -0.22255582149E+02  0.31040930435E+02  0.41347550171E+02  0.17770000000E+01 0.  1.
         16    1    6    6    0    0  0.57989255397E+01  0.32630268031E+02 -0.27000537782E+02  0.42747993751E+02  0.00000000000E+00 0. -1.
         -5    1    3    3    0  503  0.41559649744E+02  0.70721109476E+02 -0.26226371163E+03  0.27483272049E+03  0.47000000000E+01 0.  1.
         15    1    4    4    0    0 -0.45831979117E+01 -0.19510226029E+02 -0.34600922289E+02  0.40025444096E+02  0.17770000000E+01 0. -1.
        -16    1    4    4    0    0  0.54597437504E+02 -0.30790141773E+02 -0.63159133076E+03  0.63469403819E+03  0.00000000000E+00 0.  1.
<mgrwt>
<rscale>  2 0.20335593E+03</rscale>
<asrwt>0</asrwt>
<pdfrwt beam="1">  1       21 0.14895649E-01 0.20481356E+03</pdfrwt>
<pdfrwt beam="2">  1       21 0.16316322E+00 0.20481356E+03</pdfrwt>
<totfact> 0.93945030E+03</totfact>
</mgrwt>
</event>
<event>
12    2  0.4090627E-002  0.1806283E+03  0.7546771E-02  0.1170528E+00
         21   -1    0    0  501  502  0.00000000000E+00  0.00000000000E+00  0.23951889965E+02  0.23951889965E+02  0.00000000000E+00 0.  1.
         21   -1    0    0  502  503 -0.00000000000E+00 -0.00000000000E+00 -0.12660880805E+04  0.12660880805E+04  0.00000000000E+00 0.  1.
         -6    2    1    2    0  503  0.20008410029E+02  0.47870460106E+02 -0.67172979545E+03  0.69559146392E+03  0.17301632629E+03 0.  0.
        -24    2    3    3    0    0  0.43073689845E+02  0.92626475617E+02 -0.50452382799E+03  0.52090593615E+03  0.79772768340E+02 0.  0.
          6    2    1    2  501    0 -0.20008410029E+02 -0.47870460106E+02 -0.57040639506E+03  0.59444850652E+03  0.15910265225E+03 0.  0.
         24    2    5    5    0    0  0.16291666572E+02  0.24701411023E+02 -0.27764733623E+03  0.29061577529E+03  0.80584784071E+02 0.  0.
          5    1    5    5  501    0 -0.36300076601E+02 -0.72571871129E+02 -0.29275905883E+03  0.30383273123E+03  0.47000000000E+01 0. -1.
        -15    1    6    6    0    0  0.46780214186E+02  0.17790053208E+02 -0.12234307068E+03  0.13219629006E+03  0.17770000000E+01 0.  1.
         16    1    6    6    0    0 -0.30488547614E+02  0.69113578153E+01 -0.15530426555E+03  0.15841948523E+03  0.00000000000E+00 0. -1.
         -5    1    3    3    0  503 -0.23065279815E+02 -0.44756015510E+02 -0.16720596746E+03  0.17468552777E+03  0.47000000000E+01 0.  1.
         15    1    4    4    0    0 -0.53174408492E+01  0.79189548120E+02 -0.30895546458E+03  0.31899200073E+03  0.17770000000E+01 0. -1.
        -16    1    4    4    0    0  0.48391130694E+02  0.13436927497E+02 -0.19556836341E+03  0.20191393542E+03  0.00000000000E+00 0.  1.
<mgrwt>
<rscale>  2 0.17721269E+03</rscale>
<asrwt>0</asrwt>
<pdfrwt beam="1">  1       21 0.36849069E-02 0.18062826E+03</pdfrwt>
<pdfrwt beam="2">  1       21 0.19478274E+00 0.18062826E+03</pdfrwt>
<totfact> 0.65715065E+04</totfact>
</mgrwt>
</event>
<event>
12    2  0.4090627E-002  0.2467730E+03  0.7546771E-02  0.1115390E+00
         21   -1    0    0  501  502  0.00000000000E+00  0.00000000000E+00  0.91115922509E+03  0.91115922509E+03  0.00000000000E+00 0.  1.
         21   -1    0    0  502  503 -0.00000000000E+00 -0.00000000000E+00 -0.68392777260E+02  0.68392777260E+02  0.00000000000E+00 0.  1.
         -6    2    1    2    0  503 -0.15958333771E+03  0.75337574954E+02  0.34616132603E+03  0.42501295843E+03  0.17223750847E+03 0.  0.
        -24    2    3    3    0    0 -0.16032926869E+03  0.80247373534E+02  0.35955810838E+03  0.40997213689E+03  0.81547558941E+02 0.  0.
          6    2    1    2  501    0  0.15958333771E+03 -0.75337574954E+02  0.49660512180E+03  0.55453904392E+03  0.17249438356E+03 0.  0.
         24    2    5    5    0    0  0.11304461947E+03 -0.15594533031E+00  0.40433024484E+03  0.42665287326E+03  0.75964577655E+02 0.  0.
          5    1    5    5  501    0  0.46538718233E+02 -0.75181629624E+02  0.92274876963E+02  0.12788617066E+03  0.47000000000E+01 0. -1.
        -15    1    6    6    0    0  0.10161279311E+03 -0.14806720852E+02  0.38968845267E+03  0.40299459870E+03  0.17770000000E+01 0.  1.
         16    1    6    6    0    0  0.11431826362E+02  0.14650775522E+02  0.14641792171E+02  0.23658274564E+02  0.00000000000E+00 0. -1.
         -5    1    3    3    0  503  0.74593098703E+00 -0.49097985796E+01 -0.13396782351E+02  0.15040821536E+02  0.47000000000E+01 0.  1.
         15    1    4    4    0    0 -0.42877650721E+02 -0.15292145772E+02  0.84368967400E+02  0.95883382517E+02  0.17770000000E+01 0. -1.
        -16    1    4    4    0    0 -0.11745161797E+03  0.95539519305E+02  0.27518914098E+03  0.31408875438E+03  0.00000000000E+00 0.  1.
<mgrwt>
<rscale>  2 0.24672810E+03</rscale>
<asrwt>0</asrwt>
<pdfrwt beam="1">  1       21 0.14017833E+00 0.24677298E+03</pdfrwt>
<pdfrwt beam="2">  1       21 0.10521966E-01 0.24677298E+03</pdfrwt>
<totfact> 0.25634351E+04</totfact>
</mgrwt>
</event>
<event>
12    2  0.4090627E-002  0.2081927E+03  0.7546771E-02  0.1143035E+00
         21   -1    0    0  501  502  0.00000000000E+00  0.00000000000E+00  0.53061444583E+03  0.53061444583E+03  0.00000000000E+00 0.  1.
         21   -1    0    0  502  503 -0.00000000000E+00 -0.00000000000E+00 -0.84005676738E+02  0.84005676738E+02  0.00000000000E+00 0. -1.
         -6    2    1    2    0  503 -0.46353786914E+02 -0.10608547820E+03  0.17154173176E+03  0.26964752433E+03  0.17285953660E+03 0.  0.
        -24    2    3    3    0    0 -0.26465754891E+02  0.10978485166E+02  0.46421133454E+02  0.97088086865E+02  0.80313209758E+02 0.  0.
          6    2    1    2  501    0  0.46353786914E+02  0.10608547820E+03  0.27506703734E+03  0.34497259824E+03  0.17303588143E+03 0.  0.
         24    2    5    5    0    0 -0.21531838050E+02 -0.83416974653E+01  0.12880601443E+03  0.14719390012E+03  0.67393255705E+02 0.  0.
          5    1    5    5  501    0  0.67885624964E+02  0.11442717567E+03  0.14626102291E+03  0.19777869812E+03  0.47000000000E+01 0. -1.
        -15    1    6    6    0    0  0.80486581608E+01  0.62594042093E+01  0.10733756403E+03  0.10783539039E+03  0.17770000000E+01 0.  1.
         16    1    6    6    0    0 -0.29580496211E+02 -0.14601101675E+02  0.21468450399E+02  0.39358509737E+02  0.00000000000E+00 0. -1.
         -5    1    3    3    0  503 -0.19888032023E+02 -0.11706396337E+03  0.12512059830E+03  0.17255943746E+03  0.47000000000E+01 0.  1.
         15    1    4    4    0    0  0.24692101468E+02  0.19144411999E+02  0.72053928321E+01  0.32113607716E+02  0.17770000000E+01 0. -1.
        -16    1    4    4    0    0 -0.51157856358E+02 -0.81659268327E+01  0.39215740622E+02  0.64974479149E+02  0.00000000000E+00 0.  1.
<mgrwt>
<rscale>  2 0.20815610E+03</rscale>
<asrwt>0</asrwt>
<pdfrwt beam="1">  1       21 0.81632989E-01 0.20819274E+03</pdfrwt>
<pdfrwt beam="2">  1       21 0.12923951E-01 0.20819274E+03</pdfrwt>
<totfact> 0.67008662E+04</totfact>
</mgrwt>
</event>
<event>
12    2  0.4090627E-002  0.1993071E+03  0.7546771E-02  0.1152424E+00
         21   -1    0    0  501  502  0.00000000000E+00  0.00000000000E+00  0.13984954705E+02  0.13984954705E+02  0.00000000000E+00 0.  1.
         21   -1    0    0  502  503 -0.00000000000E+00 -0.00000000000E+00 -0.34617287215E+04  0.34617287215E+04  0.00000000000E+00 0.  1.
         -6    2    1    2    0  503 -0.49329295509E+01  0.81479481500E+02 -0.25698254810E+04  0.25775426879E+04  0.18182427019E+03 0.  0.
        -24    2    3    3    0    0 -0.67397747403E+02  0.16391654623E+02 -0.11732147346E+04  0.11780135007E+04  0.80447819794E+02 0.  0.
          6    2    1    2  501    0  0.49329295509E+01 -0.81479481500E+02 -0.87791828578E+03  0.89817098834E+03  0.17119394871E+03 0.  0.
         24    2    5    5    0    0 -0.46637522332E+02 -0.95704940757E+02 -0.68959496370E+03  0.70234035018E+03  0.80039111451E+02 0.  0.
          5    1    5    5  501    0  0.51570451883E+02  0.14225459257E+02 -0.18832332209E+03  0.19583063816E+03  0.47000000000E+01 0. -1.
        -15    1    6    6    0    0 -0.21205575549E+02  0.33862004594E+01 -0.47659200260E+02  0.52303918460E+02  0.17770000000E+01 0.  1.
         16    1    6    6    0    0 -0.25431946784E+02 -0.99091141217E+02 -0.64193576344E+03  0.65003643172E+03  0.00000000000E+00 0. -1.
         -5    1    3    3    0  503  0.62464817852E+02  0.65087826877E+02 -0.13966107465E+04  0.13995291872E+04  0.47000000000E+01 0.  1.
         15    1    4    4    0    0 -0.43857967111E+02  0.37977090714E+02 -0.40531390694E+03  0.40944877773E+03  0.17770000000E+01 0. -1.
        -16    1    4    4    0    0 -0.23539780292E+02 -0.21585436091E+02 -0.76790082763E+03  0.76856472296E+03  0.00000000000E+00 0.  1.
<mgrwt>
<rscale>  2 0.19685003E+03</rscale>
<asrwt>0</asrwt>
<pdfrwt beam="1">  1       21 0.21515329E-02 0.19930706E+03</pdfrwt>
<pdfrwt beam="2">  1       21 0.53257331E+00 0.19930706E+03</pdfrwt>
<totfact> 0.11947771E+03</totfact>
</mgrwt>
</event>
<event>
12    2  0.4090627E-002  0.1815030E+03  0.7546771E-02  0.1166427E+00
         21   -1    0    0  501  502  0.00000000000E+00  0.00000000000E+00  0.10822968257E+04  0.10822968257E+04  0.00000000000E+00 0.  1.
         21   -1    0    0  502  503 -0.00000000000E+00 -0.00000000000E+00 -0.46431781705E+02  0.46431781705E+02  0.00000000000E+00 0.  1.
         -6    2    1    2    0  503 -0.53794908520E+02  0.43174662718E+01  0.18647258296E+03  0.26022178804E+03  0.17329403358E+03 0.  0.
        -24    2    3    3    0    0 -0.41485497491E+02  0.45677119138E+02  0.19725610118E+03  0.21549465142E+03  0.60996144316E+02 0.  0.
          6    2    1    2  501    0  0.53794908520E+02 -0.43174662718E+01  0.84939246106E+03  0.86850681940E+03  0.17298557666E+03 0.  0.
         24    2    5    5    0    0  0.25831137945E+02  0.16197918341E+02  0.19445042913E+03  0.21263030002E+03  0.80442867019E+02 0.  0.
          5    1    5    5  501    0  0.27963770575E+02 -0.20515384613E+02  0.65494203193E+03  0.65587651937E+03  0.47000000000E+01 0. -1.
        -15    1    6    6    0    0  0.22607259062E+01 -0.94918955069E+01  0.16942265528E+03  0.16971270080E+03  0.17770000000E+01 0.  1.
         16    1    6    6    0    0  0.23570412039E+02  0.25689813848E+02  0.25027773845E+02  0.42917599221E+02  0.00000000000E+00 0. -1.
         -5    1    3    3    0  503 -0.12309411029E+02 -0.41359652866E+02 -0.10783518219E+02  0.44727136621E+02  0.47000000000E+01 0.  1.
         15    1    4    4    0    0 -0.47933223176E+02  0.36366590883E+02  0.94011937902E+02  0.11163120090E+03  0.17770000000E+01 0. -1.
        -16    1    4    4    0    0  0.64477256850E+01  0.93105282551E+01  0.10324416328E+03  0.10386345052E+03  0.00000000000E+00 0.  1.
<mgrwt>
<rscale>  2 0.18142938E+03</rscale>
<asrwt>0</asrwt>
<pdfrwt beam="1">  1       21 0.16650718E+00 0.18150304E+03</pdfrwt>
<pdfrwt beam="2">  1       21 0.71433518E-02 0.18150304E+03</pdfrwt>
<totfact> 0.33227677E+04</totfact>
</mgrwt>
</event>
<event>
12    2  0.4090627E-002  0.1879458E+03  0.7546771E-02  0.1161250E+00
         21   -1    0    0  503  502  0.00000000000E+00  0.00000000000E+00  0.16367148148E+03  0.16367148148E+03  0.00000000000E+00 0.  1.
         21   -1    0    0  501  503 -0.00000000000E+00 -0.00000000000E+00 -0.23822137815E+03  0.23822137815E+03  0.00000000000E+00 0.  1.
          6    2    1    2  501    0 -0.32788328429E+02  0.67683861670E+02 -0.10451466697E+03  0.21157332142E+03  0.16788024039E+03 0.  0.
         24    2    3    3    0    0  0.38548252522E+02  0.59437850352E+01 -0.57404278645E+02  0.10601659007E+03  0.80143432738E+02 0.  0.
         -6    2    1    2    0  502  0.32788328429E+02 -0.67683861670E+02  0.29964770306E+02  0.19031953821E+03  0.17224244411E+03 0.  0.
        -24    2    5    5    0    0  0.76436115887E+02 -0.82842795184E+02  0.39362647431E+02  0.14293459640E+03  0.78584173410E+02 0.  0.
          5    1    3    3  501    0 -0.71336580951E+02  0.61740076634E+02 -0.47110388328E+02  0.10555673135E+03  0.47000000000E+01 0. -1.
        -15    1    4    4    0    0  0.27896866793E+02  0.41736699693E+02 -0.23029920925E+02  0.55260494614E+02  0.17770000000E+01 0.  1.
         16    1    4    4    0    0  0.10651385728E+02 -0.35792914658E+02 -0.34374357721E+02  0.50756095460E+02  0.00000000000E+00 0. -1.
         -5    1    5    5    0  502 -0.43647787457E+02  0.15158933514E+02 -0.93978771254E+01  0.47384941803E+02  0.47000000000E+01 0.  1.
         15    1    6    6    0    0 -0.13440431278E+02 -0.54033582628E+01 -0.61902459986E+01  0.15853023307E+02  0.17770000000E+01 0. -1.
        -16    1    6    6    0    0  0.89876547164E+02 -0.77439436921E+02  0.45552893430E+02  0.12708157310E+03  0.00000000000E+00 0.  1.
<mgrwt>
<rscale>  2 0.18694044E+03</rscale>
<asrwt>0</asrwt>
<pdfrwt beam="1">  1       21 0.25180228E-01 0.18794584E+03</pdfrwt>
<pdfrwt beam="2">  1       21 0.36649443E-01 0.18794584E+03</pdfrwt>
<totfact> 0.10745905E+05</totfact>
</mgrwt>
</event>
<event>
12    2  0.4090627E-002  0.1849696E+03  0.7546771E-02  0.1163285E+00
         21   -1    0    0  503  502  0.00000000000E+00  0.00000000000E+00  0.11572640530E+04  0.11572640530E+04  0.00000000000E+00 0.  1.
         21   -1    0    0  501  503 -0.00000000000E+00 -0.00000000000E+00 -0.37073188285E+02  0.37073188285E+02  0.00000000000E+00 0.  1.
          6    2    1    2  501    0 -0.44543219548E+02 -0.44181098803E+02  0.28989639077E+03  0.34388031515E+03  0.17400484437E+03 0.  0.
         24    2    3    3    0    0 -0.29641934130E+02 -0.38713405894E+02  0.30631637595E+03  0.32056401428E+03  0.80957970728E+02 0.  0.
         -6    2    1    2    0  502  0.44543219548E+02  0.44181098803E+02  0.83029447392E+03  0.85045692611E+03  0.17306646658E+03 0.  0.
        -24    2    5    5    0    0 -0.23023606451E+02  0.56220513997E+02  0.31057289662E+03  0.32620237782E+03  0.79130490543E+02 0.  0.
          5    1    3    3  501    0 -0.14901285418E+02 -0.54676929091E+01 -0.16419985176E+02  0.23316300865E+02  0.47000000000E+01 0. -1.
        -15    1    4    4    0    0  0.12036791419E+01 -0.83576513582E+01 -0.22983252795E+01  0.89296812816E+01  0.17770000000E+01 0.  1.
         16    1    4    4    0    0 -0.30845613272E+02 -0.30355754536E+02  0.30861470123E+03  0.31163433300E+03  0.00000000000E+00 0. -1.
         -5    1    5    5    0  502  0.67566825999E+02 -0.12039415194E+02  0.51972157730E+03  0.52425454829E+03  0.47000000000E+01 0.  1.
         15    1    6    6    0    0 -0.95187454181E+00 -0.19913970343E+02  0.50678952467E+02  0.54488404566E+02  0.17770000000E+01 0. -1.
        -16    1    6    6    0    0 -0.22071731909E+02  0.76134484340E+02  0.25989394415E+03  0.27171397325E+03  0.00000000000E+00 0.  1.
<mgrwt>
<rscale>  2 0.18474859E+03</rscale>
<asrwt>0</asrwt>
<pdfrwt beam="1">  1       21 0.17804060E+00 0.18496960E+03</pdfrwt>
<pdfrwt beam="2">  1       21 0.57035683E-02 0.18496960E+03</pdfrwt>
<totfact> 0.40545364E+04</totfact>
</mgrwt>
</event>
<event>
12    2  0.4090627E-002  0.2144656E+03  0.7546771E-02  0.1138191E+00
         21   -1    0    0  503  502  0.00000000000E+00  0.00000000000E+00  0.12765295973E+04  0.12765295973E+04  0.00000000000E+00 0. -1.
         21   -1    0    0  501  503 -0.00000000000E+00 -0.00000000000E+00 -0.35966129936E+02  0.35966129936E+02  0.00000000000E+00 0. -1.
          6    2    1    2  501    0  0.11817511063E+03 -0.44230084955E+02  0.63931959847E+03  0.67414653367E+03  0.17269146674E+03 0.  0.
         24    2    3    3    0    0 -0.70485880025E+00  0.52354311566E+01  0.17671798967E+03  0.19393655577E+03  0.79713444436E+02 0.  0.
         -6    2    1    2    0  502 -0.11817511063E+03  0.44230084955E+02  0.60124386892E+03  0.63834919360E+03  0.17341812437E+03 0.  0.
        -24    2    5    5    0    0 -0.12043103058E+03  0.20952426934E+02  0.59591937370E+03  0.61390786002E+03  0.82585248789E+02 0.  0.
          5    1    3    3  501    0  0.11887996943E+03 -0.49465516111E+02  0.46260160879E+03  0.48020997790E+03  0.47000000000E+01 0. -1.
        -15    1    4    4    0    0 -0.95277291700E+01 -0.17073914694E+02  0.46131555363E+01  0.20167675105E+02  0.17770000000E+01 0.  1.
         16    1    4    4    0    0  0.88228703697E+01  0.22309345851E+02  0.17210483414E+03  0.17376888066E+03  0.00000000000E+00 0. -1.
         -5    1    5    5    0  502  0.22559199571E+01  0.23277658020E+02  0.53244952246E+01  0.24441333580E+02  0.47000000000E+01 0.  1.
         15    1    6    6    0    0 -0.83009713834E+02 -0.23244796211E+02  0.28961430313E+03  0.30217633171E+03  0.17770000000E+01 0. -1.
        -16    1    6    6    0    0 -0.37421316750E+02  0.44197223145E+02  0.30630507057E+03  0.31173152830E+03  0.00000000000E+00 0.  1.
<mgrwt>
<rscale>  2 0.21431868E+03</rscale>
<asrwt>0</asrwt>
<pdfrwt beam="1">  1       21 0.19638913E+00 0.21446562E+03</pdfrwt>
<pdfrwt beam="2">  1       21 0.55332517E-02 0.21446562E+03</pdfrwt>
<totfact> 0.31602134E+04</totfact>
</mgrwt>
</event>
<event>
12    2  0.4090627E-002  0.1825459E+03  0.7546771E-02  0.1165370E+00
         21   -1    0    0  501  502  0.00000000000E+00  0.00000000000E+00  0.14260912527E+03  0.14260912527E+03  0.00000000000E+00 0.  1.
         21   -1    0    0  502  503 -0.00000000000E+00 -0.00000000000E+00 -0.78178419673E+03  0.78178419673E+03  0.00000000000E+00 0.  1.
         -6    2    1    2    0  503 -0.18827603253E+02  0.52117521872E+02 -0.70661961975E+03  0.72981799464E+03  0.17393189340E+03 0.  0.
        -24    2    3    3    0    0 -0.19482230794E+02  0.84307580961E+02 -0.67199286594E+03  0.68230241276E+03  0.80466421914E+02 0.  0.
          6    2    1    2  501    0  0.18827603253E+02 -0.52117521872E+02  0.67444548297E+02  0.19457532736E+03  0.17389674003E+03 0.  0.
         24    2    5    5    0    0 -0.15673445724E+02  0.34337352419E+02  0.40941938014E+02  0.97677205500E+02  0.80248884814E+02 0.  0.
          5    1    5    5  501    0  0.34501048977E+02 -0.86454874291E+02  0.26502610284E+02  0.96898121865E+02  0.47000000000E+01 0. -1.
        -15    1    6    6    0    0 -0.41055132934E+02  0.10593068256E+02  0.45965153455E+02  0.62559492457E+02  0.17770000000E+01 0.  1.
         16    1    6    6    0    0  0.25381687210E+02  0.23744284163E+02 -0.50232154411E+01  0.35117713043E+02  0.00000000000E+00 0. -1.
         -5    1    3    3    0  503  0.65462754151E+00 -0.32190059090E+02 -0.34626753811E+02  0.47515581875E+02  0.47000000000E+01 0.  1.
         15    1    4    4    0    0 -0.49357871478E+02  0.66158937742E+02 -0.43806312581E+03  0.44577535200E+03  0.17770000000E+01 0. -1.
        -16    1    4    4    0    0  0.29875640684E+02  0.18148643219E+02 -0.23392974013E+03  0.23652706076E+03  0.00000000000E+00 0.  1.
<mgrwt>
<rscale>  2 0.18253756E+03</rscale>
<asrwt>0</asrwt>
<pdfrwt beam="1">  1       21 0.21939865E-01 0.18254593E+03</pdfrwt>
<pdfrwt beam="2">  1       21 0.12027449E+00 0.18254593E+03</pdfrwt>
<totfact> 0.10263482E+04</totfact>
</mgrwt>
</event>
<event>
12    2  0.4090627E-002  0.1895366E+03  0.7546771E-02  0.1160036E+00
         21   -1    0    0  501  502  0.00000000000E+00  0.00000000000E+00  0.12981369781E+03  0.12981369781E+03  0.00000000000E+00 0.  1.
         21   -1    0    0  502  503 -0.00000000000E+00 -0.00000000000E+00 -0.26951519894E+03  0.26951519894E+03  0.00000000000E+00 0.  1.
         -6    2    1    2    0  503  0.57702929109E+02  0.27929216394E+02 -0.72433141173E+02  0.19820916428E+03  0.17300475053E+03 0.  0.
        -24    2    3    3    0    0  0.77813230697E+02 -0.32317158857E+02 -0.65573432801E+02  0.13415297363E+03  0.81227135967E+02 0.  0.
          6    2    1    2  501    0 -0.57702929109E+02 -0.27929216394E+02 -0.67268359950E+02  0.20111973247E+03  0.17836604324E+03 0.  0.
         24    2    5    5    0    0 -0.95711536598E+02 -0.59922591286E+02 -0.39023309575E+02  0.14377774828E+03  0.79986292734E+02 0.  0.
          5    1    5    5  501    0  0.38008607489E+02  0.31993374892E+02 -0.28245050375E+02  0.57341984191E+02  0.47000000000E+01 0. -1.
        -15    1    6    6    0    0 -0.81084564004E+02 -0.11771088261E+02 -0.32200702106E+01  0.82017020305E+02  0.17770000000E+01 0.  1.
         16    1    6    6    0    0 -0.14626972595E+02 -0.48151503025E+02 -0.35803239364E+02  0.61760727974E+02  0.00000000000E+00 0. -1.
         -5    1    3    3    0  503 -0.20110301588E+02  0.60246375251E+02 -0.68597083724E+01  0.64056190644E+02  0.47000000000E+01 0.  1.
         15    1    4    4    0    0  0.64253042140E+02  0.39060933522E+01 -0.81381614275E+01  0.64908384589E+02  0.17770000000E+01 0. -1.
        -16    1    4    4    0    0  0.13560188557E+02 -0.36223252209E+02 -0.57435271373E+02  0.69244589045E+02  0.00000000000E+00 0.  1.
<mgrwt>
<rscale>  2 0.18826473E+03</rscale>
<asrwt>0</asrwt>
<pdfrwt beam="1">  1       21 0.19971338E-01 0.18953658E+03</pdfrwt>
<pdfrwt beam="2">  1       21 0.41463877E-01 0.18953658E+03</pdfrwt>
<totfact> 0.12976588E+05</totfact>
</mgrwt>
</event>
<event>
12    2  0.4090627E-002  0.2177267E+03  0.7546771E-02  0.1135959E+00
         21   -1    0    0  503  502  0.00000000000E+00  0.00000000000E+00  0.13808346998E+03  0.13808346998E+03  0.00000000000E+00 0. -1.
         21   -1    0    0  501  503 -0.00000000000E+00 -0.00000000000E+00 -0.47697366869E+03  0.47697366869E+03  0.00000000000E+00 0.  1.
          6    2    1    2  501    0  0.11773151058E+03 -0.58574464723E+02 -0.33355582132E+03  0.39726513224E+03  0.17108016500E+03 0.  0.
         24    2    3    3    0    0  0.15087754263E+03 -0.62112182778E+02 -0.27260034005E+03  0.32763155136E+03  0.80059552426E+02 0.  0.
         -6    2    1    2    0  502 -0.11773151058E+03  0.58574464723E+02 -0.53343773946E+01  0.21779200644E+03  0.17353162819E+03 0.  0.
        -24    2    5    5    0    0 -0.79853682904E+02  0.10737128307E+03 -0.34871337974E+01  0.15581328735E+03  0.79752224494E+02 0.  0.
          5    1    3    3  501    0 -0.33146032043E+02  0.35377180545E+01 -0.60955481264E+02  0.69633580874E+02  0.47000000000E+01 0. -1.
        -15    1    4    4    0    0  0.11132999711E+03 -0.56381560893E+02 -0.25512655652E+03  0.28401754565E+03  0.17770000000E+01 0.  1.
         16    1    4    4    0    0  0.39547545519E+02 -0.57306218850E+01 -0.17473783531E+02  0.43614005717E+02  0.00000000000E+00 0. -1.
         -5    1    5    5    0  502 -0.37877827680E+02 -0.48796818346E+02 -0.18472435972E+01  0.61978719085E+02  0.47000000000E+01 0.  1.
         15    1    6    6    0    0 -0.65225552899E+02  0.69263100095E+02 -0.37896495399E+02  0.10242583599E+03  0.17770000000E+01 0. -1.
        -16    1    6    6    0    0 -0.14628130005E+02  0.38108182975E+02  0.34409361601E+02  0.53387451362E+02  0.00000000000E+00 0.  1.
<mgrwt>
<rscale>  2 0.21723783E+03</rscale>
<asrwt>0</asrwt>
<pdfrwt beam="1">  1       21 0.21243611E-01 0.21772667E+03</pdfrwt>
<pdfrwt beam="2">  1       21 0.73380563E-01 0.21772667E+03</pdfrwt>
<totfact> 0.33959379E+04</totfact>
</mgrwt>
</event>
<event>
12    2  0.4090627E-002  0.1760505E+03  0.7546771E-02  0.1171791E+00
         21   -1    0    0  503  502  0.00000000000E+00  0.00000000000E+00  0.21992946092E+03  0.21992946092E+03  0.00000000000E+00 0.  1.
         21   -1    0    0  501  503 -0.00000000000E+00 -0.00000000000E+00 -0.14646241680E+03  0.14646241680E+03  0.00000000000E+00 0.  1.
          6    2    1    2  501    0  0.58635278858E+01 -0.26314642125E+02  0.73511791209E+02  0.19078200577E+03  0.17397398923E+03 0.  0.
         24    2    3    3    0    0 -0.27758567446E+01  0.12396926818E+02 -0.24104467657E+02  0.85310452580E+02  0.80842184428E+02 0.  0.
         -6    2    1    2    0  502 -0.58635278858E+01  0.26314642125E+02 -0.44747083506E-01  0.17560987195E+03  0.17352804896E+03 0.  0.
        -24    2    5    5    0    0  0.91903111101E+01  0.64210443195E+02 -0.46780475925E+02  0.11340835945E+03  0.80408956162E+02 0.  0.
          5    1    3    3  501    0  0.86393846304E+01 -0.38711568943E+02  0.97616258867E+02  0.10547155319E+03  0.47000000000E+01 0. -1.
        -15    1    4    4    0    0 -0.40604522924E+02 -0.20161327449E+01 -0.66787748781E+01  0.41237796207E+02  0.17770000000E+01 0.  1.
         16    1    4    4    0    0  0.37828666180E+02  0.14413059563E+02 -0.17425692779E+02  0.44072656373E+02  0.00000000000E+00 0. -1.
         -5    1    5    5    0  502 -0.15053838996E+02 -0.37895801069E+02  0.46735728842E+02  0.62201512502E+02  0.47000000000E+01 0.  1.
         15    1    6    6    0    0 -0.25214372896E+02  0.16256033841E+02  0.98380419992E+01  0.31622271205E+02  0.17770000000E+01 0. -1.
        -16    1    6    6    0    0  0.34404684006E+02  0.47954409354E+02 -0.56618517924E+02  0.81786088242E+02  0.00000000000E+00 0.  1.
<mgrwt>
<rscale>  2 0.17594026E+03</rscale>
<asrwt>0</asrwt>
<pdfrwt beam="1">  1       21 0.33835302E-01 0.17605053E+03</pdfrwt>
<pdfrwt beam="2">  1       21 0.22532679E-01 0.17605053E+03</pdfrwt>
<totfact> 0.15608727E+05</totfact>
</mgrwt>
</event>
<event>
12    2  0.4090627E-002  0.2589773E+03  0.7546771E-02  0.1107996E+00
         21   -1    0    0  501  502  0.00000000000E+00  0.00000000000E+00  0.36719053753E+03  0.36719053753E+03  0.00000000000E+00 0.  1.
         21   -1    0    0  502  503 -0.00000000000E+00 -0.00000000000E+00 -0.18937070151E+03  0.18937070151E+03  0.00000000000E+00 0. -1.
         -6    2    1    2    0  503  0.19239448705E+03  0.14949016122E+02  0.32633396814E+02  0.26102522678E+03  0.17271397946E+03 0.  0.
        -24    2    3    3    0    0  0.89773406236E+02  0.53926425428E+02  0.63586386253E+02  0.14687400157E+03  0.81002592508E+02 0.  0.
          6    2    1    2  501    0 -0.19239448705E+03 -0.14949016122E+02  0.14518643921E+03  0.29553601226E+03  0.17036232177E+03 0.  0.
         24    2    5    5    0    0 -0.19658529190E+03 -0.49408649784E+02  0.10511198231E+03  0.24230931507E+03  0.81106619209E+02 0.  0.
          5    1    5    5  501    0  0.41908048534E+01  0.34459633662E+02  0.40074456900E+02  0.53226697185E+02  0.47000000000E+01 0. -1.
        -15    1    6    6    0    0 -0.14531271579E+03  0.12555659536E+01  0.59686132019E+02  0.15710809623E+03  0.17770000000E+01 0.  1.
         16    1    6    6    0    0 -0.51272576109E+02 -0.50664215738E+02  0.45425850293E+02  0.85201218841E+02  0.00000000000E+00 0. -1.
         -5    1    3    3    0  503  0.10262108081E+03 -0.38977409306E+02 -0.30952989439E+02  0.11415122521E+03  0.47000000000E+01 0.  1.
         15    1    4    4    0    0  0.17397986366E+01  0.38460804410E+02  0.25201521145E+01  0.38623429041E+02  0.17770000000E+01 0. -1.
        -16    1    4    4    0    0  0.88033607600E+02  0.15465621018E+02  0.61066234139E+02  0.10825057253E+03  0.00000000000E+00 0.  1.
<mgrwt>
<rscale>  2 0.25858580E+03</rscale>
<asrwt>0</asrwt>
<pdfrwt beam="1">  1       21 0.56490852E-01 0.25897728E+03</pdfrwt>
<pdfrwt beam="2">  1       21 0.29133954E-01 0.25897728E+03</pdfrwt>
<totfact> 0.32196989E+04</totfact>
</mgrwt>
</event>
<event>
12    2  0.4090627E-002  0.2253638E+03  0.7546771E-02  0.1130628E+00
         21   -1    0    0  501  502  0.00000000000E+00  0.00000000000E+00  0.35873804936E+03  0.35873804936E+03  0.00000000000E+00 0. -1.
         21   -1    0    0  502  503 -0.00000000000E+00 -0.00000000000E+00 -0.14476958707E+03  0.14476958707E+03  0.00000000000E+00 0. -1.
         -6    2    1    2    0  503 -0.14395086105E+03  0.42134038708E+01  0.56912799741E+02  0.22881631436E+03  0.16845840963E+03 0.  0.
        -24    2    3    3    0    0 -0.15136065080E+03  0.44677665619E+02  0.14754252828E+02  0.16972575217E+03  0.60687746339E+02 0.  0.
          6    2    1    2  501    0  0.14395086105E+03 -0.42134038708E+01  0.15705566256E+03  0.27469132207E+03  0.17334716065E+03 0.  0.
         24    2    5    5    0    0  0.16184123442E+03  0.12664999244E+02  0.16815779013E+03  0.24729984187E+03  0.80790977467E+02 0.  0.
          5    1    5    5  501    0 -0.17890373364E+02 -0.16878403115E+02 -0.11102127577E+02  0.27391480200E+02  0.47000000000E+01 0. -1.
        -15    1    6    6    0    0  0.16376038603E+02  0.26845438598E+02  0.51187797855E+02  0.60101585604E+02  0.17770000000E+01 0.  1.
         16    1    6    6    0    0  0.14546519581E+03 -0.14180439353E+02  0.11696999228E+03  0.18719825626E+03  0.00000000000E+00 0. -1.
         -5    1    3    3    0  503  0.74097897483E+01 -0.40464261748E+02  0.42158546913E+02  0.59090562197E+02  0.47000000000E+01 0.  1.
         15    1    4    4    0    0 -0.48040798695E+02  0.42606762695E+02 -0.53067456159E+01  0.64455983777E+02  0.17770000000E+01 0. -1.
        -16    1    4    4    0    0 -0.10331985211E+03  0.20709029243E+01  0.20060998444E+02  0.10526976839E+03  0.00000000000E+00 0.  1.
<mgrwt>
<rscale>  2 0.22442334E+03</rscale>
<asrwt>0</asrwt>
<pdfrwt beam="1">  1       21 0.55190469E-01 0.22536380E+03</pdfrwt>
<pdfrwt beam="2">  1       21 0.22272244E-01 0.22536380E+03</pdfrwt>
<totfact> 0.57539073E+04</totfact>
</mgrwt>
</event>
<event>
12    2  0.4090627E-002  0.1800519E+03  0.7546771E-02  0.1168858E+00
         21   -1    0    0  501  502  0.00000000000E+00  0.00000000000E+00  0.87223132589E+03  0.87223132589E+03  0.00000000000E+00 0. -1.
         21   -1    0    0  502  503 -0.00000000000E+00 -0.00000000000E+00 -0.44682835741E+02  0.44682835741E+02  0.00000000000E+00 0. -1.
         -6    2    1    2    0  503 -0.44896741158E+02  0.13454305211E+02  0.21879120794E+03  0.28335189574E+03  0.17384466760E+03 0.  0.
        -24    2    3    3    0    0  0.13389979611E+02  0.47957827122E+02  0.18298768146E+03  0.20659372125E+03  0.81958705200E+02 0.  0.
          6    2    1    2  501    0  0.44896741158E+02 -0.13454305211E+02  0.60875728221E+03  0.63356226590E+03  0.16917145275E+03 0.  0.
         24    2    5    5    0    0  0.43892882268E+01  0.53445531623E+02  0.29394066968E+03  0.30914273591E+03  0.79324795435E+02 0.  0.
          5    1    5    5  501    0  0.40507452931E+02 -0.66899836834E+02  0.31481661253E+03  0.32441952998E+03  0.47000000000E+01 0. -1.
        -15    1    6    6    0    0 -0.35922440874E+02  0.12050400020E+02  0.12079233913E+03  0.12660798087E+03  0.17770000000E+01 0.  1.
         16    1    6    6    0    0  0.40311729101E+02  0.41395131603E+02  0.17314833056E+03  0.18253475504E+03  0.00000000000E+00 0. -1.
         -5    1    3    3    0  503 -0.58286720769E+02 -0.34503521911E+02  0.35803526478E+02  0.76758174486E+02  0.47000000000E+01 0.  1.
         15    1    4    4    0    0 -0.34101387737E+02  0.17413854573E+02  0.89718370606E+02  0.97563777755E+02  0.17770000000E+01 0. -1.
        -16    1    4    4    0    0  0.47491367348E+02  0.30543972549E+02  0.93269310856E+02  0.10902994350E+03  0.00000000000E+00 0.  1.
<mgrwt>
<rscale>  2 0.17891424E+03</rscale>
<asrwt>0</asrwt>
<pdfrwt beam="1">  1       21 0.13418942E+00 0.18005195E+03</pdfrwt>
<pdfrwt beam="2">  1       21 0.68742830E-02 0.18005195E+03</pdfrwt>
<totfact> 0.62658530E+04</totfact>
</mgrwt>
</event>
<event>
12    2  0.4090627E-002  0.1779897E+03  0.7546771E-02  0.1170168E+00
         21   -1    0    0  503  502  0.00000000000E+00  0.00000000000E+00  0.75603950489E+03  0.75603950489E+03  0.00000000000E+00 0. -1.
         21   -1    0    0  501  503 -0.00000000000E+00 -0.00000000000E+00 -0.44823846136E+02  0.44823846136E+02  0.00000000000E+00 0. -1.
          6    2    1    2  501    0 -0.25587766220E+01 -0.32595195695E+02  0.24837587783E+03  0.30556655623E+03  0.17496099417E+03 0.  0.
         24    2    3    3    0    0  0.64709464245E+02 -0.18977199544E+02  0.11914033779E+03  0.15916170366E+03  0.81182380833E+02 0.  0.
         -6    2    1    2    0  502  0.25587766220E+01  0.32595195695E+02  0.46283978093E+03  0.49529679479E+03  0.17328952075E+03 0.  0.
        -24    2    5    5    0    0  0.45115897106E+02  0.43727418768E+02  0.16721810618E+03  0.19638326302E+03  0.81590193268E+02 0.  0.
          5    1    3    3  501    0 -0.67268240867E+02 -0.13617996151E+02  0.12923554003E+03  0.14640485257E+03  0.47000000000E+01 0. -1.
        -15    1    4    4    0    0  0.48152552769E+02  0.17563324225E+02  0.10459051105E+03  0.11648807418E+03  0.17770000000E+01 0.  1.
         16    1    4    4    0    0  0.16556911477E+02 -0.36540523769E+02  0.14549826749E+02  0.42673629485E+02  0.00000000000E+00 0. -1.
         -5    1    5    5    0  502 -0.42557120484E+02 -0.11132223073E+02  0.29562167475E+03  0.29891353177E+03  0.47000000000E+01 0.  1.
         15    1    6    6    0    0  0.21799459948E+01  0.34411093156E+02  0.14111847553E+03  0.14528061592E+03  0.17770000000E+01 0. -1.
        -16    1    6    6    0    0  0.42935951111E+02  0.93163256121E+01  0.26099630642E+02  0.51102647098E+02  0.00000000000E+00 0.  1.
<mgrwt>
<rscale>  2 0.17757761E+03</rscale>
<asrwt>0</asrwt>
<pdfrwt beam="1">  1       21 0.11631376E+00 0.17798973E+03</pdfrwt>
<pdfrwt beam="2">  1       21 0.68959769E-02 0.17798973E+03</pdfrwt>
<totfact> 0.89094099E+04</totfact>
</mgrwt>
</event>
<event>
12    2  0.4090627E-002  0.2944919E+03  0.7546771E-02  0.1088138E+00
         21   -1    0    0  503  502  0.00000000000E+00  0.00000000000E+00  0.23576472566E+03  0.23576472566E+03  0.00000000000E+00 0. -1.
         21   -1    0    0  501  503 -0.00000000000E+00 -0.00000000000E+00 -0.43777211268E+03  0.43777211268E+03  0.00000000000E+00 0.  1.
          6    2    1    2  501    0  0.96367126609E+02 -0.21770179443E+03 -0.23676303392E+03  0.37786530014E+03  0.17333423329E+03 0.  0.
         24    2    3    3    0    0  0.10357914487E+03 -0.22894563416E+03 -0.18248104421E+03  0.32176662327E+03  0.84200271398E+02 0.  0.
         -6    2    1    2    0  502 -0.96367126609E+02  0.21770179443E+03  0.34755646895E+02  0.29567153820E+03  0.17185170678E+03 0.  0.
        -24    2    5    5    0    0 -0.10279029049E+01  0.17201775206E+03  0.16646533453E+02  0.18830939733E+03  0.74780735749E+02 0.  0.
          5    1    3    3  501    0 -0.72120182650E+01  0.11243839729E+02 -0.54281989709E+02  0.56098676866E+02  0.47000000000E+01 0. -1.
        -15    1    4    4    0    0 -0.86206493140E+01 -0.68936359707E+02 -0.44117231506E+02  0.82316615145E+02  0.17770000000E+01 0.  1.
         16    1    4    4    0    0  0.11219979419E+03 -0.16000927445E+03 -0.13836381270E+03  0.23945000813E+03  0.00000000000E+00 0. -1.
         -5    1    5    5    0  502 -0.95339223704E+02  0.45684042373E+02  0.18109113442E+02  0.10736214088E+03  0.47000000000E+01 0.  1.
         15    1    6    6    0    0 -0.21594458476E+02  0.10931432719E+02  0.84892265196E+01  0.25710728385E+02  0.17770000000E+01 0. -1.
        -16    1    6    6    0    0  0.20566555571E+02  0.16108631934E+03  0.81573069339E+01  0.16259866894E+03  0.00000000000E+00 0.  1.
<mgrwt>
<rscale>  2 0.29427407E+03</rscale>
<asrwt>0</asrwt>
<pdfrwt beam="1">  1       21 0.36271496E-01 0.29449185E+03</pdfrwt>
<pdfrwt beam="2">  1       21 0.67349555E-01 0.29449185E+03</pdfrwt>
<totfact> 0.13999042E+04</totfact>
</mgrwt>
</event>
<event>
12    2  0.4090627E-002  0.1883777E+03  0.7546771E-02  0.1160006E+00
         21   -1    0    0  501  502  0.00000000000E+00  0.00000000000E+00  0.11660534258E+03  0.11660534258E+03  0.00000000000E+00 0. -1.
         21   -1    0    0  502  503 -0.00000000000E+00 -0.00000000000E+00 -0.30597364556E+03  0.30597364556E+03  0.00000000000E+00 0. -1.
         -6    2    1    2    0  503  0.72465310300E+02 -0.15928836798E+02 -0.11238869170E+03  0.21907953473E+03  0.17279952395E+03 0.  0.
        -24    2    3    3    0    0  0.20801931129E+02 -0.36948195020E+02  0.38654959937E+01  0.90052234038E+02  0.79350950480E+02 0.  0.
          6    2    1    2  501    0 -0.72465310300E+02  0.15928836798E+02 -0.76979611285E+02  0.20349945342E+03  0.17315085316E+03 0.  0.
         24    2    5    5    0    0  0.25101980152E+02  0.38465294082E+01 -0.74931434810E+01  0.83017846829E+02  0.78682339167E+02 0.  0.
          5    1    5    5  501    0 -0.97567290452E+02  0.12082307390E+02 -0.69486467804E+02  0.12048160659E+03  0.47000000000E+01 0. -1.
        -15    1    6    6    0    0 -0.11508718239E+02 -0.29119301437E+02  0.60170134322E+01  0.31933469767E+02  0.17770000000E+01 0.  1.
         16    1    6    6    0    0  0.36610698391E+02  0.32965830845E+02 -0.13510156913E+02  0.51084377062E+02  0.00000000000E+00 0. -1.
         -5    1    3    3    0  503  0.51663379171E+02  0.21019358222E+02 -0.11625418769E+03  0.12902730069E+03  0.47000000000E+01 0.  1.
         15    1    4    4    0    0  0.47192532388E+02 -0.38228011096E+02 -0.76335449025E+01  0.61236791902E+02  0.17770000000E+01 0. -1.
        -16    1    4    4    0    0 -0.26390601259E+02  0.12798160765E+01  0.11499040896E+02  0.28815442137E+02  0.00000000000E+00 0.  1.
<mgrwt>
<rscale>  2 0.18829695E+03</rscale>
<asrwt>0</asrwt>
<pdfrwt beam="1">  1       21 0.17939284E-01 0.18837772E+03</pdfrwt>
<pdfrwt beam="2">  1       21 0.47072868E-01 0.18837772E+03</pdfrwt>
<totfact> 0.12219703E+05</totfact>
</mgrwt>
</event>
<event>
12    2  0.4090627E-002  0.2542325E+03  0.7546771E-02  0.1110682E+00
         21   -1    0    0  503  502  0.00000000000E+00  0.00000000000E+00  0.74175676272E+03  0.74175676272E+03  0.00000000000E+00 0.  1.
         21   -1    0    0  501  503 -0.00000000000E+00 -0.00000000000E+00 -0.19108241219E+03  0.19108241219E+03  0.00000000000E+00 0. -1.
          6    2    1    2  501    0 -0.15133887943E+03  0.10746236955E+03 -0.68793276548E+02  0.26323161715E+03  0.17351297379E+03 0.  0.
         24    2    3    3    0    0 -0.12302877237E+03  0.79869095747E+01 -0.23204256678E+02  0.15010656231E+03  0.82423740308E+02 0.  0.
         -6    2    1    2    0  502  0.15133887943E+03 -0.10746236955E+03  0.61946762708E+03  0.66960755776E+03  0.17373118060E+03 0.  0.
        -24    2    5    5    0    0  0.25792336943E+02 -0.78603663379E+02  0.19890526698E+03  0.22973308932E+03  0.79813573748E+02 0.  0.
          5    1    3    3  501    0 -0.28310107066E+02  0.99475459977E+02 -0.45589019870E+02  0.11312505484E+03  0.47000000000E+01 0. -1.
        -15    1    4    4    0    0 -0.44409729847E+02 -0.35365495251E+02  0.20723736369E+01  0.56836562360E+02  0.17770000000E+01 0.  1.
         16    1    4    4    0    0 -0.78619042521E+02  0.43352404825E+02 -0.25276630315E+02  0.93269999953E+02  0.00000000000E+00 0. -1.
         -5    1    5    5    0  502  0.12554654249E+03 -0.28858706173E+02  0.42056236009E+03  0.43987446844E+03  0.47000000000E+01 0.  1.
         15    1    6    6    0    0 -0.10686461372E+02 -0.13550377060E+02  0.11965625796E+03  0.12090736526E+03  0.17770000000E+01 0. -1.
        -16    1    6    6    0    0  0.36478798316E+02 -0.65053286319E+02  0.79249009022E+02  0.10882572407E+03  0.00000000000E+00 0.  1.
<mgrwt>
<rscale>  2 0.25419518E+03</rscale>
<asrwt>0</asrwt>
<pdfrwt beam="1">  1       21 0.11411642E+00 0.25423245E+03</pdfrwt>
<pdfrwt beam="2">  1       21 0.29397295E-01 0.25423245E+03</pdfrwt>
<totfact> 0.63467887E+03</totfact>
</mgrwt>
</event>
<event>
12    2  0.4090627E-002  0.2220312E+03  0.7546771E-02  0.1132758E+00
         21   -1    0    0  503  502  0.00000000000E+00  0.00000000000E+00  0.69358051299E+03  0.69358051299E+03  0.00000000000E+00 0.  1.
         21   -1    0    0  501  503 -0.00000000000E+00 -0.00000000000E+00 -0.70829857529E+02  0.70829857529E+02  0.00000000000E+00 0. -1.
          6    2    1    2  501    0 -0.28308314666E+02 -0.13383209451E+03  0.33898293263E+03  0.40410218271E+03  0.17226942637E+03 0.  0.
         24    2    3    3    0    0  0.47702280985E+02 -0.85551371185E+02  0.21324468284E+03  0.24937391653E+03  0.84377193386E+02 0.  0.
         -6    2    1    2    0  502  0.28308314666E+02  0.13383209451E+03  0.28376772283E+03  0.36030818780E+03  0.17488704777E+03 0.  0.
        -24    2    5    5    0    0  0.15065787709E+02  0.10082306309E+03  0.29552620041E+03  0.32255487708E+03  0.79458451957E+02 0.  0.
          5    1    3    3  501    0 -0.76010595651E+02 -0.48280723322E+02  0.12573824979E+03  0.15472826618E+03  0.47000000000E+01 0. -1.
        -15    1    4    4    0    0 -0.19786619002E+02 -0.43378337657E+02  0.10186042026E+03  0.11248063573E+03  0.17770000000E+01 0.  1.
         16    1    4    4    0    0  0.67488899986E+02 -0.42173033528E+02  0.11138426258E+03  0.13689328080E+03  0.00000000000E+00 0. -1.
         -5    1    5    5    0  502  0.13242526957E+02  0.33009031416E+02 -0.11758477587E+02  0.37753310721E+02  0.47000000000E+01 0.  1.
         15    1    6    6    0    0  0.34270726018E+02  0.99763979435E+02  0.21147029878E+03  0.23632642520E+03  0.17770000000E+01 0. -1.
        -16    1    6    6    0    0 -0.19204938308E+02  0.10590836557E+01  0.84055901636E+02  0.86228451880E+02  0.00000000000E+00 0.  1.
<mgrwt>
<rscale>  2 0.22151546E+03</rscale>
<asrwt>0</asrwt>
<pdfrwt beam="1">  1       21 0.10670469E+00 0.22203124E+03</pdfrwt>
<pdfrwt beam="2">  1       21 0.10896902E-01 0.22203124E+03</pdfrwt>
<totfact> 0.48259566E+04</totfact>
</mgrwt>
</event>
<event>
12    2  0.4090627E-002  0.1865479E+03  0.7546771E-02  0.1161920E+00
         21   -1    0    0  501  502  0.00000000000E+00  0.00000000000E+00  0.58365644373E+02  0.58365644373E+02  0.00000000000E+00 0. -1.
         21   -1    0    0  502  503 -0.00000000000E+00 -0.00000000000E+00 -0.59211491719E+03  0.59211491719E+03  0.00000000000E+00 0.  1.
         -6    2    1    2    0  503 -0.61570409702E+02  0.24807005420E+02 -0.27224146005E+03  0.33002353147E+03  0.17433822268E+03 0.  0.
        -24    2    3    3    0    0 -0.10081510863E+02  0.45410419236E+02 -0.25557766598E+03  0.27192551604E+03  0.80372880325E+02 0.  0.
          6    2    1    2  501    0  0.61570409702E+02 -0.24807005420E+02 -0.26150781277E+03  0.32045703009E+03  0.17291636454E+03 0.  0.
         24    2    5    5    0    0  0.24837139821E+02  0.23474660291E+02 -0.24153869901E+03  0.25641557583E+03  0.78994058096E+02 0.  0.
          5    1    5    5  501    0  0.36733269882E+02 -0.48281665711E+02 -0.19969113754E+02  0.64041454263E+02  0.47000000000E+01 0. -1.
        -15    1    6    6    0    0  0.53370022055E+02  0.15608501057E+02 -0.13993174797E+03  0.15058564466E+03  0.17770000000E+01 0.  1.
         16    1    6    6    0    0 -0.28532882234E+02  0.78661592340E+01 -0.10160695104E+03  0.10582993116E+03  0.00000000000E+00 0. -1.
         -5    1    3    3    0  503 -0.51488898839E+02 -0.20603413816E+02 -0.16663794076E+02  0.58098015435E+02  0.47000000000E+01 0.  1.
         15    1    4    4    0    0 -0.31634369823E+01 -0.20964830525E+00  0.56149666408E+01  0.66885622768E+01  0.17770000000E+01 0. -1.
        -16    1    4    4    0    0 -0.69180738812E+01  0.45620067541E+02 -0.26119263262E+03  0.26523695376E+03  0.00000000000E+00 0.  1.
<mgrwt>
<rscale>  2 0.18621498E+03</rscale>
<asrwt>0</asrwt>
<pdfrwt beam="1">  1       21 0.89793302E-02 0.18654790E+03</pdfrwt>
<pdfrwt beam="2">  1       21 0.91094600E-01 0.18654790E+03</pdfrwt>
<totfact> 0.10043738E+05</totfact>
</mgrwt>
</event>
<event>
12    2  0.4090627E-002  0.2152887E+03  0.7546771E-02  0.1137608E+00
         21   -1    0    0  501  502  0.00000000000E+00  0.00000000000E+00  0.31574796527E+03  0.31574796527E+03  0.00000000000E+00 0. -1.
         21   -1    0    0  502  503 -0.00000000000E+00 -0.00000000000E+00 -0.14866591741E+03  0.14866591741E+03  0.00000000000E+00 0. -1.
         -6    2    1    2    0  503  0.12632719410E+03 -0.19588884254E+02  0.11351820429E+03  0.24338365082E+03  0.17322509756E+03 0.  0.
        -24    2    3    3    0    0  0.74362250059E+02  0.55036207376E+02  0.53581112995E+02  0.13437078633E+03  0.81399288659E+02 0.  0.
          6    2    1    2  501    0 -0.12632719410E+03  0.19588884254E+02  0.53563843565E+02  0.22103023186E+03  0.17217140792E+03 0.  0.
         24    2    5    5    0    0 -0.51585796377E+02  0.54879948313E+02 -0.28496334745E+02  0.10446394771E+03  0.66541507071E+02 0.  0.
          5    1    5    5  501    0 -0.74741397719E+02 -0.35291064059E+02  0.82060178310E+02  0.11656628415E+03  0.47000000000E+01 0. -1.
        -15    1    6    6    0    0 -0.33430430664E+02 -0.66431218467E+01 -0.20519848987E+02  0.39823946235E+02  0.17770000000E+01 0.  1.
         16    1    6    6    0    0 -0.18155365712E+02  0.61523070160E+02 -0.79764857577E+01  0.64640001478E+02  0.00000000000E+00 0. -1.
         -5    1    3    3    0  503  0.51964944036E+02 -0.74625091630E+02  0.59937091296E+02  0.10901286448E+03  0.47000000000E+01 0.  1.
         15    1    4    4    0    0  0.44236152500E+02 -0.13851579817E+02  0.31268747032E+02  0.55942789718E+02  0.17770000000E+01 0. -1.
        -16    1    4    4    0    0  0.30126097559E+02  0.68887787193E+02  0.22312365963E+02  0.78427996617E+02  0.00000000000E+00 0.  1.
<mgrwt>
<rscale>  2 0.21507665E+03</rscale>
<asrwt>0</asrwt>
<pdfrwt beam="1">  1       21 0.48576610E-01 0.21528869E+03</pdfrwt>
<pdfrwt beam="2">  1       21 0.22871680E-01 0.21528869E+03</pdfrwt>
<totfact> 0.71868926E+04</totfact>
</mgrwt>
</event>
<event>
12    2  0.4090627E-002  0.1872759E+03  0.7546771E-02  0.1162897E+00
         21   -1    0    0  503  502  0.00000000000E+00  0.00000000000E+00  0.72893632433E+02  0.72893632433E+02  0.00000000000E+00 0. -1.
         21   -1    0    0  501  503 -0.00000000000E+00 -0.00000000000E+00 -0.94935534565E+03  0.94935534565E+03  0.00000000000E+00 0. -1.
          6    2    1    2  501    0 -0.24912597115E+02 -0.39069285740E+02 -0.80031968430E+03  0.82008601185E+03  0.17286533248E+03 0.  0.
         24    2    3    3    0    0 -0.43678343688E+02  0.26077153147E+02 -0.61815624393E+03  0.62565910849E+03  0.82124067735E+02 0.  0.
         -6    2    1    2    0  502  0.24912597115E+02  0.39069285740E+02 -0.76142028926E+02  0.20216296624E+03  0.18145305114E+03 0.  0.
        -24    2    5    5    0    0  0.66733560453E+02  0.75373539610E+02 -0.69793040357E+02  0.14622200200E+03  0.79845268011E+02 0.  0.
          5    1    3    3  501    0  0.18765746573E+02 -0.65146438887E+02 -0.18216344036E+03  0.19442690336E+03  0.47000000000E+01 0. -1.
        -15    1    4    4    0    0  0.54266871394E+01 -0.15412073548E+02 -0.31866138591E+02  0.35855117655E+02  0.17770000000E+01 0.  1.
         16    1    4    4    0    0 -0.49105030828E+02  0.41489226696E+02 -0.58629010534E+03  0.58980399084E+03  0.00000000000E+00 0. -1.
         -5    1    5    5    0  502 -0.41820963338E+02 -0.36304253870E+02 -0.63489885689E+01  0.55940964234E+02  0.47000000000E+01 0.  1.
         15    1    6    6    0    0  0.29124667053E+02  0.34103224727E+02  0.12667498719E+02  0.46635816928E+02  0.17770000000E+01 0. -1.
        -16    1    6    6    0    0  0.37608893401E+02  0.41270314883E+02 -0.82460539076E+02  0.99586185077E+02  0.00000000000E+00 0.  1.
<mgrwt>
<rscale>  2 0.18516338E+03</rscale>
<asrwt>0</asrwt>
<pdfrwt beam="1">  1       21 0.11214405E-01 0.18727588E+03</pdfrwt>
<pdfrwt beam="2">  1       21 0.14605466E+00 0.18727588E+03</pdfrwt>
<totfact> 0.21301382E+04</totfact>
</mgrwt>
</event>
<event>
12    2  0.4090627E-002  0.1763657E+03  0.7546771E-02  0.1171385E+00
         21   -1    0    0  503  502  0.00000000000E+00  0.00000000000E+00  0.22485386861E+03  0.22485386861E+03  0.00000000000E+00 0. -1.
         21   -1    0    0  501  503 -0.00000000000E+00 -0.00000000000E+00 -0.47011569735E+03  0.47011569735E+03  0.00000000000E+00 0. -1.
          6    2    1    2  501    0 -0.31231524737E+02 -0.14307820158E+02 -0.41458076882E+03  0.45053533668E+03  0.17298772751E+03 0.  0.
         24    2    3    3    0    0  0.24951972603E+02 -0.68862482574E+01 -0.36464398803E+03  0.37485550332E+03  0.82954137972E+02 0.  0.
         -6    2    1    2    0  502  0.31231524737E+02  0.14307820158E+02  0.16931894008E+03  0.24443422928E+03  0.17291346714E+03 0.  0.
        -24    2    5    5    0    0 -0.37221400175E+02  0.33748040997E+02  0.56200286827E+02  0.11071196177E+03  0.81082077778E+02 0.  0.
          5    1    3    3  501    0 -0.56183497340E+02 -0.74215719008E+01 -0.49936780791E+02  0.75679833368E+02  0.47000000000E+01 0. -1.
        -15    1    4    4    0    0  0.53947147522E+02  0.75564222083E+01 -0.22719939647E+03  0.23364528184E+03  0.17770000000E+01 0.  1.
         16    1    4    4    0    0 -0.28995174919E+02 -0.14442670466E+02 -0.13744459156E+03  0.14121022147E+03  0.00000000000E+00 0. -1.
         -5    1    5    5    0  502  0.68452924912E+02 -0.19440220838E+02  0.11311865325E+03  0.13372226751E+03  0.47000000000E+01 0.  1.
         15    1    6    6    0    0 -0.33603858912E+02  0.36546130509E+02  0.75776038998E+02  0.90609076831E+02  0.17770000000E+01 0. -1.
        -16    1    6    6    0    0 -0.36175412631E+01 -0.27980895122E+01 -0.19575752171E+02  0.20102884936E+02  0.00000000000E+00 0.  1.
<mgrwt>
<rscale>  2 0.17634753E+03</rscale>
<asrwt>0</asrwt>
<pdfrwt beam="1">  1       21 0.34592903E-01 0.17636574E+03</pdfrwt>
<pdfrwt beam="2">  1       21 0.72325491E-01 0.17636574E+03</pdfrwt>
<totfact> 0.14032095E+04</totfact>
</mgrwt>
</event>
<event>
12    2  0.4090627E-002  0.1891440E+03  0.7546771E-02  0.1159672E+00
         21   -1    0    0  501  502  0.00000000000E+00  0.00000000000E+00  0.63368494038E+03  0.63368494038E+03  0.00000000000E+00 0. -1.
         21   -1    0    0  502  503 -0.00000000000E+00 -0.00000000000E+00 -0.56220046564E+02  0.56220046564E+02  0.00000000000E+00 0. -1.
         -6    2    1    2    0  503  0.11520112592E-01 -0.75616947107E+02  0.26070055430E+03  0.32096719306E+03  0.17128116413E+03 0.  0.
        -24    2    3    3    0    0 -0.40644741978E+02 -0.99339586233E+02  0.14880009508E+03  0.19947851858E+03  0.78293439276E+02 0.  0.
          6    2    1    2  501    0 -0.11520112592E-01  0.75616947107E+02  0.31676433952E+03  0.36893779388E+03  0.17337106490E+03 0.  0.
         24    2    5    5    0    0  0.41904035833E+02  0.92508712375E+00  0.95978990779E+02  0.13207486307E+03  0.80467377104E+02 0.  0.
          5    1    5    5  501    0 -0.41915555946E+02  0.74691859983E+02  0.22078534874E+03  0.23686293082E+03  0.47000000000E+01 0. -1.
        -15    1    6    6    0    0 -0.51941410865E+01  0.10924469324E+02  0.80612282119E+02  0.81534170071E+02  0.17770000000E+01 0.  1.
         16    1    6    6    0    0  0.47098176920E+02 -0.99993822001E+01  0.15366708659E+02  0.50540692997E+02  0.00000000000E+00 0. -1.
         -5    1    3    3    0  503  0.40656262091E+02  0.23722639127E+02  0.11190045922E+03  0.12148867448E+03  0.47000000000E+01 0.  1.
         15    1    4    4    0    0 -0.45206471095E+02 -0.42317417543E+02  0.12086939264E+03  0.13581957393E+03  0.17770000000E+01 0. -1.
        -16    1    4    4    0    0  0.45617291163E+01 -0.57022168691E+02  0.27930702443E+02  0.63658944648E+02  0.00000000000E+00 0.  1.
<mgrwt>
<rscale>  2 0.18866372E+03</rscale>
<asrwt>0</asrwt>
<pdfrwt beam="1">  1       21 0.97489986E-01 0.18914399E+03</pdfrwt>
<pdfrwt beam="2">  1       21 0.86492384E-02 0.18914399E+03</pdfrwt>
<totfact> 0.91431262E+04</totfact>
</mgrwt>
</event>
<event>
12    2  0.4090627E-002  0.1804659E+03  0.7546771E-02  0.1167642E+00
         21   -1    0    0  501  502  0.00000000000E+00  0.00000000000E+00  0.15237472225E+03  0.15237472225E+03  0.00000000000E+00 0.  1.
         21   -1    0    0  502  503 -0.00000000000E+00 -0.00000000000E+00 -0.22857836434E+03  0.22857836434E+03  0.00000000000E+00 0.  1.
         -6    2    1    2    0  503  0.19217153779E+02 -0.44870460097E+02 -0.89011797799E+02  0.20122390325E+03  0.17373917780E+03 0.  0.
        -24    2    3    3    0    0 -0.37870638358E+01 -0.84547467105E+02 -0.10031422754E+03  0.15375503102E+03  0.80094002710E+02 0.  0.
          6    2    1    2  501    0 -0.19217153779E+02  0.44870460097E+02  0.12808155714E+02  0.17972918334E+03  0.17249890812E+03 0.  0.
         24    2    5    5    0    0 -0.64352481379E+02  0.16151769417E+02  0.48837227206E+02  0.11505967750E+03  0.80321436187E+02 0.  0.
          5    1    5    5  501    0  0.45135327600E+02  0.28718690680E+02 -0.36029071492E+02  0.64669505832E+02  0.47000000000E+01 0. -1.
        -15    1    6    6    0    0 -0.55453323038E+02  0.46589864499E+02  0.34992614727E+02  0.80456990526E+02  0.17770000000E+01 0.  1.
         16    1    6    6    0    0 -0.88991583411E+01 -0.30438095082E+02  0.13844612478E+02  0.34602686978E+02  0.00000000000E+00 0. -1.
         -5    1    3    3    0  503  0.23004217615E+02  0.39677007008E+02  0.11302429740E+02  0.47468872234E+02  0.47000000000E+01 0.  1.
         15    1    4    4    0    0  0.20092280492E+02  0.55334171532E+01 -0.31904370928E+02  0.38149247097E+02  0.17770000000E+01 0. -1.
        -16    1    4    4    0    0 -0.23879344328E+02 -0.90080884258E+02 -0.68409856610E+02  0.11560578392E+03  0.00000000000E+00 0.  1.
<mgrwt>
<rscale>  2 0.18016678E+03</rscale>
<asrwt>0</asrwt>
<pdfrwt beam="1">  1       21 0.23442265E-01 0.18046595E+03</pdfrwt>
<pdfrwt beam="2">  1       21 0.35165902E-01 0.18046595E+03</pdfrwt>
<totfact> 0.13400726E+05</totfact>
</mgrwt>
</event>
<event>
12    2  0.4090627E-002  0.1938690E+03  0.7546771E-02  0.1155062E+00
         21   -1    0    0  503  502  0.00000000000E+00  0.00000000000E+00  0.30743185326E+03  0.30743185326E+03  0.00000000000E+00 0.  1.
         21   -1    0    0  501  503 -0.00000000000E+00 -0.00000000000E+00 -0.43235998187E+03  0.43235998187E+03  0.00000000000E+00 0.  1.
          6    2    1    2  501    0  0.44035393814E+02 -0.73801234113E+02 -0.37578343955E+03  0.42275305089E+03  0.17355463271E+03 0.  0.
         24    2    3    3    0    0  0.65534417140E+02 -0.47074235239E+02 -0.37052434076E+03  0.38773464726E+03  0.80864863426E+02 0.  0.
         -6    2    1    2    0  502 -0.44035393814E+02  0.73801234113E+02  0.25085531093E+03  0.31703878424E+03  0.17377993447E+03 0.  0.
        -24    2    5    5    0    0 -0.31881409872E+02  0.27261259466E+02  0.25317619717E+03  0.26865319673E+03  0.79478001572E+02 0.  0.
          5    1    3    3  501    0 -0.21499023326E+02 -0.26726998874E+02 -0.52590987875E+01  0.35018403631E+02  0.47000000000E+01 0. -1.
        -15    1    4    4    0    0  0.68160880855E+02 -0.31816422898E+02 -0.16182672424E+03  0.17846354489E+03  0.17770000000E+01 0.  1.
         16    1    4    4    0    0 -0.26264637146E+01 -0.15257812341E+02 -0.20869761652E+03  0.20927110237E+03  0.00000000000E+00 0. -1.
         -5    1    5    5    0  502 -0.12153983942E+02  0.46539974647E+02 -0.23208862422E+01  0.48385587511E+02  0.47000000000E+01 0.  1.
         15    1    6    6    0    0  0.24471625896E+02 -0.22720529098E+01  0.95427548457E+02  0.98557584345E+02  0.17770000000E+01 0. -1.
        -16    1    6    6    0    0 -0.56353035768E+02  0.29533312376E+02  0.15774864872E+03  0.17009561238E+03  0.00000000000E+00 0.  1.
<mgrwt>
<rscale>  2 0.19381854E+03</rscale>
<asrwt>0</asrwt>
<pdfrwt beam="1">  1       21 0.47297208E-01 0.19386904E+03</pdfrwt>
<pdfrwt beam="2">  1       21 0.66516920E-01 0.19386904E+03</pdfrwt>
<totfact> 0.88562605E+03</totfact>
</mgrwt>
</event>
<event>
12    2  0.4090627E-002  0.1956229E+03  0.7546771E-02  0.1153906E+00
         21   -1    0    0  501  502  0.00000000000E+00  0.00000000000E+00  0.33832538767E+03  0.33832538767E+03  0.00000000000E+00 0. -1.
         21   -1    0    0  502  503 -0.00000000000E+00 -0.00000000000E+00 -0.14234708518E+03  0.14234708518E+03  0.00000000000E+00 0. -1.
         -6    2    1    2    0  503 -0.61627883987E+02 -0.61059702296E+02 -0.12600468109E+02  0.19602831407E+03  0.17533409477E+03 0.  0.
        -24    2    3    3    0    0 -0.11125418191E+01 -0.59860860713E+02 -0.67154888346E+02  0.11440834944E+03  0.70674825767E+02 0.  0.
          6    2    1    2  501    0  0.61627883987E+02  0.61059702296E+02  0.20857877060E+03  0.28464415878E+03  0.17317883893E+03 0.  0.
         24    2    5    5    0    0 -0.62104916887E+01  0.78724097762E+02  0.17191867539E+03  0.20539689598E+03  0.79973746645E+02 0.  0.
          5    1    5    5  501    0  0.67838375675E+02 -0.17664395466E+02  0.36660095204E+02  0.79247262803E+02  0.47000000000E+01 0. -1.
        -15    1    6    6    0    0 -0.55637089455E+01 -0.59794778917E+01 -0.46472768036E+01  0.95636773145E+01  0.17770000000E+01 0.  1.
         16    1    6    6    0    0 -0.64678274317E+00  0.84703575654E+02  0.17656595220E+03  0.19583321866E+03  0.00000000000E+00 0. -1.
         -5    1    3    3    0  503 -0.60515342168E+02 -0.11988415825E+01  0.54554420238E+02  0.81619964630E+02  0.47000000000E+01 0.  1.
         15    1    4    4    0    0 -0.29576610319E+02 -0.56472029294E+02 -0.49642790153E+02  0.80817264948E+02  0.17770000000E+01 0. -1.
        -16    1    4    4    0    0  0.28464068500E+02 -0.33888314196E+01 -0.17512098193E+02  0.33591084488E+02  0.00000000000E+00 0.  1.
<mgrwt>
<rscale>  2 0.19513879E+03</rscale>
<asrwt>0</asrwt>
<pdfrwt beam="1">  1       21 0.52050059E-01 0.19562292E+03</pdfrwt>
<pdfrwt beam="2">  1       21 0.21899552E-01 0.19562292E+03</pdfrwt>
<totfact> 0.68121194E+04</totfact>
</mgrwt>
</event>
<event>
12    2  0.4090627E-002  0.2511924E+03  0.7546771E-02  0.1112861E+00
         21   -1    0    0  501  502  0.00000000000E+00  0.00000000000E+00  0.58792646217E+02  0.58792646217E+02  0.00000000000E+00 0. -1.
         21   -1    0    0  502  503 -0.00000000000E+00 -0.00000000000E+00 -0.11243916112E+04  0.11243916112E+04  0.00000000000E+00 0.  1.
         -6    2    1    2    0  503  0.16595388685E+03  0.74656729515E+02 -0.39477784663E+03  0.46687525594E+03  0.17031921968E+03 0.  0.
        -24    2    3    3    0    0  0.76822492278E+02  0.10664796106E+03 -0.23526018143E+03  0.28130634715E+03  0.80687205096E+02 0.  0.
          6    2    1    2  501    0 -0.16595388685E+03 -0.74656729515E+02 -0.67082111834E+03  0.71630900147E+03  0.17315684495E+03 0.  0.
         24    2    5    5    0    0 -0.13836249766E+03 -0.48148332730E+02 -0.65236054231E+03  0.67356718676E+03  0.81584527988E+02 0.  0.
          5    1    5    5  501    0 -0.27591389192E+02 -0.26508396784E+02 -0.18460576027E+02  0.42741814712E+02  0.47000000000E+01 0. -1.
        -15    1    6    6    0    0 -0.13524091420E+03 -0.26885179832E+02 -0.46611075208E+03  0.48608158646E+03  0.17770000000E+01 0.  1.
         16    1    6    6    0    0 -0.31215834553E+01 -0.21263152899E+02 -0.18624979023E+03  0.18748560029E+03  0.00000000000E+00 0. -1.
         -5    1    3    3    0  503  0.89131394571E+02 -0.31991231546E+02 -0.15951766521E+03  0.18556890878E+03  0.47000000000E+01 0.  1.
         15    1    4    4    0    0  0.23007283835E+02  0.83618199554E+02 -0.91482828584E+02  0.12606983803E+03  0.17770000000E+01 0. -1.
        -16    1    4    4    0    0  0.53815208443E+02  0.23029761507E+02 -0.14377735284E+03  0.15523650912E+03  0.00000000000E+00 0.  1.
<mgrwt>
<rscale>  2 0.25070406E+03</rscale>
<asrwt>0</asrwt>
<pdfrwt beam="1">  1       21 0.90450227E-02 0.25119238E+03</pdfrwt>
<pdfrwt beam="2">  1       21 0.17298332E+00 0.25119238E+03</pdfrwt>
<totfact> 0.18962014E+04</totfact>
</mgrwt>
</event>
<event>
12    2  0.4090627E-002  0.2182282E+03  0.7546771E-02  0.1135671E+00
         21   -1    0    0  503  502  0.00000000000E+00  0.00000000000E+00  0.77844235610E+03  0.77844235610E+03  0.00000000000E+00 0.  1.
         21   -1    0    0  501  503 -0.00000000000E+00 -0.00000000000E+00 -0.22038899779E+03  0.22038899779E+03  0.00000000000E+00 0.  1.
          6    2    1    2  501    0 -0.12380680742E+03 -0.41991867146E+02 -0.14677951226E+03  0.26098792722E+03  0.17169458485E+03 0.  0.
         24    2    3    3    0    0 -0.54131229505E+02 -0.81039628738E+02 -0.48109924343E+02  0.13395568162E+03  0.78306758226E+02 0.  0.
         -6    2    1    2    0  502  0.12380680742E+03  0.41991867146E+02  0.70483287057E+03  0.73784342667E+03  0.17473438235E+03 0.  0.
        -24    2    5    5    0    0  0.84651564510E+02  0.79264326495E+02  0.33111510929E+03  0.36020679661E+03  0.81627200677E+02 0.  0.
          5    1    3    3  501    0 -0.69675577919E+02  0.39047761592E+02 -0.98669587915E+02  0.12703224560E+03  0.47000000000E+01 0. -1.
        -15    1    4    4    0    0 -0.28498133600E+01 -0.67811848553E+01 -0.42898333840E+02  0.43560655177E+02  0.17770000000E+01 0.  1.
         16    1    4    4    0    0 -0.51281416145E+02 -0.74258443883E+02 -0.52115905030E+01  0.90395026442E+02  0.00000000000E+00 0. -1.
         -5    1    5    5    0  502  0.39155242914E+02 -0.37272459349E+02  0.37371776127E+03  0.37763663006E+03  0.47000000000E+01 0.  1.
         15    1    6    6    0    0  0.55282820485E+02 -0.20462392080E+01  0.13178052228E+03  0.14293229557E+03  0.17770000000E+01 0. -1.
        -16    1    6    6    0    0  0.29368744025E+02  0.81310565703E+02  0.19933458701E+03  0.21727450103E+03  0.00000000000E+00 0.  1.
<mgrwt>
<rscale>  2 0.21761909E+03</rscale>
<asrwt>0</asrwt>
<pdfrwt beam="1">  1       21 0.11976036E+00 0.21822820E+03</pdfrwt>
<pdfrwt beam="2">  1       21 0.33906000E-01 0.21822820E+03</pdfrwt>
<totfact> 0.43578762E+03</totfact>
</mgrwt>
</event>
<event>
12    2  0.4090627E-002  0.1945576E+03  0.7546771E-02  0.1156196E+00
         21   -1    0    0  501  502  0.00000000000E+00  0.00000000000E+00  0.69729320515E+02  0.69729320515E+02  0.00000000000E+00 0. -1.
         21   -1    0    0  502  503 -0.00000000000E+00 -0.00000000000E+00 -0.59329763534E+03  0.59329763534E+03  0.00000000000E+00 0. -1.
         -6    2    1    2    0  503  0.61892782582E+02  0.30644396037E+02 -0.37280965615E+03  0.41689520214E+03  0.17333428486E+03 0.  0.
        -24    2    3    3    0    0  0.45397879909E+02  0.78580953381E+02 -0.17424244665E+03  0.21190490474E+03  0.79418667206E+02 0.  0.
          6    2    1    2  501    0 -0.61892782582E+02 -0.30644396037E+02 -0.15075865868E+03  0.24613175372E+03  0.18188697446E+03 0.  0.
         24    2    5    5    0    0 -0.33044509478E+02 -0.85966079128E+02 -0.13386692125E+03  0.18132332622E+03  0.80471669926E+02 0.  0.
          5    1    5    5  501    0 -0.28848273104E+02  0.55321683091E+02 -0.16891737435E+02  0.64808427497E+02  0.47000000000E+01 0. -1.
        -15    1    6    6    0    0 -0.58046033141E+02 -0.42493343664E+02 -0.73839384164E+02  0.10310401836E+03  0.17770000000E+01 0.  1.
         16    1    6    6    0    0  0.25001523663E+02 -0.43472735465E+02 -0.60027537085E+02  0.78219307864E+02  0.00000000000E+00 0. -1.
         -5    1    3    3    0  503  0.16494902673E+02 -0.47936557343E+02 -0.19856720949E+03  0.20499029740E+03  0.47000000000E+01 0.  1.
         15    1    4    4    0    0 -0.14746344692E+02  0.75962380953E+01 -0.29012092274E+01  0.16933170375E+02  0.17770000000E+01 0. -1.
        -16    1    4    4    0    0  0.60144224600E+02  0.70984715285E+02 -0.17134123743E+03  0.19497173436E+03  0.00000000000E+00 0.  1.
<mgrwt>
<rscale>  2 0.19253350E+03</rscale>
<asrwt>0</asrwt>
<pdfrwt beam="1">  1       21 0.10727588E-01 0.19455762E+03</pdfrwt>
<pdfrwt beam="2">  1       21 0.91276556E-01 0.19455762E+03</pdfrwt>
<totfact> 0.72801385E+04</totfact>
</mgrwt>
</event>
<event>
12    2  0.4090627E-002  0.2331478E+03  0.7546771E-02  0.1124469E+00
         21   -1    0    0  501  502  0.00000000000E+00  0.00000000000E+00  0.29201223824E+03  0.29201223824E+03  0.00000000000E+00 0.  1.
         21   -1    0    0  502  503 -0.00000000000E+00 -0.00000000000E+00 -0.25417101911E+03  0.25417101911E+03  0.00000000000E+00 0.  1.
         -6    2    1    2    0  503  0.78987070602E+02  0.13551266047E+03 -0.12247364170E+03  0.26335846934E+03  0.17249710719E+03 0.  0.
        -24    2    3    3    0    0 -0.25743949892E+02  0.59888890126E+02 -0.67500228921E+02  0.12288887331E+03  0.79347111877E+02 0.  0.
          6    2    1    2  501    0 -0.78987070602E+02 -0.13551266047E+03  0.16031486083E+03  0.28282478801E+03  0.17229732337E+03 0.  0.
         24    2    5    5    0    0  0.58203651191E+01 -0.99322032123E+01  0.68607298066E+02  0.10563810830E+03  0.79497945046E+02 0.  0.
          5    1    5    5  501    0 -0.84807435722E+02 -0.12558045726E+03  0.91707562764E+02  0.17718667971E+03  0.47000000000E+01 0. -1.
        -15    1    6    6    0    0 -0.17188585052E+02 -0.39276340198E+02  0.39675977693E+02  0.58441588705E+02  0.17770000000E+01 0.  1.
         16    1    6    6    0    0  0.23008950171E+02  0.29344136985E+02  0.28931320373E+02  0.47196519596E+02  0.00000000000E+00 0. -1.
         -5    1    3    3    0  503  0.10473102049E+03  0.75623770348E+02 -0.54973412783E+02  0.14046959603E+03  0.47000000000E+01 0.  1.
         15    1    4    4    0    0  0.40371228472E+01  0.65910040365E+01 -0.60973508856E+02  0.61487122280E+02  0.17770000000E+01 0. -1.
        -16    1    4    4    0    0 -0.29781072739E+02  0.53297886090E+02 -0.65267200651E+01  0.61401751033E+02  0.00000000000E+00 0.  1.
<mgrwt>
<rscale>  2 0.23311083E+03</rscale>
<asrwt>0</asrwt>
<pdfrwt beam="1">  1       21 0.44924959E-01 0.23314779E+03</pdfrwt>
<pdfrwt beam="2">  1       21 0.39103234E-01 0.23314779E+03</pdfrwt>
<totfact> 0.29355076E+04</totfact>
</mgrwt>
</event>
<event>
12    2  0.4090627E-002  0.2955952E+03  0.7546771E-02  0.1087551E+00
         21   -1    0    0  501  502  0.00000000000E+00  0.00000000000E+00  0.12795050140E+03  0.12795050140E+03  0.00000000000E+00 0. -1.
         21   -1    0    0  502  503 -0.00000000000E+00 -0.00000000000E+00 -0.85793079233E+03  0.85793079233E+03  0.00000000000E+00 0.  1.
         -6    2    1    2    0  503  0.13495244405E+03 -0.19773431352E+03 -0.58898623582E+03  0.65900024340E+03  0.17339410001E+03 0.  0.
        -24    2    3    3    0    0  0.11622208350E+03 -0.12250963436E+03 -0.52800909398E+03  0.56025875978E+03  0.81117762417E+02 0.  0.
          6    2    1    2  501    0 -0.13495244405E+03  0.19773431352E+03 -0.14099405511E+03  0.32688105033E+03  0.17222333348E+03 0.  0.
         24    2    5    5    0    0 -0.14330897226E+03  0.20575018441E+03 -0.15700285828E+03  0.30657199991E+03  0.80410781029E+02 0.  0.
          5    1    5    5  501    0  0.83565282092E+01 -0.80158708919E+01  0.16008803178E+02  0.20309050422E+02  0.47000000000E+01 0. -1.
        -15    1    6    6    0    0 -0.13949923958E+03  0.14097438698E+03 -0.12182023596E+03  0.23275984028E+03  0.17770000000E+01 0.  1.
         16    1    6    6    0    0 -0.38097326751E+01  0.64775797432E+02 -0.35182622323E+02  0.73812159632E+02  0.00000000000E+00 0. -1.
         -5    1    3    3    0  503  0.18730360552E+02 -0.75224679156E+02 -0.60977141837E+02  0.98741483618E+02  0.47000000000E+01 0.  1.
         15    1    4    4    0    0  0.55065356973E+02 -0.58673108798E+01 -0.16934172209E+03  0.17817518190E+03  0.17770000000E+01 0. -1.
        -16    1    4    4    0    0  0.61156726525E+02 -0.11664232348E+03 -0.35866737189E+03  0.38208357788E+03  0.00000000000E+00 0.  1.
<mgrwt>
<rscale>  2 0.29542376E+03</rscale>
<asrwt>0</asrwt>
<pdfrwt beam="1">  1       21 0.19684693E-01 0.29559522E+03</pdfrwt>
<pdfrwt beam="2">  1       21 0.13198935E+00 0.29559522E+03</pdfrwt>
<totfact> 0.92876968E+03</totfact>
</mgrwt>
</event>
<event>
12    2  0.4090627E-002  0.1792291E+03  0.7546771E-02  0.1168631E+00
         21   -1    0    0  501  502  0.00000000000E+00  0.00000000000E+00  0.43957546148E+03  0.43957546148E+03  0.00000000000E+00 0. -1.
         21   -1    0    0  502  503 -0.00000000000E+00 -0.00000000000E+00 -0.73052862089E+02  0.73052862089E+02  0.00000000000E+00 0. -1.
         -6    2    1    2    0  503  0.39381031997E+01  0.45249066302E+02  0.17352945962E+03  0.24947050587E+03  0.17337841066E+03 0.  0.
        -24    2    3    3    0    0 -0.27436398918E+02  0.61083492246E+02  0.18475041202E+03  0.21228061207E+03  0.80289442064E+02 0.  0.
          6    2    1    2  501    0 -0.39381031997E+01 -0.45249066302E+02  0.19299313977E+03  0.26315781770E+03  0.17303958611E+03 0.  0.
         24    2    5    5    0    0 -0.13589795065E+02 -0.47391185307E+02  0.21697473760E+03  0.23679589698E+03  0.81016375476E+02 0.  0.
          5    1    5    5  501    0  0.96516918653E+01  0.21421190050E+01 -0.23981597831E+02  0.26361920724E+02  0.47000000000E+01 0. -1.
        -15    1    6    6    0    0  0.10944896540E+02 -0.63899303207E+02  0.13843443359E+03  0.15287302523E+03  0.17770000000E+01 0.  1.
         16    1    6    6    0    0 -0.24534691605E+02  0.16508117900E+02  0.78540304012E+02  0.83922871751E+02  0.00000000000E+00 0. -1.
         -5    1    3    3    0  503  0.31374502118E+02 -0.15834425945E+02 -0.11220952398E+02  0.37189893800E+02  0.47000000000E+01 0.  1.
         15    1    4    4    0    0  0.49265029199E+01  0.11406357027E+02  0.13297720597E+03  0.13356822394E+03  0.17770000000E+01 0. -1.
        -16    1    4    4    0    0 -0.32362901838E+02  0.49677135219E+02  0.51773206054E+02  0.78712388123E+02  0.00000000000E+00 0.  1.
<mgrwt>
<rscale>  2 0.17914708E+03</rscale>
<asrwt>0</asrwt>
<pdfrwt beam="1">  1       21 0.67626992E-01 0.17922907E+03</pdfrwt>
<pdfrwt beam="2">  1       21 0.11238902E-01 0.17922907E+03</pdfrwt>
<totfact> 0.13247081E+05</totfact>
</mgrwt>
</event>
<event>
12    2  0.4090627E-002  0.1993396E+03  0.7546771E-02  0.1150436E+00
         21   -1    0    0  503  502  0.00000000000E+00  0.00000000000E+00  0.16451747320E+03  0.16451747320E+03  0.00000000000E+00 0.  1.
         21   -1    0    0  501  503 -0.00000000000E+00 -0.00000000000E+00 -0.11300202798E+04  0.11300202798E+04  0.00000000000E+00 0. -1.
          6    2    1    2  501    0 -0.62319459028E+02  0.72541003271E+02 -0.10567793005E+04  0.10752943188E+04  0.17415358156E+03 0.  0.
         24    2    3    3    0    0 -0.95253368013E+02  0.95075575696E+02 -0.78765995852E+03  0.80319183896E+03  0.81217921040E+02 0.  0.
         -6    2    1    2    0  502  0.62319459028E+02 -0.72541003271E+02  0.91276493874E+02  0.21924343422E+03  0.17490103769E+03 0.  0.
        -24    2    5    5    0    0 -0.39426739999E+01 -0.98874965757E+02  0.62735103467E+02  0.14229638216E+03  0.80751245428E+02 0.  0.
          5    1    3    3  501    0  0.32933908984E+02 -0.22534572425E+02 -0.26911934194E+03  0.27210247982E+03  0.47000000000E+01 0. -1.
        -15    1    4    4    0    0 -0.41913380161E+02 -0.58235640320E+01 -0.18096210656E+03  0.18585232598E+03  0.17770000000E+01 0.  1.
         16    1    4    4    0    0 -0.53339987851E+02  0.10089913973E+03 -0.60669785196E+03  0.61733951297E+03  0.00000000000E+00 0. -1.
         -5    1    5    5    0  502  0.66262133028E+02  0.26333962486E+02  0.28541390407E+02  0.76947052055E+02  0.47000000000E+01 0.  1.
         15    1    6    6    0    0 -0.20631864921E+02 -0.48340699994E+02 -0.86090271654E+01  0.53289494310E+02  0.17770000000E+01 0. -1.
        -16    1    6    6    0    0  0.16689190922E+02 -0.50534265763E+02  0.71344130632E+02  0.89006887854E+02  0.00000000000E+00 0.  1.
<mgrwt>
<rscale>  2 0.19917555E+03</rscale>
<asrwt>0</asrwt>
<pdfrwt beam="1">  1       21 0.25310380E-01 0.19933962E+03</pdfrwt>
<pdfrwt beam="2">  1       21 0.17384928E+00 0.19933962E+03</pdfrwt>
<totfact> 0.29487207E+03</totfact>
</mgrwt>
</event>
<event>
12    2  0.4090627E-002  0.1797172E+03  0.7546771E-02  0.1169147E+00
         21   -1    0    0  503  502  0.00000000000E+00  0.00000000000E+00  0.81937940454E+02  0.81937940454E+02  0.00000000000E+00 0.  1.
         21   -1    0    0  501  503 -0.00000000000E+00 -0.00000000000E+00 -0.41220835329E+03  0.41220835329E+03  0.00000000000E+00 0.  1.
          6    2    1    2  501    0  0.36130984399E+02 -0.52801171051E+01 -0.22708584944E+03  0.28691375619E+03  0.17151732508E+03 0.  0.
         24    2    3    3    0    0  0.83022448684E+02 -0.24958331494E+02 -0.12305313365E+03  0.17102183455E+03  0.81183427476E+02 0.  0.
         -6    2    1    2    0  502 -0.36130984399E+02  0.52801171051E+01 -0.10318456340E+03  0.20723253756E+03  0.17596858478E+03 0.  0.
        -24    2    5    5    0    0  0.40197953861E+02 -0.27912502436E+02 -0.39586990766E+02  0.10237740868E+03  0.80740452584E+02 0.  0.
          5    1    3    3  501    0 -0.46891464286E+02  0.19678214389E+02 -0.10403271579E+03  0.11589192163E+03  0.47000000000E+01 0. -1.
        -15    1    4    4    0    0  0.36115386768E+02  0.27661194303E+02 -0.30999368809E+02  0.55077957726E+02  0.17770000000E+01 0.  1.
         16    1    4    4    0    0  0.46907061916E+02 -0.52619525797E+02 -0.92053764840E+02  0.11594387683E+03  0.00000000000E+00 0. -1.
         -5    1    5    5    0  502 -0.76328938260E+02  0.33192619541E+02 -0.63597572634E+02  0.10485512888E+03  0.47000000000E+01 0.  1.
         15    1    6    6    0    0  0.21535910126E+02  0.27097275105E+02 -0.24243228254E+02  0.42295976029E+02  0.17770000000E+01 0. -1.
        -16    1    6    6    0    0  0.18662043736E+02 -0.55009777541E+02 -0.15343762512E+02  0.60081432652E+02  0.00000000000E+00 0.  1.
<mgrwt>
<rscale>  2 0.17861813E+03</rscale>
<asrwt>0</asrwt>
<pdfrwt beam="1">  1       21 0.12605837E-01 0.17971720E+03</pdfrwt>
<pdfrwt beam="2">  1       21 0.63416670E-01 0.17971720E+03</pdfrwt>
<totfact> 0.12410414E+05</totfact>
</mgrwt>
</event>
<event>
12    2  0.4090627E-002  0.2127421E+03  0.7546771E-02  0.1139451E+00
         21   -1    0    0  503  502  0.00000000000E+00  0.00000000000E+00  0.18135543767E+04  0.18135543767E+04  0.00000000000E+00 0.  1.
         21   -1    0    0  501  503 -0.00000000000E+00 -0.00000000000E+00 -0.26090005587E+02  0.26090005587E+02  0.00000000000E+00 0.  1.
          6    2    1    2  501    0  0.10469529752E+03  0.65819730361E+02  0.69965698358E+03  0.73122924808E+03  0.17286693250E+03 0.  0.
         24    2    3    3    0    0  0.11943360560E+03  0.99215691648E+02  0.54750219619E+03  0.57468635530E+03  0.79985076850E+02 0.  0.
         -6    2    1    2    0  502 -0.10469529752E+03 -0.65819730361E+02  0.10878073875E+04  0.11084151342E+04  0.17310648495E+03 0.  0.
        -24    2    5    5    0    0 -0.76075315253E+02 -0.47121553902E+02  0.44942627143E+03  0.46910201485E+03  0.10032363853E+03 0.  0.
          5    1    3    3  501    0 -0.14738308077E+02 -0.33395961287E+02  0.15215478739E+03  0.15654289278E+03  0.47000000000E+01 0. -1.
        -15    1    4    4    0    0 -0.55263858612E+00  0.40189346082E+02  0.10599545913E+03  0.11337408890E+03  0.17770000000E+01 0.  1.
         16    1    4    4    0    0  0.11998624418E+03  0.59026345567E+02  0.44150673706E+03  0.46131226641E+03  0.00000000000E+00 0. -1.
         -5    1    5    5    0  502 -0.28619982267E+02 -0.18698176459E+02  0.63838111608E+03  0.63931311933E+03  0.47000000000E+01 0.  1.
         15    1    6    6    0    0 -0.20271954688E+02  0.11361853473E+02  0.28427740179E+03  0.28523120930E+03  0.17770000000E+01 0. -1.
        -16    1    6    6    0    0 -0.55803360565E+02 -0.58483407374E+02  0.16514886964E+03  0.18387080555E+03  0.00000000000E+00 0.  1.
<mgrwt>
<rscale>  2 0.21269336E+03</rscale>
<asrwt>0</asrwt>
<pdfrwt beam="1">  1       21 0.27900827E+00 0.21274209E+03</pdfrwt>
<pdfrwt beam="2">  1       21 0.40138484E-02 0.21274209E+03</pdfrwt>
<totfact> 0.17242182E+04</totfact>
</mgrwt>
</event>
<event>
12    2  0.4090627E-002  0.1876708E+03  0.7546771E-02  0.1160713E+00
         21   -1    0    0  501  502  0.00000000000E+00  0.00000000000E+00  0.34715494190E+03  0.34715494190E+03  0.00000000000E+00 0. -1.
         21   -1    0    0  502  503 -0.00000000000E+00 -0.00000000000E+00 -0.10114661995E+03  0.10114661995E+03  0.00000000000E+00 0. -1.
         -6    2    1    2    0  503  0.60233577279E+02 -0.38697867705E+02  0.12501908733E+03  0.22549967453E+03  0.17347830475E+03 0.  0.
        -24    2    3    3    0    0  0.10779680424E+03 -0.24489321207E+02  0.83987662989E+02  0.16092559973E+03  0.81383310682E+02 0.  0.
          6    2    1    2  501    0 -0.60233577279E+02  0.38697867705E+02  0.12098923462E+03  0.22280188732E+03  0.17284871219E+03 0.  0.
         24    2    5    5    0    0 -0.43106941047E+02 -0.97731296268E+01  0.22279654383E+00  0.91464985365E+02  0.80075411209E+02 0.  0.
          5    1    5    5  501    0 -0.17126636231E+02  0.48470997332E+02  0.12076643807E+03  0.13133690196E+03  0.47000000000E+01 0. -1.
        -15    1    6    6    0    0  0.20250668546E+02  0.55268624141E+01 -0.13279142458E+02  0.24902392217E+02  0.17770000000E+01 0.  1.
         16    1    6    6    0    0 -0.63357609593E+02 -0.15299992041E+02  0.13501939002E+02  0.66562593148E+02  0.00000000000E+00 0. -1.
         -5    1    3    3    0  503 -0.47563226961E+02 -0.14208546499E+02  0.41031424343E+02  0.64574074799E+02  0.47000000000E+01 0.  1.
         15    1    4    4    0    0  0.46477680798E+02 -0.35488217329E+02  0.79171120679E+02  0.98441924301E+02  0.17770000000E+01 0. -1.
        -16    1    4    4    0    0  0.61319123442E+02  0.10998896123E+02  0.48165423096E+01  0.62483675431E+02  0.00000000000E+00 0.  1.
<mgrwt>
<rscale>  2 0.18752518E+03</rscale>
<asrwt>0</asrwt>
<pdfrwt beam="1">  1       21 0.53408452E-01 0.18767080E+03</pdfrwt>
<pdfrwt beam="2">  1       21 0.15561019E-01 0.18767080E+03</pdfrwt>
<totfact> 0.12196776E+05</totfact>
</mgrwt>
</event>
<event>
12    2  0.4090627E-002  0.1835652E+03  0.7546771E-02  0.1164955E+00
         21   -1    0    0  501  502  0.00000000000E+00  0.00000000000E+00  0.83377319141E+02  0.83377319141E+02  0.00000000000E+00 0. -1.
         21   -1    0    0  502  503 -0.00000000000E+00 -0.00000000000E+00 -0.75282285765E+03  0.75282285765E+03  0.00000000000E+00 0. -1.
         -6    2    1    2    0  503  0.56491252506E+02 -0.87210348108E+01 -0.62250713159E+03  0.64900794031E+03  0.17443869884E+03 0.  0.
        -24    2    3    3    0    0  0.59054751190E+02 -0.22162158421E+02 -0.62586904596E+03  0.63415439536E+03  0.80381027365E+02 0.  0.
          6    2    1    2  501    0 -0.56491252506E+02  0.87210348108E+01 -0.46938406916E+02  0.18719223647E+03  0.17196046434E+03 0.  0.
         24    2    5    5    0    0  0.85408047180E+01 -0.45518464270E+02 -0.43725607912E+02  0.10231877888E+03  0.80077011611E+02 0.  0.
          5    1    5    5  501    0 -0.65032057224E+02  0.54239499081E+02 -0.32127990039E+01  0.84873457599E+02  0.47000000000E+01 0. -1.
        -15    1    6    6    0    0  0.40340575852E+02 -0.29062407806E+02 -0.56796711054E+01  0.50073965295E+02  0.17770000000E+01 0.  1.
         16    1    6    6    0    0 -0.31799771134E+02 -0.16456056464E+02 -0.38045936807E+02  0.52244813580E+02  0.00000000000E+00 0. -1.
         -5    1    3    3    0  503 -0.25634986845E+01  0.13441123611E+02  0.33619143709E+01  0.14853544953E+02  0.47000000000E+01 0.  1.
         15    1    4    4    0    0  0.60861431778E+02 -0.62582926863E+01 -0.23132471175E+03  0.23928552004E+03  0.17770000000E+01 0. -1.
        -16    1    4    4    0    0 -0.18066805876E+01 -0.15903865735E+02 -0.39454433421E+03  0.39486887532E+03  0.00000000000E+00 0.  1.
<mgrwt>
<rscale>  2 0.18297399E+03</rscale>
<asrwt>0</asrwt>
<pdfrwt beam="1">  1       21 0.12827280E-01 0.18356519E+03</pdfrwt>
<pdfrwt beam="2">  1       21 0.11581890E+00 0.18356519E+03</pdfrwt>
<totfact> 0.30159784E+04</totfact>
</mgrwt>
</event>
<event>
12    2  0.4090627E-002  0.2140358E+03  0.7546771E-02  0.1139457E+00
         21   -1    0    0  503  502  0.00000000000E+00  0.00000000000E+00  0.73473852895E+03  0.73473852895E+03  0.00000000000E+00 0. -1.
         21   -1    0    0  501  503 -0.00000000000E+00 -0.00000000000E+00 -0.61510294666E+02  0.61510294666E+02  0.00000000000E+00 0. -1.
          6    2    1    2  501    0  0.11208783308E+03 -0.32141925625E+02  0.37515356332E+03  0.42928858078E+03  0.17306560550E+03 0.  0.
         24    2    3    3    0    0  0.84117880527E+02 -0.62614927243E+02  0.14679640446E+03  0.19716791372E+03  0.79558499863E+02 0.  0.
         -6    2    1    2    0  502 -0.11208783308E+03  0.32141925625E+02  0.29807467096E+03  0.36696024283E+03  0.17948405122E+03 0.  0.
        -24    2    5    5    0    0 -0.53144687656E+02  0.66285780572E+02  0.26736712573E+03  0.29209275619E+03  0.81331640591E+02 0.  0.
          5    1    3    3  501    0  0.27969952553E+02  0.30473001618E+02  0.22835715886E+03  0.23212066706E+03  0.47000000000E+01 0. -1.
        -15    1    4    4    0    0 -0.12356571389E+02 -0.91578961640E+01  0.43040457841E+02  0.45740470689E+02  0.17770000000E+01 0.  1.
         16    1    4    4    0    0  0.96474451916E+02 -0.53457031079E+02  0.10375594662E+03  0.15142744303E+03  0.00000000000E+00 0. -1.
         -5    1    5    5    0  502 -0.58943145423E+02 -0.34143854947E+02  0.30707545229E+02  0.74867486648E+02  0.47000000000E+01 0.  1.
         15    1    6    6    0    0 -0.34028075210E+02 -0.49987875147E+01  0.14633913761E+03  0.15033695056E+03  0.17770000000E+01 0. -1.
        -16    1    6    6    0    0 -0.19116612446E+02  0.71284568087E+02  0.12102798813E+03  0.14175580563E+03  0.00000000000E+00 0.  1.
<mgrwt>
<rscale>  2 0.21268478E+03</rscale>
<asrwt>0</asrwt>
<pdfrwt beam="1">  1       21 0.11303669E+00 0.21403577E+03</pdfrwt>
<pdfrwt beam="2">  1       21 0.94631228E-02 0.21403577E+03</pdfrwt>
<totfact> 0.54089541E+04</totfact>
</mgrwt>
</event>
<event>
12    2  0.4090627E-002  0.1807567E+03  0.7546771E-02  0.1167670E+00
         21   -1    0    0  501  502  0.00000000000E+00  0.00000000000E+00  0.33590244687E+03  0.33590244687E+03  0.00000000000E+00 0.  1.
         21   -1    0    0  502  503 -0.00000000000E+00 -0.00000000000E+00 -0.16027673102E+03  0.16027673102E+03  0.00000000000E+00 0.  1.
         -6    2    1    2    0  503 -0.45033330047E+02  0.21197623340E+02 -0.68995686734E+02  0.19347712205E+03  0.17376896132E+03 0.  0.
        -24    2    3    3    0    0  0.93723557162E+00 -0.28202588915E+02 -0.87820384244E+02  0.12326221544E+03  0.81761173143E+02 0.  0.
          6    2    1    2  501    0  0.45033330047E+02 -0.21197623340E+02  0.24462140258E+03  0.30270205585E+03  0.17120620305E+03 0.  0.
         24    2    5    5    0    0  0.42550000999E+02  0.27905825351E+02  0.23369761805E+03  0.25211811902E+03  0.79747925259E+02 0.  0.
          5    1    5    5  501    0  0.24833290483E+01 -0.49103448691E+02  0.10923784534E+02  0.50583936828E+02  0.47000000000E+01 0. -1.
        -15    1    6    6    0    0  0.19817711402E+02 -0.24840478589E+02  0.46820471143E+02  0.56613649492E+02  0.17770000000E+01 0.  1.
         16    1    6    6    0    0  0.22732289596E+02  0.52746303941E+02  0.18687714691E+03  0.19550446953E+03  0.00000000000E+00 0. -1.
         -5    1    3    3    0  503 -0.45970565618E+02  0.49400212255E+02  0.18824697510E+02  0.70214906611E+02  0.47000000000E+01 0.  1.
         15    1    4    4    0    0  0.26191538217E+02 -0.45443082859E+02 -0.37952505168E+02  0.64765892501E+02  0.17770000000E+01 0. -1.
        -16    1    4    4    0    0 -0.25254302645E+02  0.17240493944E+02 -0.49867879075E+02  0.58496322936E+02  0.00000000000E+00 0.  1.
<mgrwt>
<rscale>  2 0.18013798E+03</rscale>
<asrwt>0</asrwt>
<pdfrwt beam="1">  1       21 0.51677299E-01 0.18075672E+03</pdfrwt>
<pdfrwt beam="2">  1       21 0.24657959E-01 0.18075672E+03</pdfrwt>
<totfact> 0.55605035E+04</totfact>
</mgrwt>
</event>
<event>
12    2  0.4090627E-002  0.2549326E+03  0.7546771E-02  0.1110266E+00
         21   -1    0    0  503  502  0.00000000000E+00  0.00000000000E+00  0.58494726995E+02  0.58494726995E+02  0.00000000000E+00 0. -1.
         21   -1    0    0  501  503 -0.00000000000E+00 -0.00000000000E+00 -0.11119001691E+04  0.11119001691E+04  0.00000000000E+00 0.  1.
          6    2    1    2  501    0  0.14742630329E+03 -0.11581857564E+03 -0.50181578702E+03  0.56274222133E+03  0.17236956285E+03 0.  0.
         24    2    3    3    0    0  0.11986237399E+03 -0.13771410917E+03 -0.31675526053E+03  0.37430477003E+03  0.80237156148E+02 0.  0.
         -6    2    1    2    0  502 -0.14742630329E+03  0.11581857564E+03 -0.55158965504E+03  0.60765267472E+03  0.17274885872E+03 0.  0.
        -24    2    5    5    0    0 -0.35040640441E+02  0.53216425606E+02 -0.12149024807E+03  0.15870150112E+03  0.79790047285E+02 0.  0.
          5    1    3    3  501    0  0.27563929294E+02  0.21895533534E+02 -0.18506052649E+03  0.18843745130E+03  0.47000000000E+01 0. -1.
        -15    1    4    4    0    0  0.10572517056E+02 -0.48663103179E+02 -0.13752603529E+03  0.14627523317E+03  0.17770000000E+01 0.  1.
         16    1    4    4    0    0  0.10928985694E+03 -0.89051005994E+02 -0.17922922524E+03  0.22802953685E+03  0.00000000000E+00 0. -1.
         -5    1    5    5    0  502 -0.11238566285E+03  0.62602150033E+02 -0.43009940697E+03  0.44895117360E+03  0.47000000000E+01 0.  1.
         15    1    6    6    0    0 -0.23532288097E+02  0.73982223654E+02 -0.10054247540E+03  0.12703969887E+03  0.17770000000E+01 0. -1.
        -16    1    6    6    0    0 -0.11508352344E+02 -0.20765798047E+02 -0.20947772669E+02  0.31661802254E+02  0.00000000000E+00 0.  1.
<mgrwt>
<rscale>  2 0.25486835E+03</rscale>
<asrwt>0</asrwt>
<pdfrwt beam="1">  1       21 0.89991888E-02 0.25493259E+03</pdfrwt>
<pdfrwt beam="2">  1       21 0.17106156E+00 0.25493259E+03</pdfrwt>
<totfact> 0.19698428E+04</totfact>
</mgrwt>
</event>
<event>
12    2  0.4090627E-002  0.1798167E+03  0.7546771E-02  0.1168179E+00
         21   -1    0    0  503  502  0.00000000000E+00  0.00000000000E+00  0.18111182429E+03  0.18111182429E+03  0.00000000000E+00 0. -1.
         21   -1    0    0  501  503 -0.00000000000E+00 -0.00000000000E+00 -0.25182674737E+03  0.25182674737E+03  0.00000000000E+00 0. -1.
          6    2    1    2  501    0 -0.47481812463E+02 -0.80056555187E+01  0.82013371719E+02  0.19763663561E+03  0.17324962788E+03 0.  0.
         24    2    3    3    0    0 -0.60186666894E+02  0.31950152749E+02  0.85573149186E+01  0.11292676475E+03  0.89643624573E+02 0.  0.
         -6    2    1    2    0  502  0.47481812463E+02  0.80056555187E+01 -0.15272829480E+03  0.23530193604E+03  0.17240201866E+03 0.  0.
        -24    2    5    5    0    0 -0.19140940565E+02  0.33209292869E+02 -0.13550615998E+03  0.16186824837E+03  0.79813392986E+02 0.  0.
          5    1    3    3  501    0  0.12704854431E+02 -0.39955808268E+02  0.73456056801E+02  0.84709870860E+02  0.47000000000E+01 0. -1.
        -15    1    4    4    0    0 -0.55064818011E+02 -0.20654559497E+02 -0.26521820150E+01  0.58897680846E+02  0.17770000000E+01 0.  1.
         16    1    4    4    0    0 -0.51218488834E+01  0.52604712246E+02  0.11209496934E+02  0.54029083908E+02  0.00000000000E+00 0. -1.
         -5    1    5    5    0  502  0.66622753028E+02 -0.25203637350E+02 -0.17222134818E+02  0.73433687668E+02  0.47000000000E+01 0.  1.
         15    1    6    6    0    0  0.11040837189E+02  0.32117529614E+02 -0.12553988610E+03  0.13006481663E+03  0.17770000000E+01 0. -1.
        -16    1    6    6    0    0 -0.30181777754E+02  0.10917632549E+01 -0.99662738806E+01  0.31803431741E+02  0.00000000000E+00 0.  1.
<mgrwt>
<rscale>  2 0.17961223E+03</rscale>
<asrwt>0</asrwt>
<pdfrwt beam="1">  1       21 0.27863358E-01 0.17981670E+03</pdfrwt>
<pdfrwt beam="2">  1       21 0.38742577E-01 0.17981670E+03</pdfrwt>
<totfact> 0.79424958E+04</totfact>
</mgrwt>
</event>
<event>
12    2  0.4090627E-002  0.1884057E+03  0.7546771E-02  0.1159933E+00
         21   -1    0    0  503  502  0.00000000000E+00  0.00000000000E+00  0.58689922527E+02  0.58689922527E+02  0.00000000000E+00 0. -1.
         21   -1    0    0  501  503 -0.00000000000E+00 -0.00000000000E+00 -0.83818776722E+03  0.83818776722E+03  0.00000000000E+00 0. -1.
          6    2    1    2  501    0  0.43567888876E+02  0.59343394280E+02 -0.62647211901E+03  0.65415646835E+03  0.17330196133E+03 0.  0.
         24    2    3    3    0    0  0.37220214644E+02 -0.37318746691E+00 -0.15451910384E+03  0.17837489910E+03  0.80968929426E+02 0.  0.
         -6    2    1    2    0  502 -0.43567888876E+02 -0.59343394280E+02 -0.15302572567E+03  0.24272122139E+03  0.17342698524E+03 0.  0.
        -24    2    5    5    0    0 -0.17196090676E+02  0.13456749191E+02 -0.32021097521E+02  0.98986943417E+02  0.91083887967E+02 0.  0.
          5    1    3    3  501    0  0.63476742325E+01  0.59716581747E+02 -0.47195301518E+03  0.47578156925E+03  0.47000000000E+01 0. -1.
        -15    1    4    4    0    0 -0.19338318472E+02  0.10121578167E+02 -0.12657222675E+02  0.25293871210E+02  0.17770000000E+01 0.  1.
         16    1    4    4    0    0  0.56558533116E+02 -0.10494765634E+02 -0.14186188116E+03  0.15308102789E+03  0.00000000000E+00 0. -1.
         -5    1    5    5    0  502 -0.26371798201E+02 -0.72800143472E+02 -0.12100462815E+03  0.14373427797E+03  0.47000000000E+01 0.  1.
         15    1    6    6    0    0  0.12552511028E+02  0.38570444510E+01  0.28187705347E+02  0.31147179435E+02  0.17770000000E+01 0. -1.
        -16    1    6    6    0    0 -0.29748601703E+02  0.95997047405E+01 -0.60208802868E+02  0.67839763982E+02  0.00000000000E+00 0.  1.
<mgrwt>
<rscale>  2 0.18837695E+03</rscale>
<asrwt>0</asrwt>
<pdfrwt beam="1">  1       21 0.90292200E-02 0.18840573E+03</pdfrwt>
<pdfrwt beam="2">  1       21 0.12895195E+00 0.18840573E+03</pdfrwt>
<totfact> 0.42949328E+04</totfact>
</mgrwt>
</event>
<event>
12    2  0.4090627E-002  0.2005454E+03  0.7546771E-02  0.1152769E+00
         21   -1    0    0  503  502  0.00000000000E+00  0.00000000000E+00  0.15745639008E+03  0.15745639008E+03  0.00000000000E+00 0.  1.
         21   -1    0    0  501  503 -0.00000000000E+00 -0.00000000000E+00 -0.34844158831E+03  0.34844158831E+03  0.00000000000E+00 0. -1.
          6    2    1    2  501    0 -0.60980483336E+01 -0.65111005436E+02  0.51038959774E+02  0.19158262498E+03  0.17269133608E+03 0.  0.
         24    2    3    3    0    0  0.21559158183E+02 -0.58483385197E+02 -0.29407891257E+02  0.10612718476E+03  0.80703479676E+02 0.  0.
         -6    2    1    2    0  502  0.60980483336E+01  0.65111005436E+02 -0.24202415801E+03  0.31431535341E+03  0.18958327750E+03 0.  0.
        -24    2    5    5    0    0 -0.65814556060E+02  0.61156870857E+02 -0.18880928573E+03  0.22464389484E+03  0.82123166446E+02 0.  0.
          5    1    3    3  501    0 -0.27657206516E+02 -0.66276202383E+01  0.80446851031E+02  0.85455440220E+02  0.47000000000E+01 0. -1.
        -15    1    4    4    0    0  0.26247106870E+02  0.12948368010E+01  0.16083878201E+02  0.30861563285E+02  0.17770000000E+01 0.  1.
         16    1    4    4    0    0 -0.46879486873E+01 -0.59778221998E+02 -0.45491769457E+02  0.75265621478E+02  0.00000000000E+00 0. -1.
         -5    1    5    5    0  502  0.71912604394E+02  0.39541345782E+01 -0.53214872274E+02  0.89671458570E+02  0.47000000000E+01 0.  1.
         15    1    6    6    0    0  0.11280392090E+02  0.22125406159E+01 -0.71294887273E+02  0.72237533609E+02  0.17770000000E+01 0. -1.
        -16    1    6    6    0    0 -0.77094948151E+02  0.58944330241E+02 -0.11751439846E+03  0.15240636123E+03  0.00000000000E+00 0.  1.
<mgrwt>
<rscale>  2 0.19645002E+03</rscale>
<asrwt>0</asrwt>
<pdfrwt beam="1">  1       21 0.24224060E-01 0.20054538E+03</pdfrwt>
<pdfrwt beam="2">  1       21 0.53606397E-01 0.20054538E+03</pdfrwt>
<totfact> 0.52763795E+04</totfact>
</mgrwt>
</event>
<event>
12    2  0.4090627E-002  0.2529365E+03  0.7546771E-02  0.1111769E+00
         21   -1    0    0  503  502  0.00000000000E+00  0.00000000000E+00  0.14358666901E+03  0.14358666901E+03  0.00000000000E+00 0.  1.
         21   -1    0    0  501  503 -0.00000000000E+00 -0.00000000000E+00 -0.48824444089E+03  0.48824444089E+03  0.00000000000E+00 0. -1.
          6    2    1    2  501    0  0.11211847622E+03 -0.14435175602E+03 -0.27003322551E+03  0.36999302405E+03  0.17483967740E+03 0.  0.
         24    2    3    3    0    0  0.13267932201E+03 -0.12208232055E+03 -0.27486834214E+03  0.33894234791E+03  0.82591853225E+02 0.  0.
         -6    2    1    2    0  502 -0.11211847622E+03  0.14435175602E+03 -0.74624546367E+02  0.26183808585E+03  0.17199528512E+03 0.  0.
        -24    2    5    5    0    0 -0.97170307374E+02  0.10903207719E+03 -0.11810341528E+03  0.20367083126E+03  0.78761210724E+02 0.  0.
          5    1    3    3  501    0 -0.20560845793E+02 -0.22269435471E+02  0.48351166304E+01  0.31050676140E+02  0.47000000000E+01 0. -1.
        -15    1    4    4    0    0  0.12673653090E+03 -0.73705620004E+02 -0.17890888134E+03  0.23131409865E+03  0.17770000000E+01 0.  1.
         16    1    4    4    0    0  0.59427911097E+01 -0.48376700547E+02 -0.95959460799E+02  0.10762824926E+03  0.00000000000E+00 0. -1.
         -5    1    5    5    0  502 -0.14948168842E+02  0.35319678833E+02  0.43478868909E+02  0.58167254587E+02  0.47000000000E+01 0.  1.
         15    1    6    6    0    0 -0.18616706532E+02  0.78587184078E+02 -0.68433453309E+02  0.10587172675E+03  0.17770000000E+01 0. -1.
        -16    1    6    6    0    0 -0.78553600842E+02  0.30444893111E+02 -0.49669961967E+02  0.97799104514E+02  0.00000000000E+00 0.  1.
<mgrwt>
<rscale>  2 0.25244568E+03</rscale>
<asrwt>0</asrwt>
<pdfrwt beam="1">  1       21 0.22090257E-01 0.25293654E+03</pdfrwt>
<pdfrwt beam="2">  1       21 0.75114529E-01 0.25293654E+03</pdfrwt>
<totfact> 0.29439071E+04</totfact>
</mgrwt>
</event>
<event>
12    2  0.4090627E-002  0.4378931E+03  0.7546771E-02  0.1031448E+00
         21   -1    0    0  501  502  0.00000000000E+00  0.00000000000E+00  0.15229896166E+03  0.15229896166E+03  0.00000000000E+00 0.  1.
         21   -1    0    0  502  503 -0.00000000000E+00 -0.00000000000E+00 -0.12574925320E+04  0.12574925320E+04  0.00000000000E+00 0. -1.
         -6    2    1    2    0  503  0.84028569641E+02 -0.39323999220E+03 -0.56500466161E+03  0.71441074264E+03  0.17162153005E+03 0.  0.
        -24    2    3    3    0    0  0.43778599802E+02 -0.33499398286E+03 -0.53381415798E+03  0.63690206446E+03  0.80926819444E+02 0.  0.
          6    2    1    2  501    0 -0.84028569641E+02  0.39323999220E+03 -0.54018890869E+03  0.69538075097E+03  0.17335466468E+03 0.  0.
         24    2    5    5    0    0 -0.10395966183E+03  0.23403303205E+03 -0.26735849666E+03  0.37883276358E+03  0.80340684850E+02 0.  0.
          5    1    5    5  501    0  0.19931092191E+02  0.15920696015E+03 -0.27283041203E+03  0.31654798740E+03  0.47000000000E+01 0. -1.
        -15    1    6    6    0    0 -0.52948479894E+02  0.48645072474E+02 -0.44873500834E+02  0.84774249659E+02  0.17770000000E+01 0.  1.
         16    1    6    6    0    0 -0.51011181938E+02  0.18538795958E+03 -0.22248499583E+03  0.29405851392E+03  0.00000000000E+00 0. -1.
         -5    1    3    3    0  503  0.40249969839E+02 -0.58246009339E+02 -0.31190503629E+02  0.77508678176E+02  0.47000000000E+01 0.  1.
         15    1    4    4    0    0  0.13573830940E+02 -0.23387569852E+03 -0.42515124933E+03  0.48542644528E+03  0.17770000000E+01 0. -1.
        -16    1    4    4    0    0  0.30204768862E+02 -0.10111828434E+03 -0.10866290865E+03  0.15147561918E+03  0.00000000000E+00 0.  1.
<mgrwt>
<rscale>  2 0.43772215E+03</rscale>
<asrwt>0</asrwt>
<pdfrwt beam="1">  1       21 0.23430610E-01 0.43789306E+03</pdfrwt>
<pdfrwt beam="2">  1       21 0.19346039E+00 0.43789306E+03</pdfrwt>
<totfact> 0.21627829E+03</totfact>
</mgrwt>
</event>
<event>
12    2  0.4090627E-002  0.1736647E+03  0.7546771E-02  0.1174588E+00
         21   -1    0    0  503  502  0.00000000000E+00  0.00000000000E+00  0.65103453039E+02  0.65103453039E+02  0.00000000000E+00 0.  1.
         21   -1    0    0  501  503 -0.00000000000E+00 -0.00000000000E+00 -0.67851776938E+03  0.67851776938E+03  0.00000000000E+00 0.  1.
          6    2    1    2  501    0 -0.33770932588E+02 -0.11900752734E+02 -0.51989211034E+03  0.54813067192E+03  0.16993329074E+03 0.  0.
         24    2    3    3    0    0  0.13041304766E+02 -0.14689978134E+02 -0.47913327048E+03  0.48582065369E+03  0.77891883969E+02 0.  0.
         -6    2    1    2    0  502  0.33770932588E+02  0.11900752734E+02 -0.93522206005E+02  0.19549055050E+03  0.16789296744E+03 0.  0.
        -24    2    5    5    0    0  0.69200789345E+02 -0.27635482851E+02 -0.39397222017E+02  0.11953008338E+03  0.84751581529E+02 0.  0.
          5    1    3    3  501    0 -0.46812237355E+02  0.27892253997E+01 -0.40758839861E+02  0.62310018225E+02  0.47000000000E+01 0. -1.
        -15    1    4    4    0    0 -0.11878294618E+02 -0.39597561060E+02 -0.18421021543E+03  0.18880048179E+03  0.17770000000E+01 0.  1.
         16    1    4    4    0    0  0.24919599385E+02  0.24907582926E+02 -0.29492305505E+03  0.29702017191E+03  0.00000000000E+00 0. -1.
         -5    1    5    5    0  502 -0.35429856757E+02  0.39536235585E+02 -0.54124983988E+02  0.75960467125E+02  0.47000000000E+01 0.  1.
         15    1    6    6    0    0  0.29279364912E+02 -0.91300323961E+01 -0.62639057339E+02  0.69767097793E+02  0.17770000000E+01 0. -1.
        -16    1    6    6    0    0  0.39921424433E+02 -0.18505450455E+02  0.23241835322E+02  0.49762985586E+02  0.00000000000E+00 0.  1.
<mgrwt>
<rscale>  2 0.17316354E+03</rscale>
<asrwt>0</asrwt>
<pdfrwt beam="1">  1       21 0.10015916E-01 0.17366470E+03</pdfrwt>
<pdfrwt beam="2">  1       21 0.10438735E+00 0.17366470E+03</pdfrwt>
<totfact> 0.60510701E+04</totfact>
</mgrwt>
</event>
<event>
12    2  0.4090627E-002  0.1838025E+03  0.7546771E-02  0.1164775E+00
         21   -1    0    0  501  502  0.00000000000E+00  0.00000000000E+00  0.13223642145E+03  0.13223642145E+03  0.00000000000E+00 0.  1.
         21   -1    0    0  502  503 -0.00000000000E+00 -0.00000000000E+00 -0.84197893987E+03  0.84197893987E+03  0.00000000000E+00 0.  1.
         -6    2    1    2    0  503 -0.53553107902E+02 -0.18455526910E+02 -0.76189193977E+03  0.78315799124E+03  0.17218759977E+03 0.  0.
        -24    2    3    3    0    0  0.13540077828E+02 -0.23684778551E+02 -0.20126941725E+03  0.21849123695E+03  0.80527882499E+02 0.  0.
          6    2    1    2  501    0  0.53553107902E+02  0.18455526910E+02  0.52149421360E+02  0.19105737008E+03  0.17485655456E+03 0.  0.
         24    2    5    5    0    0 -0.16312711228E+02  0.83713633212E+01  0.26003255114E+01  0.10468534951E+03  0.10303434591E+03 0.  0.
          5    1    5    5  501    0  0.69865819130E+02  0.10084163589E+02  0.49549095849E+02  0.86372020571E+02  0.47000000000E+01 0. -1.
        -15    1    6    6    0    0  0.18681655719E+02  0.46691561629E+02 -0.99474325792E+01  0.51295373395E+02  0.17770000000E+01 0.  1.
         16    1    6    6    0    0 -0.34994366947E+02 -0.38320198308E+02  0.12547758091E+02  0.53389976115E+02  0.00000000000E+00 0. -1.
         -5    1    3    3    0  503 -0.67093185731E+02  0.52292516410E+01 -0.56062252252E+03  0.56466675429E+03  0.47000000000E+01 0.  1.
         15    1    4    4    0    0  0.40170566371E+02  0.22409149457E+01 -0.14905829997E+03  0.15440281934E+03  0.17770000000E+01 0. -1.
        -16    1    4    4    0    0 -0.26630488543E+02 -0.25925693496E+02 -0.52211117281E+02  0.64088417604E+02  0.00000000000E+00 0.  1.
<mgrwt>
<rscale>  2 0.18316489E+03</rscale>
<asrwt>0</asrwt>
<pdfrwt beam="1">  1       21 0.20344064E-01 0.18380249E+03</pdfrwt>
<pdfrwt beam="2">  1       21 0.12953523E+00 0.18380249E+03</pdfrwt>
<totfact> 0.98161582E+03</totfact>
</mgrwt>
</event>
<event>
12    2  0.4090627E-002  0.1756012E+03  0.7546771E-02  0.1172475E+00
         21   -1    0    0  501  502  0.00000000000E+00  0.00000000000E+00  0.30350750548E+02  0.30350750548E+02  0.00000000000E+00 0.  1.
         21   -1    0    0  502  503 -0.00000000000E+00 -0.00000000000E+00 -0.26126078530E+04  0.26126078530E+04  0.00000000000E+00 0.  1.
         -6    2    1    2    0  503 -0.70029386332E+01  0.49776262511E+01 -0.23247922035E+04  0.23313114121E+04  0.17401233645E+03 0.  0.
        -24    2    3    3    0    0  0.58948602477E+02 -0.12957076682E+02 -0.16395315871E+04  0.16426348105E+04  0.80885548482E+02 0.  0.
          6    2    1    2  501    0  0.70029386332E+01 -0.49776262511E+01 -0.25746489901E+03  0.31164719141E+03  0.17539093415E+03 0.  0.
         24    2    5    5    0    0  0.28453719233E+02 -0.36064632858E+02 -0.25749104102E+03  0.27358633683E+03  0.80234503888E+02 0.  0.
          5    1    5    5  501    0 -0.21450780600E+02  0.31087006607E+02  0.26142011705E-01  0.38060854582E+02  0.47000000000E+01 0. -1.
        -15    1    6    6    0    0  0.22652001645E+02 -0.19250012296E+02 -0.21028873370E+02  0.36456102316E+02  0.17770000000E+01 0.  1.
         16    1    6    6    0    0  0.58017175886E+01 -0.16814620562E+02 -0.23646216765E+03  0.23713023451E+03  0.00000000000E+00 0. -1.
         -5    1    3    3    0  503 -0.65951541110E+02  0.17934702933E+02 -0.68526061631E+03  0.68867660161E+03  0.47000000000E+01 0.  1.
         15    1    4    4    0    0  0.35909874558E+02 -0.35241051855E+02 -0.47468331324E+03  0.47734563623E+03  0.17770000000E+01 0. -1.
        -16    1    4    4    0    0  0.23038727918E+02  0.22283975173E+02 -0.11648482739E+04  0.11652891743E+04  0.00000000000E+00 0.  1.
<mgrwt>
<rscale>  2 0.17525600E+03</rscale>
<asrwt>0</asrwt>
<pdfrwt beam="1">  1       21 0.46693492E-02 0.17560125E+03</pdfrwt>
<pdfrwt beam="2">  1       21 0.40193942E+00 0.17560125E+03</pdfrwt>
<totfact> 0.26261634E+03</totfact>
</mgrwt>
</event>
<event>
12    2  0.4090627E-002  0.1773903E+03  0.7546771E-02  0.1170680E+00
         21   -1    0    0  503  502  0.00000000000E+00  0.00000000000E+00  0.54919764164E+02  0.54919764164E+02  0.00000000000E+00 0. -1.
         21   -1    0    0  501  503 -0.00000000000E+00 -0.00000000000E+00 -0.60872176035E+03  0.60872176035E+03  0.00000000000E+00 0.  1.
          6    2    1    2  501    0 -0.44449805774E+00  0.27257339229E+02 -0.36293207672E+03  0.40396410326E+03  0.17528304052E+03 0.  0.
         24    2    3    3    0    0 -0.20309133036E+02  0.81092279971E+02 -0.27399433780E+03  0.29801687125E+03  0.82175054894E+02 0.  0.
         -6    2    1    2    0  502  0.44449805774E+00 -0.27257339229E+02 -0.19086991947E+03  0.25967742125E+03  0.17394791413E+03 0.  0.
        -24    2    5    5    0    0 -0.11963784677E+02  0.50671157757E+02 -0.12426575220E+03  0.15630904494E+03  0.79245454065E+02 0.  0.
          5    1    3    3  501    0  0.19864634978E+02 -0.53834940742E+02 -0.88937738921E+02  0.10594723202E+03  0.47000000000E+01 0. -1.
        -15    1    4    4    0    0 -0.20221694897E+02  0.76351495021E+02 -0.11832833914E+03  0.14227867482E+03  0.17770000000E+01 0.  1.
         16    1    4    4    0    0 -0.87438138867E-01  0.47407849499E+01 -0.15566599866E+03  0.15573819643E+03  0.00000000000E+00 0. -1.
         -5    1    5    5    0  502  0.12408282735E+02 -0.77928496986E+02 -0.66604167276E+02  0.10336837631E+03  0.47000000000E+01 0.  1.
         15    1    6    6    0    0 -0.43740456281E+02  0.31748122667E+02 -0.51464192486E+02  0.74651802696E+02  0.17770000000E+01 0. -1.
        -16    1    6    6    0    0  0.31776671604E+02  0.18923035090E+02 -0.72801559709E+02  0.81657242247E+02  0.00000000000E+00 0.  1.
<mgrwt>
<rscale>  2 0.17705955E+03</rscale>
<asrwt>0</asrwt>
<pdfrwt beam="1">  1       21 0.84491943E-02 0.17739026E+03</pdfrwt>
<pdfrwt beam="2">  1       21 0.93649503E-01 0.17739026E+03</pdfrwt>
<totfact> 0.10514426E+05</totfact>
</mgrwt>
</event>
<event>
12    2  0.4090627E-002  0.2155569E+03  0.7546771E-02  0.1139419E+00
         21   -1    0    0  503  502  0.00000000000E+00  0.00000000000E+00  0.30423037791E+03  0.30423037791E+03  0.00000000000E+00 0. -1.
         21   -1    0    0  501  503 -0.00000000000E+00 -0.00000000000E+00 -0.30021186713E+03  0.30021186713E+03  0.00000000000E+00 0. -1.
          6    2    1    2  501    0 -0.10451562436E+03  0.39770555817E+02 -0.21529716145E+03  0.29692941370E+03  0.17119870370E+03 0.  0.
         24    2    3    3    0    0 -0.10748786840E+02 -0.26784660322E+02 -0.12355324829E+03  0.14975315130E+03  0.79546506611E+02 0.  0.
         -6    2    1    2    0  502  0.10451562436E+03 -0.39770555817E+02  0.21931567223E+03  0.30751283134E+03  0.18428121040E+03 0.  0.
        -24    2    5    5    0    0  0.12095497247E+03 -0.71502225231E+02  0.21751162264E+03  0.27142272737E+03  0.81340748518E+02 0.  0.
          5    1    3    3  501    0 -0.93766837518E+02  0.66555216138E+02 -0.91743913162E+02  0.14717626241E+03  0.47000000000E+01 0. -1.
        -15    1    4    4    0    0  0.65454728205E+01  0.41097202943E+01  0.93236544961E+01  0.12240150224E+02  0.17770000000E+01 0.  1.
         16    1    4    4    0    0 -0.17294259660E+02 -0.30894380616E+02 -0.13287690278E+03  0.13751300107E+03  0.00000000000E+00 0. -1.
         -5    1    5    5    0  502 -0.16439348109E+02  0.31731669414E+02  0.18040495922E+01  0.36090103976E+02  0.47000000000E+01 0.  1.
         15    1    6    6    0    0  0.86870900148E+02 -0.73765716329E+02  0.10918066740E+03  0.15783380519E+03  0.17770000000E+01 0. -1.
        -16    1    6    6    0    0  0.34084072318E+02  0.22634910978E+01  0.10833095524E+03  0.11358892217E+03  0.00000000000E+00 0.  1.
<mgrwt>
<rscale>  2 0.21273401E+03</rscale>
<asrwt>0</asrwt>
<pdfrwt beam="1">  1       21 0.46804673E-01 0.21555690E+03</pdfrwt>
<pdfrwt beam="2">  1       21 0.46186441E-01 0.21555690E+03</pdfrwt>
<totfact> 0.19364438E+04</totfact>
</mgrwt>
</event>
<event>
12    2  0.4090627E-002  0.1792850E+03  0.7546771E-02  0.1169573E+00
         21   -1    0    0  501  502  0.00000000000E+00  0.00000000000E+00  0.71052927054E+02  0.71052927054E+02  0.00000000000E+00 0.  1.
         21   -1    0    0  502  503 -0.00000000000E+00 -0.00000000000E+00 -0.48074097609E+03  0.48074097609E+03  0.00000000000E+00 0.  1.
         -6    2    1    2    0  503 -0.43215944897E+02 -0.56442571545E+01 -0.28141419721E+03  0.33134599049E+03  0.16940112010E+03 0.  0.
        -24    2    3    3    0    0  0.20379198318E+02 -0.45186412755E+02 -0.18809196900E+03  0.21160020732E+03  0.83300271980E+02 0.  0.
          6    2    1    2  501    0  0.43215944897E+02  0.56442571545E+01 -0.12827385183E+03  0.22044791266E+03  0.17390694523E+03 0.  0.
         24    2    5    5    0    0  0.66855191741E+02 -0.39282286390E+02 -0.12770995014E+03  0.16946148023E+03  0.79966538192E+02 0.  0.
          5    1    5    5  501    0 -0.23639246844E+02  0.44926543545E+02 -0.56390168846E+00  0.50986432424E+02  0.47000000000E+01 0. -1.
        -15    1    6    6    0    0  0.38044375108E+02  0.20054172467E+02 -0.68061638615E+02  0.80530048371E+02  0.17770000000E+01 0.  1.
         16    1    6    6    0    0  0.28810816634E+02 -0.59336458858E+02 -0.59648311528E+02  0.88931431862E+02  0.00000000000E+00 0. -1.
         -5    1    3    3    0  503 -0.63595143215E+02  0.39542155601E+02 -0.93322228206E+02  0.11974578317E+03  0.47000000000E+01 0.  1.
         15    1    4    4    0    0 -0.19709673714E+02  0.14558180259E+02 -0.56831964223E+02  0.61914794167E+02  0.17770000000E+01 0. -1.
        -16    1    4    4    0    0  0.40088872032E+02 -0.59744593014E+02 -0.13126000478E+03  0.14968541315E+03  0.00000000000E+00 0.  1.
<mgrwt>
<rscale>  2 0.17818305E+03</rscale>
<asrwt>0</asrwt>
<pdfrwt beam="1">  1       21 0.10931219E-01 0.17928497E+03</pdfrwt>
<pdfrwt beam="2">  1       21 0.73960153E-01 0.17928497E+03</pdfrwt>
<totfact> 0.11423779E+05</totfact>
</mgrwt>
</event>
<event>
12    2  0.4090627E-002  0.3092088E+03  0.7546771E-02  0.1080839E+00
         21   -1    0    0  501  502  0.00000000000E+00  0.00000000000E+00  0.15541338712E+04  0.15541338712E+04  0.00000000000E+00 0.  1.
         21   -1    0    0  502  503 -0.00000000000E+00 -0.00000000000E+00 -0.61946180850E+02  0.61946180850E+02  0.00000000000E+00 0. -1.
         -6    2    1    2    0  503  0.22956514505E+03  0.11240884124E+03  0.66453825812E+03  0.73255661301E+03  0.17231422268E+03 0.  0.
        -24    2    3    3    0    0  0.54753601175E+02  0.31128020919E+02  0.13039469848E+03  0.16466834940E+03  0.78396284204E+02 0.  0.
          6    2    1    2  501    0 -0.22956514505E+03 -0.11240884124E+03  0.82764943223E+03  0.88352343904E+03  0.17399477366E+03 0.  0.
         24    2    5    5    0    0 -0.72779572520E+02 -0.96427241025E+02  0.48815223629E+03  0.50920063270E+03  0.79984995847E+02 0.  0.
          5    1    5    5  501    0 -0.15678557253E+03 -0.15981600218E+02  0.33949719594E+03  0.37432280635E+03  0.47000000000E+01 0. -1.
        -15    1    6    6    0    0 -0.84113924638E+02 -0.79286888870E+02  0.32885165048E+03  0.34858016125E+03  0.17770000000E+01 0.  1.
         16    1    6    6    0    0  0.11334352118E+02 -0.17140352155E+02  0.15930058580E+03  0.16062047145E+03  0.00000000000E+00 0. -1.
         -5    1    3    3    0  503  0.17481154387E+03  0.81280820323E+02  0.53414355965E+03  0.56788826360E+03  0.47000000000E+01 0.  1.
         15    1    4    4    0    0  0.42643941154E+02  0.25162085396E+02  0.19965959065E+02  0.53417539339E+02  0.17770000000E+01 0. -1.
        -16    1    4    4    0    0  0.12109660021E+02  0.59659355235E+01  0.11042873941E+03  0.11125081007E+03  0.00000000000E+00 0.  1.
<mgrwt>
<rscale>  2 0.30897290E+03</rscale>
<asrwt>0</asrwt>
<pdfrwt beam="1">  1       21 0.23909749E+00 0.30920880E+03</pdfrwt>
<pdfrwt beam="2">  1       21 0.95301829E-02 0.30920880E+03</pdfrwt>
<totfact> 0.62238406E+03</totfact>
</mgrwt>
</event>
<event>
12    2  0.4090627E-002  0.2312271E+03  0.7546771E-02  0.1125958E+00
         21   -1    0    0  503  502  0.00000000000E+00  0.00000000000E+00  0.71964634516E+03  0.71964634516E+03  0.00000000000E+00 0. -1.
         21   -1    0    0  501  503 -0.00000000000E+00 -0.00000000000E+00 -0.12668851470E+03  0.12668851470E+03  0.00000000000E+00 0.  1.
          6    2    1    2  501    0  0.14913881012E+03  0.36777870341E+02  0.23878573627E+02  0.23245679942E+03  0.17283223336E+03 0.  0.
         24    2    3    3    0    0  0.11697138547E+03  0.43667155953E+02 -0.46817715382E+02  0.15433983107E+03  0.77715889322E+02 0.  0.
         -6    2    1    2    0  502 -0.14913881012E+03 -0.36777870341E+02  0.56907925683E+03  0.61387806044E+03  0.17146450392E+03 0.  0.
        -24    2    5    5    0    0 -0.61574127406E+02  0.21263733450E+02  0.14585861982E+03  0.17778839189E+03  0.78041372281E+02 0.  0.
          5    1    3    3  501    0  0.32167424644E+02 -0.68892856119E+01  0.70696289009E+02  0.78116968350E+02  0.47000000000E+01 0. -1.
        -15    1    4    4    0    0  0.46816821738E+02 -0.11747914057E+02  0.87356180165E+01  0.49084590591E+02  0.17770000000E+01 0.  1.
         16    1    4    4    0    0  0.70154563736E+02  0.55415070010E+02 -0.55553333399E+02  0.10525524048E+03  0.00000000000E+00 0. -1.
         -5    1    5    5    0  502 -0.87564682712E+02 -0.58041603791E+02  0.42322063701E+03  0.43608966855E+03  0.47000000000E+01 0.  1.
         15    1    6    6    0    0 -0.82706089532E+01 -0.68184711148E+01  0.10366891928E+03  0.10423673572E+03  0.17770000000E+01 0. -1.
        -16    1    6    6    0    0 -0.53303518452E+02  0.28082204564E+02  0.42189700543E+02  0.73551656164E+02  0.00000000000E+00 0.  1.
<mgrwt>
<rscale>  2 0.23097156E+03</rscale>
<asrwt>0</asrwt>
<pdfrwt beam="1">  1       21 0.11071482E+00 0.23122711E+03</pdfrwt>
<pdfrwt beam="2">  1       21 0.19490541E-01 0.23122711E+03</pdfrwt>
<totfact> 0.15200595E+04</totfact>
</mgrwt>
</event>
<event>
12    2  0.4090627E-002  0.1856854E+03  0.7546771E-02  0.1163050E+00
         21   -1    0    0  501  502  0.00000000000E+00  0.00000000000E+00  0.16674185214E+04  0.16674185214E+04  0.00000000000E+00 0. -1.
         21   -1    0    0  502  503 -0.00000000000E+00 -0.00000000000E+00 -0.74479223190E+02  0.74479223190E+02  0.00000000000E+00 0. -1.
         -6    2    1    2    0  503  0.26460359037E+01 -0.66276225890E+02  0.52545844265E+02  0.19035301392E+03  0.17051001300E+03 0.  0.
        -24    2    3    3    0    0 -0.23499365327E+02  0.39992171745E+00 -0.21496370192E+02  0.87233519220E+02  0.81210915744E+02 0.  0.
          6    2    1    2  501    0 -0.26460359037E+01  0.66276225890E+02  0.15403934539E+04  0.15515447306E+04  0.17343447953E+03 0.  0.
         24    2    5    5    0    0  0.32622108379E+02  0.87454835014E+01  0.40277829751E+03  0.41192024757E+03  0.79418184187E+02 0.  0.
          5    1    5    5  501    0 -0.35268144283E+02  0.57530742389E+02  0.11376151564E+04  0.11396244831E+04  0.47000000000E+01 0. -1.
        -15    1    6    6    0    0 -0.13051893565E+02 -0.20739785007E+01  0.28239871969E+03  0.28271336708E+03  0.17770000000E+01 0.  1.
         16    1    6    6    0    0  0.45674001944E+02  0.10819462002E+02  0.12037957782E+03  0.12920688049E+03  0.00000000000E+00 0. -1.
         -5    1    3    3    0  503  0.26145401231E+02 -0.66676147607E+02  0.74042214457E+02  0.10311949470E+03  0.47000000000E+01 0.  1.
         15    1    4    4    0    0 -0.52911304122E+02  0.87120937844E+01 -0.17355176020E+02  0.56390305423E+02  0.17770000000E+01 0. -1.
        -16    1    4    4    0    0  0.29411938795E+02 -0.83121720669E+01 -0.41411941724E+01  0.30843213797E+02  0.00000000000E+00 0.  1.
<mgrwt>
<rscale>  2 0.18499945E+03</rscale>
<asrwt>0</asrwt>
<pdfrwt beam="1">  1       21 0.25652590E+00 0.18568537E+03</pdfrwt>
<pdfrwt beam="2">  1       21 0.11458343E-01 0.18568537E+03</pdfrwt>
<totfact> 0.39100707E+03</totfact>
</mgrwt>
</event>
<event>
12    2  0.4090627E-002  0.1941600E+03  0.7546771E-02  0.1154922E+00
         21   -1    0    0  501  502  0.00000000000E+00  0.00000000000E+00  0.59005276921E+02  0.59005276921E+02  0.00000000000E+00 0.  1.
         21   -1    0    0  502  503 -0.00000000000E+00 -0.00000000000E+00 -0.68557420843E+03  0.68557420843E+03  0.00000000000E+00 0. -1.
         -6    2    1    2    0  503  0.86601969475E+02  0.11023563142E+00 -0.41234324435E+03  0.45545881240E+03  0.17296203443E+03 0.  0.
        -24    2    3    3    0    0  0.34112593054E+02  0.81277106248E+01 -0.38674101777E+03  0.39632355601E+03  0.79208696072E+02 0.  0.
          6    2    1    2  501    0 -0.86601969475E+02 -0.11023563142E+00 -0.21422568715E+03  0.28912067296E+03  0.17377630801E+03 0.  0.
         24    2    5    5    0    0 -0.20652408902E+02 -0.35382298496E+02 -0.35802251854E+02  0.95599420317E+02  0.78606735633E+02 0.  0.
          5    1    5    5  501    0 -0.65949560572E+02  0.35272062864E+02 -0.17842343530E+03  0.19352125264E+03  0.47000000000E+01 0. -1.
        -15    1    6    6    0    0 -0.35758852193E+02 -0.30510711253E+02  0.91549307395E+01  0.47922536422E+02  0.17770000000E+01 0.  1.
         16    1    6    6    0    0  0.15106443290E+02 -0.48715872430E+01 -0.44957182594E+02  0.47676883895E+02  0.00000000000E+00 0. -1.
         -5    1    3    3    0  503  0.52489376421E+02 -0.80174749934E+01 -0.25602226584E+02  0.59135256390E+02  0.47000000000E+01 0.  1.
         15    1    4    4    0    0  0.39078052491E+02  0.38641064461E+02 -0.27121597679E+03  0.27673360808E+03  0.17770000000E+01 0. -1.
        -16    1    4    4    0    0 -0.49654594369E+01 -0.30513353836E+02 -0.11552504098E+03  0.11958994792E+03  0.00000000000E+00 0.  1.
<mgrwt>
<rscale>  2 0.19397766E+03</rscale>
<asrwt>0</asrwt>
<pdfrwt beam="1">  1       21 0.90777351E-02 0.19416003E+03</pdfrwt>
<pdfrwt beam="2">  1       21 0.10547295E+00 0.19416003E+03</pdfrwt>
<totfact> 0.69497434E+04</totfact>
</mgrwt>
</event>
<event>
12    2  0.4090627E-002  0.3093137E+03  0.7546771E-02  0.1080694E+00
         21   -1    0    0  503  502  0.00000000000E+00  0.00000000000E+00  0.86314842131E+03  0.86314842131E+03  0.00000000000E+00 0.  1.
         21   -1    0    0  501  503 -0.00000000000E+00 -0.00000000000E+00 -0.17232081336E+03  0.17232081336E+03  0.00000000000E+00 0. -1.
          6    2    1    2  501    0  0.12839404745E+03  0.22192828735E+03  0.36090167688E+02  0.31141202851E+03  0.17302530206E+03 0.  0.
         24    2    3    3    0    0  0.58737300366E+02  0.45336030364E+02 -0.10941988889E+02  0.11578227261E+03  0.88206470437E+02 0.  0.
         -6    2    1    2    0  502 -0.12839404745E+03 -0.22192828735E+03  0.65473744026E+03  0.72405720616E+03  0.17274410545E+03 0.  0.
        -24    2    5    5    0    0 -0.40839639112E+02 -0.11418761316E+03  0.47903085169E+03  0.50007345104E+03  0.76786798573E+02 0.  0.
          5    1    3    3  501    0  0.69656747085E+02  0.17659225699E+03  0.47032156577E+02  0.19562975590E+03  0.47000000000E+01 0. -1.
        -15    1    4    4    0    0 -0.22494533589E+02  0.33156561738E+01 -0.83546830438E+01  0.24289011405E+02  0.17770000000E+01 0.  1.
         16    1    4    4    0    0  0.81231833955E+02  0.42020374190E+02 -0.25873058452E+01  0.91493261207E+02  0.00000000000E+00 0. -1.
         -5    1    5    5    0  502 -0.87554408339E+02 -0.10774067419E+03  0.17570658856E+03  0.22398375512E+03  0.47000000000E+01 0.  1.
         15    1    6    6    0    0 -0.18908742972E+01  0.69788629635E+00 -0.23949236592E+01  0.35994220680E+01  0.17770000000E+01 0. -1.
        -16    1    6    6    0    0 -0.38948764815E+02 -0.11488549946E+03  0.48142577535E+03  0.49647402897E+03  0.00000000000E+00 0.  1.
<mgrwt>
<rscale>  2 0.30927437E+03</rscale>
<asrwt>0</asrwt>
<pdfrwt beam="1">  1       21 0.13279206E+00 0.30931368E+03</pdfrwt>
<pdfrwt beam="2">  1       21 0.26510895E-01 0.30931368E+03</pdfrwt>
<totfact> 0.51393048E+03</totfact>
</mgrwt>
</event>
<event>
12    2  0.4090627E-002  0.1840507E+03  0.7546771E-02  0.1163944E+00
         21   -1    0    0  503  502  0.00000000000E+00  0.00000000000E+00  0.21461667783E+03  0.21461667783E+03  0.00000000000E+00 0. -1.
         21   -1    0    0  501  503 -0.00000000000E+00 -0.00000000000E+00 -0.16255542983E+03  0.16255542983E+03  0.00000000000E+00 0. -1.
          6    2    1    2  501    0 -0.15729429022E+02 -0.61384624807E+02  0.58209366401E+02  0.19301875644E+03  0.17277853715E+03 0.  0.
         24    2    3    3    0    0 -0.12694046199E+02 -0.10852114460E+03  0.49402442356E+02  0.14474125694E+03  0.81064496024E+02 0.  0.
         -6    2    1    2    0  502  0.15729429022E+02  0.61384624807E+02 -0.61481184023E+01  0.18415335122E+03  0.17279806221E+03 0.  0.
        -24    2    5    5    0    0 -0.28988377979E+02 -0.20759256388E+02 -0.22984530946E+02  0.89006862746E+02  0.78247429155E+02 0.  0.
          5    1    3    3  501    0 -0.30353828232E+01  0.47136519791E+02  0.88069240455E+01  0.48277499501E+02  0.47000000000E+01 0. -1.
        -15    1    4    4    0    0 -0.45415262055E+02 -0.47157537563E+02  0.15163935206E+02  0.67227093024E+02  0.17770000000E+01 0.  1.
         16    1    4    4    0    0  0.32721215856E+02 -0.61363607036E+02  0.34238507150E+02  0.77514163915E+02  0.00000000000E+00 0. -1.
         -5    1    5    5    0  502  0.44717807001E+02  0.82143881196E+02  0.16836412544E+02  0.95146488470E+02  0.47000000000E+01 0.  1.
         15    1    6    6    0    0 -0.49058233924E+02  0.22764403030E+01 -0.30111068965E+02  0.57634422869E+02  0.17770000000E+01 0. -1.
        -16    1    6    6    0    0  0.20069855945E+02 -0.23035696691E+02  0.71265380187E+01  0.31372439877E+02  0.00000000000E+00 0.  1.
<mgrwt>
<rscale>  2 0.18404611E+03</rscale>
<asrwt>0</asrwt>
<pdfrwt beam="1">  1       21 0.33017950E-01 0.18405069E+03</pdfrwt>
<pdfrwt beam="2">  1       21 0.25008528E-01 0.18405069E+03</pdfrwt>
<totfact> 0.13406115E+05</totfact>
</mgrwt>
</event>
<event>
12    2  0.4090627E-002  0.2051954E+03  0.7546771E-02  0.1145959E+00
         21   -1    0    0  503  502  0.00000000000E+00  0.00000000000E+00  0.96875023472E+03  0.96875023472E+03  0.00000000000E+00 0. -1.
         21   -1    0    0  501  503 -0.00000000000E+00 -0.00000000000E+00 -0.43421648537E+02  0.43421648537E+02  0.00000000000E+00 0. -1.
          6    2    1    2  501    0  0.70546768411E+01  0.10593000375E+03  0.41105215252E+03  0.45942247301E+03  0.17559670400E+03 0.  0.
         24    2    3    3    0    0  0.39116252606E+02  0.10033478071E+03  0.40396119064E+03  0.42578286983E+03  0.80679980542E+02 0.  0.
         -6    2    1    2    0  502 -0.70546768411E+01 -0.10593000375E+03  0.51427643367E+03  0.55274941025E+03  0.17257093078E+03 0.  0.
        -24    2    5    5    0    0 -0.54985366686E+02 -0.14427058227E+02  0.27211251310E+03  0.28943288116E+03  0.80589343915E+02 0.  0.
          5    1    3    3  501    0 -0.32061575765E+02  0.55952230398E+01  0.70909618732E+01  0.33639603174E+02  0.47000000000E+01 0. -1.
        -15    1    4    4    0    0  0.12914432381E+02  0.32115385557E+02  0.27804328566E+03  0.28019530150E+03  0.17770000000E+01 0.  1.
         16    1    4    4    0    0  0.26201820225E+02  0.68219395151E+02  0.12591790498E+03  0.14558756833E+03  0.00000000000E+00 0. -1.
         -5    1    5    5    0  502  0.47930689845E+02 -0.91502945521E+02  0.24216392057E+03  0.26331652909E+03  0.47000000000E+01 0.  1.
         15    1    6    6    0    0 -0.47515976553E+02 -0.45979303223E+02  0.17808808353E+03  0.18997470247E+03  0.17770000000E+01 0. -1.
        -16    1    6    6    0    0 -0.74693901335E+01  0.31552244996E+02  0.94024429571E+02  0.99458178696E+02  0.00000000000E+00 0.  1.
<mgrwt>
<rscale>  2 0.20454647E+03</rscale>
<asrwt>0</asrwt>
<pdfrwt beam="1">  1       21 0.14903848E+00 0.20519536E+03</pdfrwt>
<pdfrwt beam="2">  1       21 0.66802543E-02 0.20519536E+03</pdfrwt>
<totfact> 0.49493799E+04</totfact>
</mgrwt>
</event>
<event>
12    2  0.4090627E-002  0.2356617E+03  0.7546771E-02  0.1122768E+00
         21   -1    0    0  503  502  0.00000000000E+00  0.00000000000E+00  0.10187857319E+03  0.10187857319E+03  0.00000000000E+00 0.  1.
         21   -1    0    0  501  503 -0.00000000000E+00 -0.00000000000E+00 -0.72172371578E+03  0.72172371578E+03  0.00000000000E+00 0.  1.
          6    2    1    2  501    0  0.99622220752E+02  0.12493219551E+03 -0.51387626312E+03  0.56521146528E+03  0.17280783068E+03 0.  0.
         24    2    3    3    0    0  0.26742936032E+02  0.12471634508E+03 -0.26033632645E+03  0.30136297425E+03  0.82312137754E+02 0.  0.
         -6    2    1    2    0  502 -0.99622220752E+02 -0.12493219551E+03 -0.10596887947E+03  0.25839082369E+03  0.17321597504E+03 0.  0.
        -24    2    5    5    0    0 -0.37471699791E+02 -0.14459480367E+02 -0.99770412101E+02  0.13139704807E+03  0.75484066226E+02 0.  0.
          5    1    3    3  501    0  0.72879284721E+02  0.21585043095E+00 -0.25353993667E+03  0.26384849103E+03  0.47000000000E+01 0. -1.
        -15    1    4    4    0    0 -0.11732988242E+02  0.95009604490E+02 -0.21291688011E+03  0.23345501392E+03  0.17770000000E+01 0.  1.
         16    1    4    4    0    0  0.38475924273E+02  0.29706740591E+02 -0.47419446333E+02  0.67907960327E+02  0.00000000000E+00 0. -1.
         -5    1    5    5    0  502 -0.62150520961E+02 -0.11047271515E+03 -0.61984673651E+01  0.12699377562E+03  0.47000000000E+01 0.  1.
         15    1    6    6    0    0  0.11819538410E+02  0.12405585688E+02 -0.60456230851E+02  0.62862656818E+02  0.17770000000E+01 0. -1.
        -16    1    6    6    0    0 -0.49291238201E+02 -0.26865066055E+02 -0.39314181250E+02  0.68534391256E+02  0.00000000000E+00 0.  1.
<mgrwt>
<rscale>  2 0.23558666E+03</rscale>
<asrwt>0</asrwt>
<pdfrwt beam="1">  1       21 0.15673627E-01 0.23566165E+03</pdfrwt>
<pdfrwt beam="2">  1       21 0.11103442E+00 0.23566165E+03</pdfrwt>
<totfact> 0.22549670E+04</totfact>
</mgrwt>
</event>
<event>
12    2  0.4090627E-002  0.1965977E+03  0.7546771E-02  0.1154316E+00
         21   -1    0    0  501  502  0.00000000000E+00  0.00000000000E+00  0.28763474039E+03  0.28763474039E+03  0.00000000000E+00 0.  1.
         21   -1    0    0  502  503 -0.00000000000E+00 -0.00000000000E+00 -0.18612283058E+03  0.18612283058E+03  0.00000000000E+00 0.  1.
         -6    2    1    2    0  503 -0.49101678270E+02  0.52537676830E+02 -0.80885849842E+02  0.20557925794E+03  0.17478308927E+03 0.  0.
        -24    2    3    3    0    0 -0.85596201013E+01  0.56363180762E+02 -0.11461889628E+03  0.15249158156E+03  0.82862028832E+02 0.  0.
          6    2    1    2  501    0  0.49101678270E+02 -0.52537676830E+02  0.18239775965E+03  0.26817831303E+03  0.18297399422E+03 0.  0.
         24    2    5    5    0    0  0.37835246209E+02 -0.77263705307E+02  0.20207685615E+03  0.23430109628E+03  0.81613491004E+02 0.  0.
          5    1    5    5  501    0  0.11266432061E+02  0.24726028478E+02 -0.19679096499E+02  0.33877216750E+02  0.47000000000E+01 0. -1.
        -15    1    6    6    0    0  0.31389674736E+02 -0.28653148993E+02  0.22444433166E+02  0.48095997093E+02  0.17770000000E+01 0.  1.
         16    1    6    6    0    0  0.64455714736E+01 -0.48610556314E+02  0.17963242298E+03  0.18620509919E+03  0.00000000000E+00 0. -1.
         -5    1    3    3    0  503 -0.40542058169E+02 -0.38255039319E+01  0.33733046435E+02  0.53087676373E+02  0.47000000000E+01 0.  1.
         15    1    4    4    0    0  0.96819798534E+00 -0.13017331753E+02  0.48264085226E+01  0.14029977959E+02  0.17770000000E+01 0. -1.
        -16    1    4    4    0    0 -0.95278180867E+01  0.69380512514E+02 -0.11944530480E+03  0.13846160361E+03  0.00000000000E+00 0.  1.
<mgrwt>
<rscale>  2 0.19466966E+03</rscale>
<asrwt>0</asrwt>
<pdfrwt beam="1">  1       21 0.44251499E-01 0.19659772E+03</pdfrwt>
<pdfrwt beam="2">  1       21 0.28634282E-01 0.19659772E+03</pdfrwt>
<totfact> 0.57113078E+04</totfact>
</mgrwt>
</event>
<event>
12    2  0.4090627E-002  0.1841339E+03  0.7546771E-02  0.1164536E+00
         21   -1    0    0  501  502  0.00000000000E+00  0.00000000000E+00  0.19119236324E+03  0.19119236324E+03  0.00000000000E+00 0. -1.
         21   -1    0    0  502  503 -0.00000000000E+00 -0.00000000000E+00 -0.17556657473E+03  0.17556657473E+03  0.00000000000E+00 0. -1.
         -6    2    1    2    0  503  0.19208834747E+02 -0.60661856382E+02 -0.57125348433E+01  0.18422251598E+03  0.17279022596E+03 0.  0.
        -24    2    3    3    0    0  0.96052264439E+01 -0.12298473535E+02 -0.72002778350E+02  0.10147148893E+03  0.69774996595E+02 0.  0.
          6    2    1    2  501    0 -0.19208834747E+02  0.60661856382E+02  0.21338323354E+02  0.18253642199E+03  0.16975093861E+03 0.  0.
         24    2    5    5    0    0 -0.35261439587E+02  0.14234414213E+02 -0.44935532802E+02  0.99907688984E+02  0.80723952704E+02 0.  0.
          5    1    5    5  501    0  0.16052604840E+02  0.46427442169E+02  0.66273856156E+02  0.82628733006E+02  0.47000000000E+01 0. -1.
        -15    1    6    6    0    0 -0.50149402144E+02  0.16790808335E+02 -0.43939158785E+00  0.52917337177E+02  0.17770000000E+01 0.  1.
         16    1    6    6    0    0  0.14887962557E+02 -0.25563941225E+01 -0.44496141214E+02  0.46990351807E+02  0.00000000000E+00 0. -1.
         -5    1    3    3    0  503  0.96036083033E+01 -0.48363382847E+02  0.66290243507E+02  0.82751027045E+02  0.47000000000E+01 0.  1.
         15    1    4    4    0    0  0.17312895046E+02 -0.34397945712E+02 -0.67359007223E+02  0.77610235067E+02  0.17770000000E+01 0. -1.
        -16    1    4    4    0    0 -0.77076686017E+01  0.22099472177E+02 -0.46437711269E+01  0.23861253866E+02  0.00000000000E+00 0.  1.
<mgrwt>
<rscale>  2 0.18341750E+03</rscale>
<asrwt>0</asrwt>
<pdfrwt beam="1">  1       21 0.29414210E-01 0.18413393E+03</pdfrwt>
<pdfrwt beam="2">  1       21 0.27010242E-01 0.18413393E+03</pdfrwt>
<totfact> 0.14501307E+05</totfact>
</mgrwt>
</event>
<event>
12    2  0.4090627E-002  0.1815273E+03  0.7546771E-02  0.1166383E+00
         21   -1    0    0  501  502  0.00000000000E+00  0.00000000000E+00  0.85871156560E+02  0.85871156560E+02  0.00000000000E+00 0. -1.
         21   -1    0    0  502  503 -0.00000000000E+00 -0.00000000000E+00 -0.79731222303E+03  0.79731222303E+03  0.00000000000E+00 0. -1.
         -6    2    1    2    0  503  0.49698404209E+01  0.55975393924E+02 -0.67383257480E+03  0.69780115258E+03  0.17238957522E+03 0.  0.
        -24    2    3    3    0    0  0.58744918451E+02  0.51728952611E+02 -0.56757427763E+03  0.57854216131E+03  0.80272173310E+02 0.  0.
          6    2    1    2  501    0 -0.49698404209E+01 -0.55975393924E+02 -0.37608491672E+02  0.18538222701E+03  0.17261004434E+03 0.  0.
         24    2    5    5    0    0 -0.13831588829E+02 -0.10111567424E+03 -0.42488241952E+01  0.12836352038E+03  0.77739619429E+02 0.  0.
          5    1    5    5  501    0  0.88617484078E+01  0.45140280320E+02 -0.33359667477E+02  0.57018706636E+02  0.47000000000E+01 0. -1.
        -15    1    6    6    0    0 -0.27388152300E+02 -0.13639948395E+01  0.15909301567E+01  0.27525627260E+02  0.17770000000E+01 0.  1.
         16    1    6    6    0    0  0.13556563471E+02 -0.99751679404E+02 -0.58397543519E+01  0.10083789312E+03  0.00000000000E+00 0. -1.
         -5    1    3    3    0  503 -0.53775078030E+02  0.42464413128E+01 -0.10625829717E+03  0.11925899127E+03  0.47000000000E+01 0.  1.
         15    1    4    4    0    0  0.10687303428E+02 -0.20366094880E+02 -0.77229762891E+02  0.80601428525E+02  0.17770000000E+01 0. -1.
        -16    1    4    4    0    0  0.48057615022E+02  0.72095047490E+02 -0.49034451474E+03  0.49794073278E+03  0.00000000000E+00 0.  1.
<mgrwt>
<rscale>  2 0.18147490E+03</rscale>
<asrwt>0</asrwt>
<pdfrwt beam="1">  1       21 0.13210947E-01 0.18152733E+03</pdfrwt>
<pdfrwt beam="2">  1       21 0.12266342E+00 0.18152733E+03</pdfrwt>
<totfact> 0.24859608E+04</totfact>
</mgrwt>
</event>
<event>
12    2  0.4090627E-002  0.2982682E+03  0.7546771E-02  0.1086153E+00
         21   -1    0    0  503  502  0.00000000000E+00  0.00000000000E+00  0.70128911108E+02  0.70128911108E+02  0.00000000000E+00 0. -1.
         21   -1    0    0  501  503 -0.00000000000E+00 -0.00000000000E+00 -0.15417281738E+04  0.15417281738E+04  0.00000000000E+00 0.  1.
          6    2    1    2  501    0  0.85881502940E+02  0.22691505092E+03 -0.10755859771E+04  0.11160844973E+04  0.17289690005E+03 0.  0.
         24    2    3    3    0    0  0.10599142430E+03  0.12014758947E+03 -0.80043480874E+03  0.82022311891E+03  0.80002852860E+02 0.  0.
         -6    2    1    2    0  502 -0.85881502940E+02 -0.22691505092E+03 -0.39601328551E+03  0.49577258755E+03  0.17348735800E+03 0.  0.
        -24    2    5    5    0    0 -0.11339189680E+03 -0.20144990943E+03 -0.27196307687E+03  0.36609668591E+03  0.81382307602E+02 0.  0.
          5    1    3    3  501    0 -0.20109921361E+02  0.10676746145E+03 -0.27515116841E+03  0.29586137842E+03  0.47000000000E+01 0. -1.
        -15    1    4    4    0    0  0.27275130050E+02  0.90418876773E+02 -0.45311696561E+03  0.46285812972E+03  0.17770000000E+01 0.  1.
         16    1    4    4    0    0  0.78716294251E+02  0.29728712694E+02 -0.34731784313E+03  0.35736498919E+03  0.00000000000E+00 0. -1.
         -5    1    5    5    0  502  0.27510393855E+02 -0.25465141495E+02 -0.12405020865E+03  0.12967590164E+03  0.47000000000E+01 0.  1.
         15    1    6    6    0    0 -0.18424190656E+02 -0.46198746427E+02 -0.11671021639E+03  0.12687871103E+03  0.17770000000E+01 0. -1.
        -16    1    6    6    0    0 -0.94967706139E+02 -0.15525116300E+03 -0.15525286047E+03  0.23921797488E+03  0.00000000000E+00 0.  1.
<mgrwt>
<rscale>  2 0.29818243E+03</rscale>
<asrwt>0</asrwt>
<pdfrwt beam="1">  1       21 0.10789064E-01 0.29826823E+03</pdfrwt>
<pdfrwt beam="2">  1       21 0.23718893E+00 0.29826823E+03</pdfrwt>
<totfact> 0.51574559E+03</totfact>
</mgrwt>
</event>
<event>
12    2  0.4090627E-002  0.1831108E+03  0.7546771E-02  0.1165084E+00
         21   -1    0    0  503  502  0.00000000000E+00  0.00000000000E+00  0.54047252747E+03  0.54047252747E+03  0.00000000000E+00 0.  1.
         21   -1    0    0  501  503 -0.00000000000E+00 -0.00000000000E+00 -0.26253874208E+03  0.26253874208E+03  0.00000000000E+00 0.  1.
          6    2    1    2  501    0  0.27993939453E+02  0.50944873109E+02 -0.21213337508E+03  0.28023228695E+03  0.17363906556E+03 0.  0.
         24    2    3    3    0    0  0.10099643135E+02  0.34073027143E+01 -0.21522647414E+03  0.22912765212E+03  0.77868050514E+02 0.  0.
         -6    2    1    2    0  502 -0.27993939453E+02 -0.50944873109E+02  0.49006716047E+03  0.52277898259E+03  0.17249058562E+03 0.  0.
        -24    2    5    5    0    0 -0.49328479838E+01  0.36718621718E+02  0.20063077570E+03  0.21944383281E+03  0.80810255725E+02 0.  0.
          5    1    3    3  501    0  0.17894296318E+02  0.47537570395E+02  0.30930990655E+01  0.51104634834E+02  0.47000000000E+01 0. -1.
        -15    1    4    4    0    0 -0.66080180599E+01 -0.33904259305E+02 -0.13121852381E+03  0.13570049161E+03  0.17770000000E+01 0.  1.
         16    1    4    4    0    0  0.16707661195E+02  0.37311562019E+02 -0.84007950327E+02  0.93427160511E+02  0.00000000000E+00 0. -1.
         -5    1    5    5    0  502 -0.23061091469E+02 -0.87663494827E+02  0.28943638477E+03  0.30333514978E+03  0.47000000000E+01 0.  1.
         15    1    6    6    0    0  0.35136333244E+02  0.87229491511E+01  0.55365576208E+02  0.66175195607E+02  0.17770000000E+01 0. -1.
        -16    1    6    6    0    0 -0.40069181228E+02  0.27995672567E+02  0.14526519950E+03  0.15326863721E+03  0.00000000000E+00 0.  1.
<mgrwt>
<rscale>  2 0.18283802E+03</rscale>
<asrwt>0</asrwt>
<pdfrwt beam="1">  1       21 0.83149619E-01 0.18311080E+03</pdfrwt>
<pdfrwt beam="2">  1       21 0.40390576E-01 0.18311080E+03</pdfrwt>
<totfact> 0.74943784E+03</totfact>
</mgrwt>
</event>
<event>
12    2  0.4090627E-002  0.2011792E+03  0.7546771E-02  0.1149116E+00
         21   -1    0    0  503  502  0.00000000000E+00  0.00000000000E+00  0.41941789493E+02  0.41941789493E+02  0.00000000000E+00 0. -1.
         21   -1    0    0  501  503 -0.00000000000E+00 -0.00000000000E+00 -0.14480096000E+04  0.14480096000E+04  0.00000000000E+00 0. -1.
          6    2    1    2  501    0  0.66604051778E+02  0.76659262563E+02 -0.11349900656E+04  0.11523773995E+04  0.17163472721E+03 0.  0.
         24    2    3    3    0    0  0.93082010716E+02  0.50965426123E+01 -0.67972853744E+03  0.69074177021E+03  0.80019204155E+02 0.  0.
         -6    2    1    2    0  502 -0.66604051778E+02 -0.76659262563E+02 -0.27107774487E+03  0.33757398997E+03  0.17366724703E+03 0.  0.
        -24    2    5    5    0    0  0.11994336713E+02 -0.77839935471E+02 -0.10610489443E+03  0.15477018245E+03  0.80576926511E+02 0.  0.
          5    1    3    3  501    0 -0.26477958938E+02  0.71562719950E+02 -0.45526152816E+03  0.46163562927E+03  0.47000000000E+01 0. -1.
        -15    1    4    4    0    0  0.45884796879E+02 -0.16722569549E+02 -0.52987061437E+03  0.53211942702E+03  0.17770000000E+01 0.  1.
         16    1    4    4    0    0  0.47197213838E+02  0.21819112162E+02 -0.14985792308E+03  0.15862234319E+03  0.00000000000E+00 0. -1.
         -5    1    5    5    0  502 -0.78598388491E+02  0.11806729087E+01 -0.16497285043E+03  0.18280380752E+03  0.47000000000E+01 0.  1.
         15    1    6    6    0    0 -0.26678493148E+01 -0.33011384801E+02  0.54894806679E+01  0.33617868365E+02  0.17770000000E+01 0. -1.
        -16    1    6    6    0    0  0.14662186028E+02 -0.44828550671E+02 -0.11159437510E+03  0.12115231408E+03  0.00000000000E+00 0.  1.
<mgrwt>
<rscale>  2 0.20073974E+03</rscale>
<asrwt>0</asrwt>
<pdfrwt beam="1">  1       21 0.64525824E-02 0.20117916E+03</pdfrwt>
<pdfrwt beam="2">  1       21 0.22277073E+00 0.20117916E+03</pdfrwt>
<totfact> 0.16720635E+04</totfact>
</mgrwt>
</event>
<event>
12    2  0.4090627E-002  0.2810525E+03  0.7546771E-02  0.1095173E+00
         21   -1    0    0  501  502  0.00000000000E+00  0.00000000000E+00  0.14808527711E+03  0.14808527711E+03  0.00000000000E+00 0. -1.
         21   -1    0    0  502  503 -0.00000000000E+00 -0.00000000000E+00 -0.54684291165E+03  0.54684291165E+03  0.00000000000E+00 0.  1.
         -6    2    1    2    0  503  0.20186857567E+03 -0.89340048118E+02 -0.25529648540E+03  0.37937846393E+03  0.17326037458E+03 0.  0.
        -24    2    3    3    0    0  0.18141705585E+03 -0.17656574195E+02 -0.21959030872E+03  0.29659074655E+03  0.80760537938E+02 0.  0.
          6    2    1    2  501    0 -0.20186857567E+03  0.89340048118E+02 -0.14346114914E+03  0.31554972483E+03  0.17394815747E+03 0.  0.
         24    2    5    5    0    0 -0.17926471994E+02  0.25616558737E+02 -0.38840702583E+02  0.94500163779E+02  0.80275240875E+02 0.  0.
          5    1    5    5  501    0 -0.18394210367E+03  0.63723489381E+02 -0.10462044656E+03  0.22104956105E+03  0.47000000000E+01 0. -1.
        -15    1    6    6    0    0 -0.41946482948E+02  0.88269664140E+01 -0.47436508459E+02  0.63959384234E+02  0.17770000000E+01 0.  1.
         16    1    6    6    0    0  0.24020010954E+02  0.16789592323E+02  0.85958058759E+01  0.30540779545E+02  0.00000000000E+00 0. -1.
         -5    1    3    3    0  503  0.20451519816E+02 -0.71683473923E+02 -0.35706176679E+02  0.82787717383E+02  0.47000000000E+01 0.  1.
         15    1    4    4    0    0  0.76633483338E+02 -0.29523670895E+02 -0.47864453150E+02  0.95071034053E+02  0.17770000000E+01 0. -1.
        -16    1    4    4    0    0  0.10478357251E+03  0.11867096700E+02 -0.17172585557E+03  0.20151971250E+03  0.00000000000E+00 0.  1.
<mgrwt>
<rscale>  2 0.28094618E+03</rscale>
<asrwt>0</asrwt>
<pdfrwt beam="1">  1       21 0.22782351E-01 0.28105254E+03</pdfrwt>
<pdfrwt beam="2">  1       21 0.84129677E-01 0.28105254E+03</pdfrwt>
<totfact> 0.21182159E+04</totfact>
</mgrwt>
</event>
<event>
12    2  0.4090627E-002  0.1961454E+03  0.7546771E-02  0.1153138E+00
         21   -1    0    0  503  502  0.00000000000E+00  0.00000000000E+00  0.22968573493E+02  0.22968573493E+02  0.00000000000E+00 0.  1.
         21   -1    0    0  501  503 -0.00000000000E+00 -0.00000000000E+00 -0.21468373583E+04  0.21468373583E+04  0.00000000000E+00 0. -1.
          6    2    1    2  501    0 -0.84608648800E+02 -0.35578010445E+02 -0.15737807055E+04  0.15859567252E+04  0.17334534014E+03 0.  0.
         24    2    3    3    0    0  0.54172172506E+01  0.19423684657E+02 -0.92135908163E+03  0.92504378971E+03  0.79980183795E+02 0.  0.
         -6    2    1    2    0  502  0.84608648800E+02  0.35578010445E+02 -0.55008807924E+03  0.58384920652E+03  0.17279636209E+03 0.  0.
        -24    2    5    5    0    0  0.11913008155E+03  0.20163466878E+01 -0.35641823444E+03  0.38422903375E+03  0.80012190004E+02 0.  0.
          5    1    3    3  501    0 -0.90025866051E+02 -0.55001695102E+02 -0.65242162390E+03  0.66091293554E+03  0.47000000000E+01 0. -1.
        -15    1    4    4    0    0  0.39785728533E+02  0.24970386988E+02 -0.58614199510E+03  0.58802382653E+03  0.17770000000E+01 0.  1.
         16    1    4    4    0    0 -0.34368511283E+02 -0.55467023301E+01 -0.33521708653E+03  0.33701996317E+03  0.00000000000E+00 0. -1.
         -5    1    5    5    0  502 -0.34521432745E+02  0.33561663757E+02 -0.19366984480E+03  0.19962017277E+03  0.47000000000E+01 0.  1.
         15    1    6    6    0    0 -0.46987874309E+01 -0.65782298555E+01 -0.17403669718E+01  0.84580327234E+01  0.17770000000E+01 0. -1.
        -16    1    6    6    0    0  0.12382886898E+03  0.85945765433E+01 -0.35467786747E+03  0.37577100103E+03  0.00000000000E+00 0.  1.
<mgrwt>
<rscale>  2 0.19602406E+03</rscale>
<asrwt>0</asrwt>
<pdfrwt beam="1">  1       21 0.35336248E-02 0.19614542E+03</pdfrwt>
<pdfrwt beam="2">  1       21 0.33028284E+00 0.19614542E+03</pdfrwt>
<totfact> 0.10954513E+04</totfact>
</mgrwt>
</event>
<event>
12    2  0.4090627E-002  0.1732399E+03  0.7546771E-02  0.1178892E+00
         21   -1    0    0  503  502  0.00000000000E+00  0.00000000000E+00  0.69036577636E+02  0.69036577636E+02  0.00000000000E+00 0.  1.
         21   -1    0    0  501  503 -0.00000000000E+00 -0.00000000000E+00 -0.46809558628E+03  0.46809558628E+03  0.00000000000E+00 0.  1.
          6    2    1    2  501    0 -0.42421473747E+00 -0.16713443333E+02 -0.84964971816E+02  0.17843017377E+03  0.15600885017E+03 0.  0.
         24    2    3    3    0    0 -0.57325437746E+02 -0.15691249105E+02 -0.50515299309E+02  0.11173936484E+03  0.80009181212E+02 0.  0.
         -6    2    1    2    0  502  0.42421473747E+00  0.16713443333E+02 -0.31409403683E+03  0.35870199014E+03  0.17243124605E+03 0.  0.
        -24    2    5    5    0    0  0.46210047724E+02 -0.38751096209E+02 -0.19965240294E+03  0.22345541822E+03  0.80213627061E+02 0.  0.
          5    1    3    3  501    0  0.56901223008E+02 -0.10221942282E+01 -0.34449672506E+02  0.66690808937E+02  0.47000000000E+01 0. -1.
        -15    1    4    4    0    0 -0.91200661040E+01  0.17646943427E+02  0.14158854334E+02  0.24458558893E+02  0.17770000000E+01 0.  1.
         16    1    4    4    0    0 -0.48205371642E+02 -0.33338192532E+02 -0.64674153644E+02  0.87280805942E+02  0.00000000000E+00 0. -1.
         -5    1    5    5    0  502 -0.45785832986E+02  0.55464539542E+02 -0.11444163389E+03  0.13524657192E+03  0.47000000000E+01 0.  1.
         15    1    6    6    0    0  0.14816740225E+02  0.10594450345E+02 -0.33236747330E+01  0.18600610520E+02  0.17770000000E+01 0. -1.
        -16    1    6    6    0    0  0.31393307499E+02 -0.49345546554E+02 -0.19632872820E+03  0.20485480770E+03  0.00000000000E+00 0.  1.
<mgrwt>
<rscale>  2 0.16900249E+03</rscale>
<asrwt>0</asrwt>
<pdfrwt beam="1">  1       21 0.10621012E-01 0.17323987E+03</pdfrwt>
<pdfrwt beam="2">  1       21 0.72014707E-01 0.17323987E+03</pdfrwt>
<totfact> 0.12782396E+05</totfact>
</mgrwt>
</event>
<event>
12    2  0.4090627E-002  0.2233557E+03  0.7546771E-02  0.1131512E+00
         21   -1    0    0  501  502  0.00000000000E+00  0.00000000000E+00  0.50855330484E+02  0.50855330484E+02  0.00000000000E+00 0.  1.
         21   -1    0    0  502  503 -0.00000000000E+00 -0.00000000000E+00 -0.98649292549E+03  0.98649292549E+03  0.00000000000E+00 0. -1.
         -6    2    1    2    0  503  0.11204188332E+03 -0.85911158608E+02 -0.42028408606E+03  0.47567483808E+03  0.17231868093E+03 0.  0.
        -24    2    3    3    0    0  0.58014805045E+02 -0.11120670089E+03 -0.36449991015E+03  0.39386558476E+03  0.80853363760E+02 0.  0.
          6    2    1    2  501    0 -0.11204188332E+03  0.85911158608E+02 -0.51535350895E+03  0.56167341790E+03  0.17307131014E+03 0.  0.
         24    2    5    5    0    0 -0.13903278708E+03  0.10329917701E+03 -0.43955466988E+03  0.47922097055E+03  0.80272005989E+02 0.  0.
          5    1    5    5  501    0  0.26990903755E+02 -0.17388018405E+02 -0.75798839068E+02  0.82452447348E+02  0.47000000000E+01 0. -1.
        -15    1    6    6    0    0 -0.81709685890E+01  0.84655373873E+01 -0.11232769418E+01  0.11951967663E+02  0.17770000000E+01 0.  1.
         16    1    6    6    0    0 -0.13086181849E+03  0.94833639625E+02 -0.43843139294E+03  0.46726900289E+03  0.00000000000E+00 0. -1.
         -5    1    3    3    0  503  0.54027078276E+02  0.25295542287E+02 -0.55784175905E+02  0.81809253316E+02  0.47000000000E+01 0.  1.
         15    1    4    4    0    0  0.49358961353E+02 -0.48414402981E+02 -0.27892657309E+03  0.28737336757E+03  0.17770000000E+01 0. -1.
        -16    1    4    4    0    0  0.86558436922E+01 -0.62792297914E+02 -0.85573337059E+02  0.10649221719E+03  0.00000000000E+00 0.  1.
<mgrwt>
<rscale>  2 0.22320993E+03</rscale>
<asrwt>0</asrwt>
<pdfrwt beam="1">  1       21 0.78238974E-02 0.22335575E+03</pdfrwt>
<pdfrwt beam="2">  1       21 0.15176813E+00 0.22335575E+03</pdfrwt>
<totfact> 0.35503733E+04</totfact>
</mgrwt>
</event>
<event>
12    2  0.4090627E-002  0.1882836E+03  0.7546771E-02  0.1160041E+00
         21   -1    0    0  503  502  0.00000000000E+00  0.00000000000E+00  0.16211638364E+02  0.16211638364E+02  0.00000000000E+00 0. -1.
         21   -1    0    0  501  503 -0.00000000000E+00 -0.00000000000E+00 -0.31989307626E+04  0.31989307626E+04  0.00000000000E+00 0. -1.
          6    2    1    2  501    0  0.66259695641E+02 -0.38415042837E+02 -0.68629587598E+03  0.71162891986E+03  0.17189423320E+03 0.  0.
         24    2    3    3    0    0  0.97115704278E+02 -0.66277488109E+02 -0.46214516267E+03  0.48360690031E+03  0.80456927556E+02 0.  0.
         -6    2    1    2    0  502 -0.66259695641E+02  0.38415042837E+02 -0.24964232483E+04  0.25035134812E+04  0.17200189785E+03 0.  0.
        -24    2    5    5    0    0  0.13893036061E+02 -0.24284647643E+02 -0.11223068852E+04  0.11256261196E+04  0.81723045430E+02 0.  0.
          5    1    3    3  501    0 -0.30856008637E+02  0.27862445272E+02 -0.22415071331E+03  0.22802201955E+03  0.47000000000E+01 0. -1.
        -15    1    4    4    0    0  0.15285020402E+02 -0.58054869691E+02 -0.20669215441E+03  0.21524126967E+03  0.17770000000E+01 0.  1.
         16    1    4    4    0    0  0.81830683876E+02 -0.82226184179E+01 -0.25545300826E+03  0.26836563064E+03  0.00000000000E+00 0. -1.
         -5    1    5    5    0  502 -0.80152731702E+02  0.62699690480E+02 -0.13741163631E+04  0.13778873615E+04  0.47000000000E+01 0.  1.
         15    1    6    6    0    0 -0.24610339366E+02  0.14290727579E+02 -0.54718952212E+03  0.54793195248E+03  0.17770000000E+01 0. -1.
        -16    1    6    6    0    0  0.38503375427E+02 -0.38575375222E+02 -0.57511736304E+03  0.57769416715E+03  0.00000000000E+00 0.  1.
<mgrwt>
<rscale>  2 0.18825901E+03</rscale>
<asrwt>0</asrwt>
<pdfrwt beam="1">  1       21 0.24940983E-02 0.18828360E+03</pdfrwt>
<pdfrwt beam="2">  1       21 0.49214318E+00 0.18828360E+03</pdfrwt>
<totfact> 0.18567296E+03</totfact>
</mgrwt>
</event>
<event>
12    2  0.4090627E-002  0.1964378E+03  0.7546771E-02  0.1152978E+00
         21   -1    0    0  503  502  0.00000000000E+00  0.00000000000E+00  0.34043033430E+03  0.34043033430E+03  0.00000000000E+00 0.  1.
         21   -1    0    0  501  503 -0.00000000000E+00 -0.00000000000E+00 -0.16970670536E+03  0.16970670536E+03  0.00000000000E+00 0.  1.
          6    2    1    2  501    0  0.75691768560E+02  0.53303510127E+02 -0.62179292831E+02  0.20604384448E+03  0.17325499523E+03 0.  0.
         24    2    3    3    0    0  0.90643564006E+02 -0.24157192784E+01 -0.62243630688E+01  0.12553773989E+03  0.86596131814E+02 0.  0.
         -6    2    1    2    0  502 -0.75691768560E+02 -0.53303510127E+02  0.23290292177E+03  0.30409319518E+03  0.17221612109E+03 0.  0.
        -24    2    5    5    0    0 -0.11639035061E+02 -0.68091904898E+02  0.67627279531E+02  0.12616181176E+03  0.81064043564E+02 0.  0.
          5    1    3    3  501    0 -0.14951795445E+02  0.55719229405E+02 -0.55954929762E+02  0.80506104596E+02  0.47000000000E+01 0. -1.
        -15    1    4    4    0    0 -0.10565255871E+02 -0.13480283114E+02 -0.15678790540E+02  0.23287869509E+02  0.17770000000E+01 0.  1.
         16    1    4    4    0    0  0.10120881988E+03  0.11064563835E+02  0.94544274715E+01  0.10224987038E+03  0.00000000000E+00 0. -1.
         -5    1    5    5    0  502 -0.64052733499E+02  0.14788394771E+02  0.16527564224E+03  0.17793138342E+03  0.47000000000E+01 0.  1.
         15    1    6    6    0    0 -0.58798288891E+01 -0.88916612250E+01 -0.18539638321E+02  0.21459495455E+02  0.17770000000E+01 0. -1.
        -16    1    6    6    0    0 -0.57592061723E+01 -0.59200243673E+02  0.86166917852E+02  0.10470231630E+03  0.00000000000E+00 0.  1.
<mgrwt>
<rscale>  2 0.19620846E+03</rscale>
<asrwt>0</asrwt>
<pdfrwt beam="1">  1       21 0.52373898E-01 0.19643778E+03</pdfrwt>
<pdfrwt beam="2">  1       21 0.26108724E-01 0.19643778E+03</pdfrwt>
<totfact> 0.48115060E+04</totfact>
</mgrwt>
</event>
<event>
12    2  0.4090627E-002  0.2251078E+03  0.7546771E-02  0.1130310E+00
         21   -1    0    0  501  502  0.00000000000E+00  0.00000000000E+00  0.58296565708E+03  0.58296565708E+03  0.00000000000E+00 0.  1.
         21   -1    0    0  502  503 -0.00000000000E+00 -0.00000000000E+00 -0.16504774728E+03  0.16504774728E+03  0.00000000000E+00 0. -1.
         -6    2    1    2    0  503  0.87935364947E+01 -0.14270070848E+03 -0.49222393347E+02  0.22946391815E+03  0.17259787728E+03 0.  0.
        -24    2    3    3    0    0 -0.37229690687E+02 -0.48078281445E+02 -0.70369762705E+02  0.12203560545E+03  0.79014014449E+02 0.  0.
          6    2    1    2  501    0 -0.87935364947E+01  0.14270070848E+03  0.46714030315E+03  0.51854948621E+03  0.17387549667E+03 0.  0.
         24    2    5    5    0    0  0.31957852471E+02  0.15873551334E+03  0.37840070710E+03  0.41948084044E+03  0.80986497829E+02 0.  0.
          5    1    5    5  501    0 -0.40751388965E+02 -0.16034804854E+02  0.88739596042E+02  0.99068645771E+02  0.47000000000E+01 0. -1.
        -15    1    6    6    0    0  0.14788508589E+02  0.13066852018E+03  0.35642613324E+03  0.37991539629E+03  0.17770000000E+01 0.  1.
         16    1    6    6    0    0  0.17169343882E+02  0.28066993159E+02  0.21974573862E+02  0.39565444149E+02  0.00000000000E+00 0. -1.
         -5    1    3    3    0  503  0.46023227182E+02 -0.94622427038E+02  0.21147369358E+02  0.10742831270E+03  0.47000000000E+01 0.  1.
         15    1    4    4    0    0 -0.87981143892E+01 -0.48938626440E+02 -0.41052349134E+01  0.49924008827E+02  0.17770000000E+01 0. -1.
        -16    1    4    4    0    0 -0.28431576298E+02  0.86034499502E+00 -0.66264527792E+02  0.72111596625E+02  0.00000000000E+00 0.  1.
<mgrwt>
<rscale>  2 0.22486102E+03</rscale>
<asrwt>0</asrwt>
<pdfrwt beam="1">  1       21 0.89687023E-01 0.22510777E+03</pdfrwt>
<pdfrwt beam="2">  1       21 0.25391961E-01 0.22510777E+03</pdfrwt>
<totfact> 0.15261588E+04</totfact>
</mgrwt>
</event>
<event>
12    2  0.4090627E-002  0.2007494E+03  0.7546771E-02  0.1150390E+00
         21   -1    0    0  501  502  0.00000000000E+00  0.00000000000E+00  0.40441259368E+03  0.40441259368E+03  0.00000000000E+00 0.  1.
         21   -1    0    0  502  503 -0.00000000000E+00 -0.00000000000E+00 -0.11946335936E+03  0.11946335936E+03  0.00000000000E+00 0.  1.
         -6    2    1    2    0  503  0.58535456660E+02  0.84511144040E+02  0.29876712922E+02  0.20296045941E+03  0.17242910704E+03 0.  0.
        -24    2    3    3    0    0 -0.32850499636E+02  0.46311930342E+02  0.71004826141E+01  0.10121853294E+03  0.83491462669E+02 0.  0.
          6    2    1    2  501    0 -0.58535456660E+02 -0.84511144040E+02  0.25507252141E+03  0.32091549363E+03  0.16539718777E+03 0.  0.
         24    2    5    5    0    0 -0.34408039306E+02 -0.85415134410E+02  0.26698213915E+03  0.29358641641E+03  0.80211364020E+02 0.  0.
          5    1    5    5  501    0 -0.24127417354E+02  0.90399036987E+00 -0.11909617749E+02  0.27329077220E+02  0.47000000000E+01 0. -1.
        -15    1    6    6    0    0 -0.22659109386E+02 -0.41196484610E+02  0.22997990104E+03  0.23474347316E+03  0.17770000000E+01 0.  1.
         16    1    6    6    0    0 -0.11748929920E+02 -0.44218649799E+02  0.37002238117E+02  0.58842943247E+02  0.00000000000E+00 0. -1.
         -5    1    3    3    0  503  0.91385956296E+02  0.38199213698E+02  0.22776230308E+02  0.10174192647E+03  0.47000000000E+01 0.  1.
         15    1    4    4    0    0  0.64816102895E+01  0.12475063669E+02  0.38189157613E+02  0.40733376655E+02  0.17770000000E+01 0. -1.
        -16    1    4    4    0    0 -0.39332109926E+02  0.33836866673E+02 -0.31088674999E+02  0.60485156284E+02  0.00000000000E+00 0.  1.
<mgrwt>
<rscale>  2 0.19923062E+03</rscale>
<asrwt>0</asrwt>
<pdfrwt beam="1">  1       21 0.62217322E-01 0.20074942E+03</pdfrwt>
<pdfrwt beam="2">  1       21 0.18378978E-01 0.20074942E+03</pdfrwt>
<totfact> 0.64493905E+04</totfact>
</mgrwt>
</event>
<event>
12    2  0.4090627E-002  0.1917089E+03  0.7546771E-02  0.1157103E+00
         21   -1    0    0  501  502  0.00000000000E+00  0.00000000000E+00  0.60917805520E+02  0.60917805520E+02  0.00000000000E+00 0.  1.
         21   -1    0    0  502  503 -0.00000000000E+00 -0.00000000000E+00 -0.70724066002E+03  0.70724066002E+03  0.00000000000E+00 0. -1.
         -6    2    1    2    0  503 -0.81132879761E+02  0.13971384939E+02 -0.17476006395E+03  0.25940970187E+03  0.17313165424E+03 0.  0.
        -24    2    3    3    0    0 -0.83822244409E+02  0.20231437071E+02 -0.20018520320E+03  0.23267117833E+03  0.81401977505E+02 0.  0.
          6    2    1    2  501    0  0.81132879761E+02 -0.13971384939E+02 -0.47156279055E+03  0.50874876367E+03  0.17226751094E+03 0.  0.
         24    2    5    5    0    0 -0.43678910679E+01  0.35415351780E+01 -0.35080376031E+03  0.35967858701E+03  0.79207239332E+02 0.  0.
          5    1    5    5  501    0  0.85500770829E+02 -0.17512920117E+02 -0.12075903024E+03  0.14907017665E+03  0.47000000000E+01 0. -1.
        -15    1    6    6    0    0 -0.20835482703E+02 -0.33030617911E+02 -0.16026744516E+03  0.16496651407E+03  0.17770000000E+01 0.  1.
         16    1    6    6    0    0  0.16467591636E+02  0.36572153089E+02 -0.19053631515E+03  0.19471207294E+03  0.00000000000E+00 0. -1.
         -5    1    3    3    0  503  0.26893646481E+01 -0.62600521314E+01  0.25425139255E+02  0.26738523539E+02  0.47000000000E+01 0.  1.
         15    1    4    4    0    0 -0.58314736199E+02  0.46299686098E+02 -0.91222367495E+02  0.11776649545E+03  0.17770000000E+01 0. -1.
        -16    1    4    4    0    0 -0.25507508211E+02 -0.26068249027E+02 -0.10896283571E+03  0.11490468288E+03  0.00000000000E+00 0.  1.
<mgrwt>
<rscale>  2 0.19151362E+03</rscale>
<asrwt>0</asrwt>
<pdfrwt beam="1">  1       21 0.93719696E-02 0.19170893E+03</pdfrwt>
<pdfrwt beam="2">  1       21 0.10880626E+00 0.19170893E+03</pdfrwt>
<totfact> 0.61034234E+04</totfact>
</mgrwt>
</event>
<event>
12    2  0.4090627E-002  0.1775181E+03  0.7546771E-02  0.1170935E+00
         21   -1    0    0  503  502  0.00000000000E+00  0.00000000000E+00  0.13614913520E+04  0.13614913520E+04  0.00000000000E+00 0. -1.
         21   -1    0    0  501  503 -0.00000000000E+00 -0.00000000000E+00 -0.13978477645E+03  0.13978477645E+03  0.00000000000E+00 0. -1.
          6    2    1    2  501    0  0.31723226932E+02 -0.20473224557E+02 -0.76716928316E+02  0.19077383236E+03  0.17053929744E+03 0.  0.
         24    2    3    3    0    0  0.73502445191E+01  0.13538274691E+02 -0.11017070773E+03  0.13699586559E+03  0.79956059008E+02 0.  0.
         -6    2    1    2    0  502 -0.31723226932E+02  0.20473224557E+02  0.12984235039E+04  0.13105022961E+04  0.17345649770E+03 0.  0.
        -24    2    5    5    0    0 -0.47651574895E+02 -0.41850225737E+02  0.10153706863E+04  0.10201939906E+04  0.76131687131E+02 0.  0.
          5    1    3    3  501    0  0.24372982413E+02 -0.34011499248E+02  0.33453779413E+02  0.53777966769E+02  0.47000000000E+01 0. -1.
        -15    1    4    4    0    0 -0.29553270257E+02 -0.35691339527E+01 -0.14754755588E+02  0.33271535003E+02  0.17770000000E+01 0.  1.
         16    1    4    4    0    0  0.36903514776E+02  0.17107408643E+02 -0.95415952141E+02  0.10372433059E+03  0.00000000000E+00 0. -1.
         -5    1    5    5    0  502  0.15928347963E+02  0.62323450294E+02  0.28305281755E+03  0.29030830551E+03  0.47000000000E+01 0.  1.
         15    1    6    6    0    0 -0.29383319174E+02  0.80542196376E+01  0.67591216387E+03  0.67660081355E+03  0.17770000000E+01 0. -1.
        -16    1    6    6    0    0 -0.18268255721E+02 -0.49904445374E+02  0.33945852246E+03  0.34359317703E+03  0.00000000000E+00 0.  1.
<mgrwt>
<rscale>  2 0.17680142E+03</rscale>
<asrwt>0</asrwt>
<pdfrwt beam="1">  1       21 0.20946020E+00 0.17751809E+03</pdfrwt>
<pdfrwt beam="2">  1       21 0.21505351E-01 0.17751809E+03</pdfrwt>
<totfact> 0.23948003E+03</totfact>
</mgrwt>
</event>
<event>
12    2  0.4090627E-002  0.1979321E+03  0.7546771E-02  0.1154702E+00
         21   -1    0    0  503  502  0.00000000000E+00  0.00000000000E+00  0.32713078136E+03  0.32713078136E+03  0.00000000000E+00 0.  1.
         21   -1    0    0  501  503 -0.00000000000E+00 -0.00000000000E+00 -0.54258405177E+03  0.54258405177E+03  0.00000000000E+00 0.  1.
          6    2    1    2  501    0 -0.56155371737E+02 -0.21469404005E+02 -0.49457940999E+03  0.52753281612E+03  0.17340045623E+03 0.  0.
         24    2    3    3    0    0 -0.74025334959E+02  0.14845515807E+02 -0.19539397639E+03  0.22558559778E+03  0.83725243281E+02 0.  0.
         -6    2    1    2    0  502  0.56155371737E+02  0.21469404005E+02  0.27912613957E+03  0.34218201700E+03  0.18858093722E+03 0.  0.
        -24    2    5    5    0    0 -0.35372723457E+02  0.51805173970E+02  0.14799276730E+03  0.17934558843E+03  0.79548571946E+02 0.  0.
          5    1    3    3  501    0  0.17869963222E+02 -0.36314919812E+02 -0.29918543360E+03  0.30194721834E+03  0.47000000000E+01 0. -1.
        -15    1    4    4    0    0 -0.14245951983E+02  0.38040814085E+02 -0.11951318461E+03  0.12624028560E+03  0.17770000000E+01 0.  1.
         16    1    4    4    0    0 -0.59779382976E+02 -0.23195298278E+02 -0.75880791775E+02  0.99345312177E+02  0.00000000000E+00 0. -1.
         -5    1    5    5    0  502  0.91528095194E+02 -0.30335769965E+02  0.13113337227E+03  0.16283642858E+03  0.47000000000E+01 0.  1.
         15    1    6    6    0    0 -0.12465432537E+02  0.12967560447E+02 -0.58761659228E+01  0.19006096055E+02  0.17770000000E+01 0. -1.
        -16    1    6    6    0    0 -0.22907290919E+02  0.38837613523E+02  0.15386893323E+03  0.16033949237E+03  0.00000000000E+00 0.  1.
<mgrwt>
<rscale>  2 0.19422812E+03</rscale>
<asrwt>0</asrwt>
<pdfrwt beam="1">  1       21 0.50327812E-01 0.19793214E+03</pdfrwt>
<pdfrwt beam="2">  1       21 0.83474470E-01 0.19793214E+03</pdfrwt>
<totfact> 0.46746174E+03</totfact>
</mgrwt>
</event>
<event>
12    2  0.4090627E-002  0.1857347E+03  0.7546771E-02  0.1162694E+00
         21   -1    0    0  501  502  0.00000000000E+00  0.00000000000E+00  0.16363202062E+03  0.16363202062E+03  0.00000000000E+00 0.  1.
         21   -1    0    0  502  503 -0.00000000000E+00 -0.00000000000E+00 -0.23739643162E+03  0.23739643162E+03  0.00000000000E+00 0.  1.
         -6    2    1    2    0  503  0.23650191922E+01  0.71680898955E+02 -0.10582702325E+03  0.21254668734E+03  0.16980279991E+03 0.  0.
        -24    2    3    3    0    0  0.31252684889E+02  0.79866942315E+02 -0.10190479726E+02  0.11219756181E+03  0.71616954784E+02 0.  0.
          6    2    1    2  501    0 -0.23650191922E+01 -0.71680898955E+02  0.32062612254E+02  0.18848176491E+03  0.17132898181E+03 0.  0.
         24    2    5    5    0    0 -0.37814669223E+02 -0.71544262141E+02 -0.23183886180E+02  0.12267172049E+03  0.89231876457E+02 0.  0.
          5    1    5    5  501    0  0.35449650031E+02 -0.13663681401E+00  0.55246498434E+02  0.65810044417E+02  0.47000000000E+01 0. -1.
        -15    1    6    6    0    0  0.25880981434E+02 -0.13520770183E+02  0.91363884344E+01  0.30647475410E+02  0.17770000000E+01 0.  1.
         16    1    6    6    0    0 -0.63695650658E+02 -0.58023491958E+02 -0.32320274614E+02  0.92024245081E+02  0.00000000000E+00 0. -1.
         -5    1    3    3    0  503 -0.28887665697E+02 -0.81860433597E+01 -0.95636543526E+02  0.10034912552E+03  0.47000000000E+01 0.  1.
         15    1    4    4    0    0  0.25038564974E+02  0.23198042305E+01  0.16295399032E+02  0.30016811727E+02  0.17770000000E+01 0. -1.
        -16    1    4    4    0    0  0.62141199152E+01  0.77547138084E+02 -0.26485878759E+02  0.82180750088E+02  0.00000000000E+00 0.  1.
<mgrwt>
<rscale>  2 0.18538194E+03</rscale>
<asrwt>0</asrwt>
<pdfrwt beam="1">  1       21 0.25174157E-01 0.18573466E+03</pdfrwt>
<pdfrwt beam="2">  1       21 0.36522528E-01 0.18573466E+03</pdfrwt>
<totfact> 0.10834079E+05</totfact>
</mgrwt>
</event>
<event>
12    2  0.4090627E-002  0.1904401E+03  0.7546771E-02  0.1158712E+00
         21   -1    0    0  501  502  0.00000000000E+00  0.00000000000E+00  0.15425967611E+03  0.15425967611E+03  0.00000000000E+00 0. -1.
         21   -1    0    0  502  503 -0.00000000000E+00 -0.00000000000E+00 -0.47609027212E+03  0.47609027212E+03  0.00000000000E+00 0. -1.
         -6    2    1    2    0  503 -0.64000616211E+02 -0.39362137755E+02 -0.38618309513E+03  0.42933090045E+03  0.17187839409E+03 0.  0.
        -24    2    3    3    0    0 -0.71745776300E+02 -0.87433310805E+02 -0.25998511153E+03  0.29398376806E+03  0.77731315492E+02 0.  0.
          6    2    1    2  501    0  0.64000616211E+02  0.39362137755E+02  0.64352499115E+02  0.20101904779E+03  0.17499130455E+03 0.  0.
         24    2    5    5    0    0  0.77179359732E+01  0.74816443076E+02 -0.24093782600E+01  0.10665811238E+03  0.75584926687E+02 0.  0.
          5    1    5    5  501    0  0.56282680238E+02 -0.35454305321E+02  0.66761877375E+02  0.94360935409E+02  0.47000000000E+01 0. -1.
        -15    1    6    6    0    0  0.34794224079E+02  0.44533059600E+02 -0.23089169632E+02  0.61074535691E+02  0.17770000000E+01 0.  1.
         16    1    6    6    0    0 -0.27076288106E+02  0.30283383476E+02  0.20679791372E+02  0.45583576687E+02  0.00000000000E+00 0. -1.
         -5    1    3    3    0  503  0.77451600894E+01  0.48071173051E+02 -0.12619798360E+03  0.13534713239E+03  0.47000000000E+01 0.  1.
         15    1    4    4    0    0 -0.45275539190E+02 -0.24267822294E+02 -0.44870843633E+02  0.68230139859E+02  0.17770000000E+01 0. -1.
        -16    1    4    4    0    0 -0.26470237110E+02 -0.63165488511E+02 -0.21511426790E+03  0.22575362820E+03  0.00000000000E+00 0.  1.
<mgrwt>
<rscale>  2 0.18972191E+03</rscale>
<asrwt>0</asrwt>
<pdfrwt beam="1">  1       21 0.23732258E-01 0.19044005E+03</pdfrwt>
<pdfrwt beam="2">  1       21 0.73244657E-01 0.19044005E+03</pdfrwt>
<totfact> 0.28066382E+04</totfact>
</mgrwt>
</event>
<event>
12    2  0.4090627E-002  0.2214107E+03  0.7546771E-02  0.1132974E+00
         21   -1    0    0  503  502  0.00000000000E+00  0.00000000000E+00  0.74681883195E+03  0.74681883195E+03  0.00000000000E+00 0.  1.
         21   -1    0    0  501  503 -0.00000000000E+00 -0.00000000000E+00 -0.93400149831E+02  0.93400149831E+02  0.00000000000E+00 0. -1.
          6    2    1    2  501    0 -0.12097987792E+03 -0.66021457258E+02  0.97160600519E+02  0.24179094330E+03  0.17328506655E+03 0.  0.
         24    2    3    3    0    0 -0.11506929829E+03 -0.11474556555E+02  0.11683143771E+03  0.18331589594E+03  0.81132755481E+02 0.  0.
         -6    2    1    2    0  502  0.12097987792E+03  0.66021457258E+02  0.55625808161E+03  0.59842803848E+03  0.17233136747E+03 0.  0.
        -24    2    5    5    0    0  0.53868840125E+02 -0.26404012669E+02  0.19259178188E+03  0.21721730091E+03  0.80577525069E+02 0.  0.
          5    1    3    3  501    0 -0.59105796272E+01 -0.54546900702E+02 -0.19670837189E+02  0.58475047358E+02  0.47000000000E+01 0. -1.
        -15    1    4    4    0    0 -0.76268045885E+02 -0.23580000948E+02  0.11820391327E+03  0.14264695618E+03  0.17770000000E+01 0.  1.
         16    1    4    4    0    0 -0.38801252403E+02  0.12105444392E+02 -0.13724755594E+01  0.40668939760E+02  0.00000000000E+00 0. -1.
         -5    1    5    5    0  502  0.67111037791E+02  0.92425469927E+02  0.36366629973E+03  0.38121073758E+03  0.47000000000E+01 0.  1.
         15    1    6    6    0    0  0.16674103880E+01  0.16501792119E+02  0.43841205072E+01  0.17247250278E+02  0.17770000000E+01 0. -1.
        -16    1    6    6    0    0  0.52201429737E+02 -0.42905804788E+02  0.18820766137E+03  0.19997005063E+03  0.00000000000E+00 0.  1.
<mgrwt>
<rscale>  2 0.22122402E+03</rscale>
<asrwt>0</asrwt>
<pdfrwt beam="1">  1       21 0.11489520E+00 0.22141065E+03</pdfrwt>
<pdfrwt beam="2">  1       21 0.14369254E-01 0.22141065E+03</pdfrwt>
<totfact> 0.24502343E+04</totfact>
</mgrwt>
</event>
<event>
12    2  0.4090627E-002  0.1809133E+03  0.7546771E-02  0.1167285E+00
         21   -1    0    0  503  502  0.00000000000E+00  0.00000000000E+00  0.12959831807E+04  0.12959831807E+04  0.00000000000E+00 0. -1.
         21   -1    0    0  501  503 -0.00000000000E+00 -0.00000000000E+00 -0.29117966409E+02  0.29117966409E+02  0.00000000000E+00 0.  1.
          6    2    1    2  501    0 -0.20820232816E+02 -0.45519965137E+02  0.38336670666E+03  0.42327010004E+03  0.17228463799E+03 0.  0.
         24    2    3    3    0    0 -0.23612756434E+02 -0.42454207941E+02  0.90875539539E+02  0.13071178123E+03  0.80419425693E+02 0.  0.
         -6    2    1    2    0  502  0.20820232816E+02  0.45519965137E+02  0.88349850759E+03  0.90183104703E+03  0.17385072665E+03 0.  0.
        -24    2    5    5    0    0  0.55265901167E+02 -0.28772466470E+01  0.73844183849E+03  0.74501165593E+03  0.81752188064E+02 0.  0.
          5    1    3    3  501    0  0.27925236184E+01 -0.30657571957E+01  0.29249116712E+03  0.29255831880E+03  0.47000000000E+01 0. -1.
        -15    1    4    4    0    0 -0.36324632536E+02  0.31643163341E+01  0.70022960938E+02  0.78967490870E+02  0.17770000000E+01 0.  1.
         16    1    4    4    0    0  0.12711876101E+02 -0.45618524275E+02  0.20852578601E+02  0.51744290365E+02  0.00000000000E+00 0. -1.
         -5    1    5    5    0  502 -0.34445668351E+02  0.48397211784E+02  0.14505666910E+03  0.15681939111E+03  0.47000000000E+01 0.  1.
         15    1    6    6    0    0  0.11322163327E+02 -0.96507276379E+00  0.59188117024E+03  0.59199290550E+03  0.17770000000E+01 0. -1.
        -16    1    6    6    0    0  0.43943737839E+02 -0.19121738832E+01  0.14656066825E+03  0.15301875042E+03  0.00000000000E+00 0.  1.
<mgrwt>
<rscale>  2 0.18053602E+03</rscale>
<asrwt>0</asrwt>
<pdfrwt beam="1">  1       21 0.19938198E+00 0.18091331E+03</pdfrwt>
<pdfrwt beam="2">  1       21 0.44796882E-02 0.18091331E+03</pdfrwt>
<totfact> 0.44238079E+04</totfact>
</mgrwt>
</event>
<event>
12    2  0.4090627E-002  0.1934770E+03  0.7546771E-02  0.1155692E+00
         21   -1    0    0  503  502  0.00000000000E+00  0.00000000000E+00  0.62608155206E+02  0.62608155206E+02  0.00000000000E+00 0.  1.
         21   -1    0    0  501  503 -0.00000000000E+00 -0.00000000000E+00 -0.13198722093E+04  0.13198722093E+04  0.00000000000E+00 0.  1.
          6    2    1    2  501    0 -0.82279812467E+02  0.25026400593E+02 -0.11425891775E+04  0.11588543443E+04  0.17331207239E+03 0.  0.
         24    2    3    3    0    0 -0.31061028528E+02 -0.28604385001E+02 -0.91470707277E+03  0.91916294132E+03  0.79928001329E+02 0.  0.
         -6    2    1    2    0  502  0.82279812467E+02 -0.25026400593E+02 -0.11467487658E+03  0.22362602022E+03  0.17164492808E+03 0.  0.
        -24    2    5    5    0    0 -0.16625178533E+02  0.16501476999E+02 -0.62039252635E+02  0.10404608557E+03  0.80174957133E+02 0.  0.
          5    1    3    3  501    0 -0.51218783939E+02  0.53630785594E+02 -0.22788210476E+03  0.23969140297E+03  0.47000000000E+01 0. -1.
        -15    1    4    4    0    0 -0.20489577674E+02 -0.48940938831E+02 -0.35116567217E+03  0.35515563536E+03  0.17770000000E+01 0.  1.
         16    1    4    4    0    0 -0.10571450854E+02  0.20336553829E+02 -0.56354140060E+03  0.56400730596E+03  0.00000000000E+00 0. -1.
         -5    1    5    5    0  502  0.98904991000E+02 -0.41527877592E+02 -0.52635623947E+02  0.11957993465E+03  0.47000000000E+01 0.  1.
         15    1    6    6    0    0 -0.40328967661E+02  0.94187748726E+01 -0.67026628481E+02  0.78809045212E+02  0.17770000000E+01 0. -1.
        -16    1    6    6    0    0  0.23703789127E+02  0.70827021259E+01  0.49873758459E+01  0.25237040362E+02  0.00000000000E+00 0.  1.
<mgrwt>
<rscale>  2 0.19310296E+03</rscale>
<asrwt>0</asrwt>
<pdfrwt beam="1">  1       21 0.96320251E-02 0.19347703E+03</pdfrwt>
<pdfrwt beam="2">  1       21 0.20305724E+00 0.19347703E+03</pdfrwt>
<totfact> 0.11120745E+04</totfact>
</mgrwt>
</event>
<event>
12    2  0.4090627E-002  0.1895053E+03  0.7546771E-02  0.1159293E+00
         21   -1    0    0  501  502  0.00000000000E+00  0.00000000000E+00  0.78524693599E+03  0.78524693599E+03  0.00000000000E+00 0.  1.
         21   -1    0    0  502  503 -0.00000000000E+00 -0.00000000000E+00 -0.45329824999E+02  0.45329824999E+02  0.00000000000E+00 0.  1.
         -6    2    1    2    0  503 -0.26327494524E+02 -0.74464100778E+02  0.37192735576E+03  0.41665801554E+03  0.17039925081E+03 0.  0.
        -24    2    3    3    0    0  0.37744409190E+02  0.10860352071E+01  0.16325881179E+03  0.18562190768E+03  0.79851318622E+02 0.  0.
          6    2    1    2  501    0  0.26327494524E+02  0.74464100778E+02  0.36798975523E+03  0.41391874545E+03  0.17226209278E+03 0.  0.
         24    2    5    5    0    0  0.44998476120E+01 -0.82381366966E+01  0.90852622547E+02  0.12384429541E+03  0.83636684281E+02 0.  0.
          5    1    5    5  501    0  0.21827646912E+02  0.82702237474E+02  0.27713713268E+03  0.29007445004E+03  0.47000000000E+01 0. -1.
        -15    1    6    6    0    0  0.28318507377E+02 -0.36707935613E+02  0.58008594126E+02  0.74280314475E+02  0.17770000000E+01 0.  1.
         16    1    6    6    0    0 -0.23818659765E+02  0.28469798917E+02  0.32844028422E+02  0.49563980937E+02  0.00000000000E+00 0. -1.
         -5    1    3    3    0  503 -0.64071903714E+02 -0.75550135985E+02  0.20866854397E+03  0.23103610786E+03  0.47000000000E+01 0.  1.
         15    1    4    4    0    0 -0.48144715029E+01  0.30630200629E+02  0.32402521102E+02  0.44882841145E+02  0.17770000000E+01 0. -1.
        -16    1    4    4    0    0  0.42558880693E+02 -0.29544165422E+02  0.13085629069E+03  0.14073906653E+03  0.00000000000E+00 0.  1.
<mgrwt>
<rscale>  2 0.18908097E+03</rscale>
<asrwt>0</asrwt>
<pdfrwt beam="1">  1       21 0.12080721E+00 0.18950532E+03</pdfrwt>
<pdfrwt beam="2">  1       21 0.69738198E-02 0.18950532E+03</pdfrwt>
<totfact> 0.79190897E+04</totfact>
</mgrwt>
</event>
<event>
12    2  0.4090627E-002  0.2161948E+03  0.7546771E-02  0.1136763E+00
         21   -1    0    0  501  502  0.00000000000E+00  0.00000000000E+00  0.12491958868E+03  0.12491958868E+03  0.00000000000E+00 0.  1.
         21   -1    0    0  502  503 -0.00000000000E+00 -0.00000000000E+00 -0.70852869441E+03  0.70852869441E+03  0.00000000000E+00 0.  1.
         -6    2    1    2    0  503 -0.12717699697E+03 -0.25988516289E+02 -0.57810014517E+03  0.61718327906E+03  0.17281791160E+03 0.  0.
        -24    2    3    3    0    0 -0.98274209445E+02 -0.28254806278E+01 -0.19906339622E+03  0.23631211396E+03  0.80940570228E+02 0.  0.
          6    2    1    2  501    0  0.12717699697E+03  0.25988516289E+02 -0.55089605652E+01  0.21626500403E+03  0.17288959421E+03 0.  0.
         24    2    5    5    0    0  0.11846683534E+03  0.68480107982E+02  0.27879768472E+02  0.16132595137E+03  0.80776635436E+02 0.  0.
          5    1    5    5  501    0  0.87101616293E+01 -0.42491591693E+02 -0.33388729037E+02  0.54939052658E+02  0.47000000000E+01 0. -1.
        -15    1    6    6    0    0  0.34327624499E+02  0.29416598859E+02  0.48469159529E+02  0.66303387897E+02  0.17770000000E+01 0.  1.
         16    1    6    6    0    0  0.84139210837E+02  0.39063509124E+02 -0.20589391058E+02  0.95022563475E+02  0.00000000000E+00 0. -1.
         -5    1    3    3    0  503 -0.28902787521E+02 -0.23163035661E+02 -0.37903674895E+03  0.38087116509E+03  0.47000000000E+01 0.  1.
         15    1    4    4    0    0 -0.34050291211E+02  0.22750399945E+02 -0.13839179126E+03  0.14433450262E+03  0.17770000000E+01 0. -1.
        -16    1    4    4    0    0 -0.64223918234E+02 -0.25575880573E+02 -0.60671604963E+02  0.91977611347E+02  0.00000000000E+00 0.  1.
<mgrwt>
<rscale>  2 0.21618050E+03</rscale>
<asrwt>0</asrwt>
<pdfrwt beam="1">  1       21 0.19218398E-01 0.21619483E+03</pdfrwt>
<pdfrwt beam="2">  1       21 0.10900442E+00 0.21619483E+03</pdfrwt>
<totfact> 0.16352675E+04</totfact>
</mgrwt>
</event>
<event>
12    2  0.4090627E-002  0.1969515E+03  0.7546771E-02  0.1152411E+00
         21   -1    0    0  501  502  0.00000000000E+00  0.00000000000E+00  0.23371419865E+02  0.23371419865E+02  0.00000000000E+00 0. -1.
         21   -1    0    0  502  503 -0.00000000000E+00 -0.00000000000E+00 -0.16568531937E+04  0.16568531937E+04  0.00000000000E+00 0. -1.
         -6    2    1    2    0  503  0.86366656465E+02 -0.37509936778E+02 -0.81282463277E+03  0.83634549766E+03  0.17298471933E+03 0.  0.
        -24    2    3    3    0    0  0.52642991889E+02 -0.83863987797E+02 -0.40501399276E+03  0.42449893436E+03  0.79740566217E+02 0.  0.
          6    2    1    2  501    0 -0.86366656465E+02  0.37509936778E+02 -0.82065714103E+03  0.84387911587E+03  0.17259091622E+03 0.  0.
         24    2    5    5    0    0 -0.11926390592E+03  0.33471111214E+02 -0.76477103865E+03  0.77873398886E+03  0.78788890743E+02 0.  0.
          5    1    5    5  501    0  0.32897249453E+02  0.40388255645E+01 -0.55886102381E+02  0.65145127008E+02  0.47000000000E+01 0. -1.
        -15    1    6    6    0    0 -0.20182060732E+02  0.39742631906E+02 -0.17113910909E+03  0.17685741363E+03  0.17770000000E+01 0.  1.
         16    1    6    6    0    0 -0.99081845186E+02 -0.62715206919E+01 -0.59363192956E+03  0.60187657523E+03  0.00000000000E+00 0. -1.
         -5    1    3    3    0  503  0.33723664576E+02  0.46354051018E+02 -0.40781064001E+03  0.41184656330E+03  0.47000000000E+01 0.  1.
         15    1    4    4    0    0  0.40106752622E+02 -0.43635578778E+02 -0.35110367042E+03  0.35607521741E+03  0.17770000000E+01 0. -1.
        -16    1    4    4    0    0  0.12536239267E+02 -0.40228409019E+02 -0.53910322338E+02  0.68423716954E+02  0.00000000000E+00 0.  1.
<mgrwt>
<rscale>  2 0.19686503E+03</rscale>
<asrwt>0</asrwt>
<pdfrwt beam="1">  1       21 0.35956018E-02 0.19695154E+03</pdfrwt>
<pdfrwt beam="2">  1       21 0.25490058E+00 0.19695154E+03</pdfrwt>
<totfact> 0.29039017E+04</totfact>
</mgrwt>
</event>
<event>
12    2  0.4090627E-002  0.2052908E+03  0.7546771E-02  0.1148268E+00
         21   -1    0    0  503  502  0.00000000000E+00  0.00000000000E+00  0.20205201136E+03  0.20205201136E+03  0.00000000000E+00 0. -1.
         21   -1    0    0  501  503 -0.00000000000E+00 -0.00000000000E+00 -0.30050112208E+03  0.30050112208E+03  0.00000000000E+00 0. -1.
          6    2    1    2  501    0  0.34349274207E+02 -0.10647510168E+03 -0.19929639723E+03  0.28611771754E+03  0.17212633274E+03 0.  0.
         24    2    3    3    0    0  0.87479729187E+02 -0.90729306227E+02 -0.15758770572E+03  0.21660167429E+03  0.78726680899E+02 0.  0.
         -6    2    1    2    0  502 -0.34349274207E+02  0.10647510168E+03  0.10084728652E+03  0.21643541591E+03  0.15542616943E+03 0.  0.
        -24    2    5    5    0    0 -0.47340414956E+02  0.31516732593E+02  0.99336640125E+02  0.14019960486E+03  0.80955183957E+02 0.  0.
          5    1    3    3  501    0 -0.53130454980E+02 -0.15745795449E+02 -0.41708691518E+02  0.69516043248E+02  0.47000000000E+01 0. -1.
        -15    1    4    4    0    0  0.19254511064E+02  0.68965307719E+01 -0.19517070233E+01  0.20621959710E+02  0.17770000000E+01 0.  1.
         16    1    4    4    0    0  0.68225218124E+02 -0.97625836999E+02 -0.15563599869E+03  0.19597971458E+03  0.00000000000E+00 0. -1.
         -5    1    5    5    0  502  0.12991140749E+02  0.74958369083E+02  0.15106463909E+01  0.76235811047E+02  0.47000000000E+01 0.  1.
         15    1    6    6    0    0 -0.57612204756E+01  0.49575418123E+02  0.70774010054E+02  0.86620043706E+02  0.17770000000E+01 0. -1.
        -16    1    6    6    0    0 -0.41579194481E+02 -0.18058685530E+02  0.28562630071E+02  0.53579561153E+02  0.00000000000E+00 0.  1.
<mgrwt>
<rscale>  2 0.20175393E+03</rscale>
<asrwt>0</asrwt>
<pdfrwt beam="1">  1       21 0.31084925E-01 0.20529076E+03</pdfrwt>
<pdfrwt beam="2">  1       21 0.46230942E-01 0.20529076E+03</pdfrwt>
<totfact> 0.44285047E+04</totfact>
</mgrwt>
</event>
<event>
12    2  0.4090627E-002  0.2440031E+03  0.7546771E-02  0.1117329E+00
         21   -1    0    0  503  502  0.00000000000E+00  0.00000000000E+00  0.37971988789E+03  0.37971988789E+03  0.00000000000E+00 0. -1.
         21   -1    0    0  501  503 -0.00000000000E+00 -0.00000000000E+00 -0.24707283092E+03  0.24707283092E+03  0.00000000000E+00 0.  1.
          6    2    1    2  501    0  0.82741732329E+02  0.14902031671E+03 -0.12374426662E+03  0.27358755879E+03  0.17459742192E+03 0.  0.
         24    2    3    3    0    0  0.17623978465E+02  0.77240752710E+02 -0.13424676646E+03  0.17599134893E+03  0.81694688299E+02 0.  0.
         -6    2    1    2    0  502 -0.82741732329E+02 -0.14902031671E+03  0.25639132359E+03  0.35320516002E+03  0.17310148812E+03 0.  0.
        -24    2    5    5    0    0  0.24655596001E+02 -0.61534518044E+02  0.11158641968E+03  0.15275940352E+03  0.80557501092E+02 0.  0.
          5    1    3    3  501    0  0.65117753864E+02  0.71779564003E+02  0.10502499839E+02  0.97596209862E+02  0.47000000000E+01 0. -1.
        -15    1    4    4    0    0 -0.21577939952E+02  0.65607470274E+02 -0.61286745276E+02  0.92353508454E+02  0.17770000000E+01 0.  1.
         16    1    4    4    0    0  0.39201918418E+02  0.11633282436E+02 -0.72960021186E+02  0.83637840475E+02  0.00000000000E+00 0. -1.
         -5    1    5    5    0  502 -0.10739732833E+03 -0.87485798668E+02  0.14480490391E+03  0.20044575649E+03  0.47000000000E+01 0.  1.
         15    1    6    6    0    0 -0.29389721144E+02 -0.19791249136E+02  0.45842021497E+02  0.57966351578E+02  0.17770000000E+01 0. -1.
        -16    1    6    6    0    0  0.54045317145E+02 -0.41743268908E+02  0.65744398185E+02  0.94793051946E+02  0.00000000000E+00 0.  1.
<mgrwt>
<rscale>  2 0.24373561E+03</rscale>
<asrwt>0</asrwt>
<pdfrwt beam="1">  1       21 0.58418444E-01 0.24400309E+03</pdfrwt>
<pdfrwt beam="2">  1       21 0.38011205E-01 0.24400309E+03</pdfrwt>
<totfact> 0.17789303E+04</totfact>
</mgrwt>
</event>
<event>
12    2  0.4090627E-002  0.3130453E+03  0.7546771E-02  0.1078971E+00
         21   -1    0    0  503  502  0.00000000000E+00  0.00000000000E+00  0.15301145085E+04  0.15301145085E+04  0.00000000000E+00 0.  1.
         21   -1    0    0  501  503 -0.00000000000E+00 -0.00000000000E+00 -0.18698664234E+03  0.18698664234E+03  0.00000000000E+00 0. -1.
          6    2    1    2  501    0 -0.24361844945E+03  0.90971410663E+02 -0.24730133434E+02  0.31402061221E+03  0.17427455042E+03 0.  0.
         24    2    3    3    0    0 -0.55825969410E+02  0.71153901682E+02  0.25541624401E+01  0.12316655272E+03  0.83570684923E+02 0.  0.
         -6    2    1    2    0  502  0.24361844945E+03 -0.90971410663E+02  0.13678579996E+04  0.14030805387E+04  0.17312927065E+03 0.  0.
        -24    2    5    5    0    0  0.11110814635E+03 -0.42005451464E+02  0.38028597260E+03  0.40544471124E+03  0.75223100034E+02 0.  0.
          5    1    3    3  501    0 -0.18779248004E+03  0.19817508981E+02 -0.27284295874E+02  0.19085405949E+03  0.47000000000E+01 0. -1.
        -15    1    4    4    0    0 -0.63526948747E+01  0.60090165245E+02  0.27795237639E+02  0.66535085900E+02  0.17770000000E+01 0.  1.
         16    1    4    4    0    0 -0.49473274536E+02  0.11063736437E+02 -0.25241075199E+02  0.56631466822E+02  0.00000000000E+00 0. -1.
         -5    1    5    5    0  502  0.13251030311E+03 -0.48965959199E+02  0.98757202704E+03  0.99763582743E+03  0.47000000000E+01 0.  1.
         15    1    6    6    0    0 -0.66379283234E+01  0.27059628272E+01  0.72652511128E+02  0.73026908941E+02  0.17770000000E+01 0. -1.
        -16    1    6    6    0    0  0.11774607467E+03 -0.44711414292E+02  0.30763346147E+03  0.33241780230E+03  0.00000000000E+00 0.  1.
<mgrwt>
<rscale>  2 0.31288615E+03</rscale>
<asrwt>0</asrwt>
<pdfrwt beam="1">  1       21 0.23540222E+00 0.31304531E+03</pdfrwt>
<pdfrwt beam="2">  1       21 0.28767177E-01 0.31304531E+03</pdfrwt>
<totfact> 0.83706821E+02</totfact>
</mgrwt>
</event>
<event>
12    2  0.4090627E-002  0.3313160E+03  0.7546771E-02  0.1070575E+00
         21   -1    0    0  503  502  0.00000000000E+00  0.00000000000E+00  0.17970592357E+03  0.17970592357E+03  0.00000000000E+00 0.  1.
         21   -1    0    0  501  503 -0.00000000000E+00 -0.00000000000E+00 -0.83483939618E+03  0.83483939618E+03  0.00000000000E+00 0. -1.
          6    2    1    2  501    0  0.21185835411E+03 -0.18610105447E+03 -0.59045393358E+03  0.67697498215E+03  0.17361369212E+03 0.  0.
         24    2    3    3    0    0  0.50121238218E+02 -0.36356028239E+02 -0.11929208256E+03  0.15678458682E+03  0.80727358382E+02 0.  0.
         -6    2    1    2    0  502 -0.21185835411E+03  0.18610105447E+03 -0.64679539027E+02  0.33757033761E+03  0.17393310606E+03 0.  0.
        -24    2    5    5    0    0 -0.20975451061E+03  0.15843905180E+03 -0.87770472239E+01  0.27498606531E+03  0.80252175678E+02 0.  0.
          5    1    3    3  501    0  0.16173711590E+03 -0.14974502623E+03 -0.47116185102E+03  0.52019039533E+03  0.47000000000E+01 0. -1.
        -15    1    4    4    0    0  0.27547076118E+02 -0.13812140601E+02 -0.12096142397E+03  0.12483765637E+03  0.17770000000E+01 0.  1.
         16    1    4    4    0    0  0.22574162100E+02 -0.22543887638E+02  0.16693414038E+01  0.31946930448E+02  0.00000000000E+00 0. -1.
         -5    1    5    5    0  502 -0.21038435037E+01  0.27662002667E+02 -0.55902491803E+02  0.62584272296E+02  0.47000000000E+01 0.  1.
         15    1    6    6    0    0 -0.51445245629E+02  0.35698304616E+02  0.32330752561E+02  0.70494095784E+02  0.17770000000E+01 0. -1.
        -16    1    6    6    0    0 -0.15830926498E+03  0.12274074718E+03 -0.41107799784E+02  0.20449196953E+03  0.00000000000E+00 0.  1.
<mgrwt>
<rscale>  2 0.33127410E+03</rscale>
<asrwt>0</asrwt>
<pdfrwt beam="1">  1       21 0.27647065E-01 0.33131600E+03</pdfrwt>
<pdfrwt beam="2">  1       21 0.12843683E+00 0.33131600E+03</pdfrwt>
<totfact> 0.51032663E+03</totfact>
</mgrwt>
</event>
<event>
12    2  0.4090627E-002  0.2441181E+03  0.7546771E-02  0.1117383E+00
         21   -1    0    0  503  502  0.00000000000E+00  0.00000000000E+00  0.12115738756E+03  0.12115738756E+03  0.00000000000E+00 0. -1.
         21   -1    0    0  501  503 -0.00000000000E+00 -0.00000000000E+00 -0.53270338658E+03  0.53270338658E+03  0.00000000000E+00 0. -1.
          6    2    1    2  501    0 -0.16609665605E+03 -0.37547419600E+02 -0.29961348394E+03  0.38530433920E+03  0.17231739954E+03 0.  0.
         24    2    3    3    0    0 -0.11685049779E+02  0.65007811811E+00 -0.78270427647E+02  0.11269320306E+03  0.80228019928E+02 0.  0.
         -6    2    1    2    0  502  0.16609665605E+03  0.37547419600E+02 -0.11193251508E+03  0.26855643493E+03  0.17491644561E+03 0.  0.
        -24    2    5    5    0    0  0.19346344533E+03  0.46919125759E+02 -0.92103416813E+02  0.23317207158E+03  0.79099093143E+02 0.  0.
          5    1    3    3  501    0 -0.15441160627E+03 -0.38197497718E+02 -0.22134305629E+03  0.27261113614E+03  0.47000000000E+01 0. -1.
        -15    1    4    4    0    0 -0.85835134697E+01 -0.38702840247E+02 -0.27046269431E+02  0.48023379367E+02  0.17770000000E+01 0.  1.
         16    1    4    4    0    0 -0.31015363088E+01  0.39352918365E+02 -0.51224158216E+02  0.64669823691E+02  0.00000000000E+00 0. -1.
         -5    1    5    5    0  502 -0.27366789282E+02 -0.93717061587E+01 -0.19829098266E+02  0.35384363354E+02  0.47000000000E+01 0.  1.
         15    1    6    6    0    0  0.18183845252E+03  0.18510933257E+02 -0.85405192159E+02  0.20175500500E+03  0.17770000000E+01 0. -1.
        -16    1    6    6    0    0  0.11624992805E+02  0.28408192502E+02 -0.66982246542E+01  0.31417066579E+02  0.00000000000E+00 0.  1.
<mgrwt>
<rscale>  2 0.24365295E+03</rscale>
<asrwt>0</asrwt>
<pdfrwt beam="1">  1       21 0.18639598E-01 0.24411815E+03</pdfrwt>
<pdfrwt beam="2">  1       21 0.81954369E-01 0.24411815E+03</pdfrwt>
<totfact> 0.33390870E+04</totfact>
</mgrwt>
</event>
<event>
12    2  0.4090627E-002  0.2110247E+03  0.7546771E-02  0.1140880E+00
         21   -1    0    0  503  502  0.00000000000E+00  0.00000000000E+00  0.13372688855E+03  0.13372688855E+03  0.00000000000E+00 0.  1.
         21   -1    0    0  501  503 -0.00000000000E+00 -0.00000000000E+00 -0.96323177159E+03  0.96323177159E+03  0.00000000000E+00 0.  1.
          6    2    1    2  501    0  0.15273015057E+02 -0.11878173366E+03 -0.85896216459E+03  0.88450406408E+03  0.17375003292E+03 0.  0.
         24    2    3    3    0    0 -0.47092529253E+02 -0.11479913819E+03 -0.58536128862E+03  0.60381767055E+03  0.80940673399E+02 0.  0.
         -6    2    1    2    0  502 -0.15273015057E+02  0.11878173366E+03  0.29457281551E+02  0.21245459606E+03  0.17299381119E+03 0.  0.
        -24    2    5    5    0    0  0.17750200287E+02  0.11825924225E+03 -0.27802424127E+02  0.14618567692E+03  0.79353382805E+02 0.  0.
          5    1    3    3  501    0  0.62365544311E+02 -0.39825954696E+01 -0.27360087597E+03  0.28068639353E+03  0.47000000000E+01 0. -1.
        -15    1    4    4    0    0  0.10505956682E+02 -0.70286596131E+02 -0.36132507331E+03  0.36825201568E+03  0.17770000000E+01 0.  1.
         16    1    4    4    0    0 -0.57598485935E+02 -0.44512542058E+02 -0.22403621531E+03  0.23556565487E+03  0.00000000000E+00 0. -1.
         -5    1    5    5    0  502 -0.33023215344E+02  0.52249140725E+00  0.57259705678E+02  0.66268919135E+02  0.47000000000E+01 0.  1.
         15    1    6    6    0    0  0.21392664303E+02  0.52831789919E+01  0.13428603927E+02  0.25865869378E+02  0.17770000000E+01 0. -1.
        -16    1    6    6    0    0 -0.36424640162E+01  0.11297606326E+03 -0.41231028054E+02  0.12031980755E+03  0.00000000000E+00 0.  1.
<mgrwt>
<rscale>  2 0.21086901E+03</rscale>
<asrwt>0</asrwt>
<pdfrwt beam="1">  1       21 0.20573367E-01 0.21102474E+03</pdfrwt>
<pdfrwt beam="2">  1       21 0.14818951E+00 0.21102474E+03</pdfrwt>
<totfact> 0.66591947E+03</totfact>
</mgrwt>
</event>
<event>
12    2  0.4090627E-002  0.2078238E+03  0.7546771E-02  0.1143506E+00
         21   -1    0    0  501  502  0.00000000000E+00  0.00000000000E+00  0.22307515086E+03  0.22307515086E+03  0.00000000000E+00 0.  1.
         21   -1    0    0  502  503 -0.00000000000E+00 -0.00000000000E+00 -0.22158888109E+03  0.22158888109E+03  0.00000000000E+00 0.  1.
         -6    2    1    2    0  503  0.55501871639E+00  0.11511948700E+03 -0.79580297505E+02  0.22158891501E+03  0.17180168558E+03 0.  0.
        -24    2    3    3    0    0 -0.36009743782E+02  0.40990487419E+02 -0.96152811164E+02  0.13715652404E+03  0.81176519295E+02 0.  0.
          6    2    1    2  501    0 -0.55501871639E+00 -0.11511948700E+03  0.81066567274E+02  0.22307511695E+03  0.17302576437E+03 0.  0.
         24    2    5    5    0    0  0.36421870522E+02 -0.13827942221E+03  0.68214933271E+02  0.17734845696E+03  0.79695964798E+02 0.  0.
          5    1    5    5  501    0 -0.36976889239E+02  0.23159935212E+02  0.12851634004E+02  0.45726659985E+02  0.47000000000E+01 0. -1.
        -15    1    6    6    0    0 -0.75877279962E+01 -0.78231778485E+02  0.34871166984E+01  0.78696267338E+02  0.17770000000E+01 0.  1.
         16    1    6    6    0    0  0.44009598519E+02 -0.60047643730E+02  0.64727816572E+02  0.98652189623E+02  0.00000000000E+00 0. -1.
         -5    1    3    3    0  503  0.36564762498E+02  0.74128999584E+02  0.16572513659E+02  0.84432390970E+02  0.47000000000E+01 0.  1.
         15    1    4    4    0    0 -0.55201122980E+02  0.15306678011E+02 -0.32500928109E+02  0.65885707304E+02  0.17770000000E+01 0. -1.
        -16    1    4    4    0    0  0.19191379198E+02  0.25683809408E+02 -0.63651883056E+02  0.71270816733E+02  0.00000000000E+00 0.  1.
<mgrwt>
<rscale>  2 0.20756880E+03</rscale>
<asrwt>0</asrwt>
<pdfrwt beam="1">  1       21 0.34319254E-01 0.20782377E+03</pdfrwt>
<pdfrwt beam="2">  1       21 0.34090597E-01 0.20782377E+03</pdfrwt>
<totfact> 0.67374824E+04</totfact>
</mgrwt>
</event>
<event>
11    2  0.4090627E-002  0.2953695E+03  0.7546771E-02  0.1087645E+00
         21   -1    0    0  503  502  0.00000000000E+00  0.00000000000E+00  0.10189436729E+04  0.10189436729E+04  0.00000000000E+00 0. -1.
         21   -1    0    0  501  503 -0.00000000000E+00 -0.00000000000E+00 -0.85495191064E+02  0.85495191064E+02  0.00000000000E+00 0.  1.
          6    2    1    2  501    0  0.22352301830E+03  0.85219808871E+02  0.45787622430E+03  0.54487959389E+03  0.17325755260E+03 0.  0.
         24    2    3    3    0    0  0.14246405966E+03  0.24064301258E+01  0.34991217230E+03  0.38642790726E+03  0.81155406359E+02 0.  0.
         -6    2    1    2    0  502 -0.22352301830E+03 -0.85219808871E+02  0.47557225755E+03  0.55955927008E+03  0.17237357410E+03 0.  0.
          5    1    3    3  501    0  0.81058958640E+02  0.82813378745E+02  0.10796405199E+03  0.15845168664E+03  0.47000000000E+01 0. -1.
        -15    1    4    4    0    0  0.36823939322E+01  0.11601468785E+02  0.29837112782E+01  0.12657581326E+02  0.17770000000E+01 0.  1.
         16    1    4    4    0    0  0.13878166573E+03 -0.91950386592E+01  0.34692846103E+03  0.37377032593E+03  0.00000000000E+00 0. -1.
         -5    1    5    5    0  502 -0.54577376289E+02 -0.98386080501E+02  0.11916627117E+03  0.16395487496E+03  0.47000000000E+01 0.  1.
         15    1    5    5    0    0 -0.65460550219E+02  0.61080117601E+01  0.10855541441E+03  0.12692449397E+03  0.17770000000E+01 0. -1.
        -16    1    5    5    0    0 -0.10348509179E+03  0.70582598699E+01  0.24785057197E+03  0.26867990115E+03  0.00000000000E+00 0.  1.
<mgrwt>
<rscale>  2 0.29523999E+03</rscale>
<asrwt>0</asrwt>
<pdfrwt beam="1">  1       21 0.15676056E+00 0.29536949E+03</pdfrwt>
<pdfrwt beam="2">  1       21 0.13153107E-01 0.29536949E+03</pdfrwt>
<totfact> 0.12431216E+04</totfact>
</mgrwt>
</event>
<event>
12    2  0.4090627E-002  0.2452681E+03  0.7546771E-02  0.1116351E+00
         21   -1    0    0  501  502  0.00000000000E+00  0.00000000000E+00  0.34653994459E+03  0.34653994459E+03  0.00000000000E+00 0. -1.
         21   -1    0    0  502  503 -0.00000000000E+00 -0.00000000000E+00 -0.19769633737E+03  0.19769633737E+03  0.00000000000E+00 0.  1.
         -6    2    1    2    0  503 -0.23854882189E+02  0.17281605278E+03 -0.20777278726E+02  0.24602882775E+03  0.17223253255E+03 0.  0.
        -24    2    3    3    0    0 -0.80009986228E+02  0.11029784857E+03 -0.32117766010E+02  0.16110169299E+03  0.79718199261E+02 0.  0.
          6    2    1    2  501    0  0.23854882189E+02 -0.17281605278E+03  0.16962088594E+03  0.29820745421E+03  0.17240068822E+03 0.  0.
         24    2    5    5    0    0  0.69563627454E+02 -0.16689238418E+03  0.14861784271E+03  0.24733902522E+03  0.79982273420E+02 0.  0.
          5    1    5    5  501    0 -0.45708745265E+02 -0.59236685972E+01  0.21003043223E+02  0.50868428990E+02  0.47000000000E+01 0. -1.
        -15    1    6    6    0    0 -0.42439689642E+00 -0.69132445909E+02  0.21621043050E+02  0.72457590504E+02  0.17770000000E+01 0.  1.
         16    1    6    6    0    0  0.69988024350E+02 -0.97759938275E+02  0.12699679966E+03  0.17488143472E+03  0.00000000000E+00 0. -1.
         -5    1    3    3    0  503  0.56155104039E+02  0.62518204207E+02  0.11340487284E+02  0.84927134761E+02  0.47000000000E+01 0.  1.
         15    1    4    4    0    0  0.12738045443E+01  0.17793970978E+02  0.20461132142E+02  0.27204110695E+02  0.17770000000E+01 0. -1.
        -16    1    4    4    0    0 -0.81283790772E+02  0.92503877596E+02 -0.52578898152E+02  0.13389758229E+03  0.00000000000E+00 0.  1.
<mgrwt>
<rscale>  2 0.24523855E+03</rscale>
<asrwt>0</asrwt>
<pdfrwt beam="1">  1       21 0.53313838E-01 0.24526810E+03</pdfrwt>
<pdfrwt beam="2">  1       21 0.30414821E-01 0.24526810E+03</pdfrwt>
<totfact> 0.33672610E+04</totfact>
</mgrwt>
</event>
<event>
12    2  0.4090627E-002  0.1916677E+03  0.7546771E-02  0.1157054E+00
         21   -1    0    0  503  502  0.00000000000E+00  0.00000000000E+00  0.21329961885E+03  0.21329961885E+03  0.00000000000E+00 0.  1.
         21   -1    0    0  501  503 -0.00000000000E+00 -0.00000000000E+00 -0.18454359962E+03  0.18454359962E+03  0.00000000000E+00 0.  1.
          6    2    1    2  501    0 -0.79850282399E+02 -0.69368879737E+01  0.66486204077E+02  0.20249722296E+03  0.17366784952E+03 0.  0.
         24    2    3    3    0    0 -0.36815269628E+02 -0.29982899404E+02  0.10385758964E+03  0.14083814880E+03  0.82429648167E+02 0.  0.
         -6    2    1    2    0  502  0.79850282399E+02  0.69368879737E+01 -0.37730184854E+02  0.19534599551E+03  0.17410428800E+03 0.  0.
        -24    2    5    5    0    0  0.25952307272E+02  0.63181990014E+02  0.61832279009E+01  0.10579723200E+03  0.80556414252E+02 0.  0.
          5    1    3    3  501    0 -0.43035012772E+02  0.23046011430E+02 -0.37371385563E+02  0.61659074158E+02  0.47000000000E+01 0. -1.
        -15    1    4    4    0    0 -0.46359731428E+02  0.14718338872E+02  0.62324594775E+02  0.79078233668E+02  0.17770000000E+01 0.  1.
         16    1    4    4    0    0  0.95444618003E+01 -0.44701238276E+02  0.41532994865E+02  0.61759915130E+02  0.00000000000E+00 0. -1.
         -5    1    5    5    0  502  0.53897975128E+02 -0.56245102040E+02 -0.43913412755E+02  0.89548763510E+02  0.47000000000E+01 0.  1.
         15    1    6    6    0    0  0.46878696187E+02  0.47056479950E+02  0.27439539264E+02  0.71888876090E+02  0.17770000000E+01 0. -1.
        -16    1    6    6    0    0 -0.20926388915E+02  0.16125510064E+02 -0.21256311363E+02  0.33908355912E+02  0.00000000000E+00 0.  1.
<mgrwt>
<rscale>  2 0.19156849E+03</rscale>
<asrwt>0</asrwt>
<pdfrwt beam="1">  1       21 0.32815326E-01 0.19166766E+03</pdfrwt>
<pdfrwt beam="2">  1       21 0.28391323E-01 0.19166766E+03</pdfrwt>
<totfact> 0.10606412E+05</totfact>
</mgrwt>
</event>
<event>
12    2  0.4090627E-002  0.2607517E+03  0.7546771E-02  0.1106918E+00
         21   -1    0    0  501  502  0.00000000000E+00  0.00000000000E+00  0.99646786734E+02  0.99646786734E+02  0.00000000000E+00 0.  1.
         21   -1    0    0  502  503 -0.00000000000E+00 -0.00000000000E+00 -0.67844639156E+03  0.67844639156E+03  0.00000000000E+00 0. -1.
         -6    2    1    2    0  503 -0.13470735309E+03 -0.13935838427E+03 -0.28724710725E+03  0.38794634121E+03  0.17442658281E+03 0.  0.
        -24    2    3    3    0    0 -0.11237530196E+03 -0.11268611532E+03 -0.30144291370E+03  0.35008156392E+03  0.79767801141E+02 0.  0.
          6    2    1    2  501    0  0.13470735309E+03  0.13935838427E+03 -0.29155249758E+03  0.39014683709E+03  0.17217684340E+03 0.  0.
         24    2    5    5    0    0  0.27158058134E+01  0.81623114310E+02 -0.14284792764E+03  0.18304717733E+03  0.80193704913E+02 0.  0.
          5    1    5    5  501    0  0.13199154728E+03  0.57735269958E+02 -0.14870456994E+03  0.20709965976E+03  0.47000000000E+01 0. -1.
        -15    1    6    6    0    0 -0.28023781099E+02  0.26843037233E+02 -0.99258189370E+02  0.10658905592E+03  0.17770000000E+01 0.  1.
         16    1    6    6    0    0  0.30739586913E+02  0.54780077077E+02 -0.43589738265E+02  0.76458121414E+02  0.00000000000E+00 0. -1.
         -5    1    3    3    0  503 -0.22332051125E+02 -0.26672268949E+02  0.14195806452E+02  0.37864777289E+02  0.47000000000E+01 0.  1.
         15    1    4    4    0    0 -0.61119506044E+02 -0.10651163597E+03 -0.24177054342E+03  0.27117609779E+03  0.17770000000E+01 0. -1.
        -16    1    4    4    0    0 -0.51255795919E+02 -0.61744793473E+01 -0.59672370276E+02  0.78905466128E+02  0.00000000000E+00 0.  1.
<mgrwt>
<rscale>  2 0.26037603E+03</rscale>
<asrwt>0</asrwt>
<pdfrwt beam="1">  1       21 0.15330275E-01 0.26075173E+03</pdfrwt>
<pdfrwt beam="2">  1       21 0.10437637E+00 0.26075173E+03</pdfrwt>
<totfact> 0.26963349E+04</totfact>
</mgrwt>
</event>
<event>
12    2  0.4090627E-002  0.2147075E+03  0.7546771E-02  0.1138016E+00
         21   -1    0    0  503  502  0.00000000000E+00  0.00000000000E+00  0.71259766562E+03  0.71259766562E+03  0.00000000000E+00 0. -1.
         21   -1    0    0  501  503 -0.00000000000E+00 -0.00000000000E+00 -0.73372929811E+02  0.73372929811E+02  0.00000000000E+00 0.  1.
          6    2    1    2  501    0  0.39729917571E-02 -0.12706408627E+03  0.45671729577E+03  0.50466822286E+03  0.17307236889E+03 0.  0.
         24    2    3    3    0    0  0.18843673903E+02 -0.10278324620E+03  0.16564016897E+03  0.21193544835E+03  0.80996845277E+02 0.  0.
         -6    2    1    2    0  502 -0.39729917571E-02  0.12706408627E+03  0.18250744004E+03  0.28130237258E+03  0.17226948979E+03 0.  0.
        -24    2    5    5    0    0  0.12180699073E+02  0.42153830943E+02  0.13345123042E+02  0.91575734527E+02  0.79263534819E+02 0.  0.
          5    1    3    3  501    0 -0.18839700911E+02 -0.24280840067E+02  0.29107712680E+03  0.29273277451E+03  0.47000000000E+01 0. -1.
        -15    1    4    4    0    0 -0.27855074564E+02 -0.42714705784E+02  0.39105928271E+02  0.64287499751E+02  0.17770000000E+01 0.  1.
         16    1    4    4    0    0  0.46698748467E+02 -0.60068540417E+02  0.12653424070E+03  0.14764794860E+03  0.00000000000E+00 0. -1.
         -5    1    5    5    0  502 -0.12184672064E+02  0.84910255325E+02  0.16916231700E+03  0.18972663805E+03  0.47000000000E+01 0.  1.
         15    1    6    6    0    0  0.42310446260E+02  0.14268462928E+02  0.21705612255E+02  0.49679515189E+02  0.17770000000E+01 0. -1.
        -16    1    6    6    0    0 -0.30129747187E+02  0.27885368015E+02 -0.83604892136E+01  0.41896219338E+02  0.00000000000E+00 0.  1.
<mgrwt>
<rscale>  2 0.21454569E+03</rscale>
<asrwt>0</asrwt>
<pdfrwt beam="1">  1       21 0.10963041E+00 0.21470754E+03</pdfrwt>
<pdfrwt beam="2">  1       21 0.11288144E-01 0.21470754E+03</pdfrwt>
<totfact> 0.42594978E+04</totfact>
</mgrwt>
</event>
<event>
12    2  0.4090627E-002  0.1779982E+03  0.7546771E-02  0.1170355E+00
         21   -1    0    0  503  502  0.00000000000E+00  0.00000000000E+00  0.14260513503E+03  0.14260513503E+03  0.00000000000E+00 0.  1.
         21   -1    0    0  501  503 -0.00000000000E+00 -0.00000000000E+00 -0.38547155570E+03  0.38547155570E+03  0.00000000000E+00 0.  1.
          6    2    1    2  501    0 -0.38437652105E+02  0.14459846866E+02  0.51526209071E+02  0.18530594749E+03  0.17319585354E+03 0.  0.
         24    2    3    3    0    0 -0.22421653804E+02 -0.39202448296E+02 -0.14689759828E+02  0.98456660442E+02  0.86245941527E+02 0.  0.
         -6    2    1    2    0  502  0.38437652105E+02 -0.14459846866E+02 -0.29439262975E+03  0.34277074324E+03  0.17069921412E+03 0.  0.
        -24    2    5    5    0    0  0.74667159764E+01 -0.70103751383E+02 -0.14480298513E+03  0.18012205812E+03  0.80658313353E+02 0.  0.
          5    1    3    3  501    0 -0.16015998301E+02  0.53662295162E+02  0.66215968899E+02  0.86849287049E+02  0.47000000000E+01 0. -1.
        -15    1    4    4    0    0 -0.18562440343E+02 -0.52177296626E+02  0.21794961607E+02  0.59541687540E+02  0.17770000000E+01 0.  1.
         16    1    4    4    0    0 -0.38592134609E+01  0.12974848330E+02 -0.36484721436E+02  0.38914972902E+02  0.00000000000E+00 0. -1.
         -5    1    5    5    0  502  0.30970936128E+02  0.55643904517E+02 -0.14958964462E+03  0.16264868512E+03  0.47000000000E+01 0.  1.
         15    1    6    6    0    0 -0.74647601178E+01  0.94083542416E+01  0.21896393257E+01  0.12336613090E+02  0.17770000000E+01 0. -1.
        -16    1    6    6    0    0  0.14931476094E+02 -0.79512105625E+02 -0.14699262446E+03  0.16778544503E+03  0.00000000000E+00 0.  1.
<mgrwt>
<rscale>  2 0.17738794E+03</rscale>
<asrwt>0</asrwt>
<pdfrwt beam="1">  1       21 0.21939251E-01 0.17799816E+03</pdfrwt>
<pdfrwt beam="2">  1       21 0.59303317E-01 0.17799816E+03</pdfrwt>
<totfact> 0.51912251E+04</totfact>
</mgrwt>
</event>
<event>
12    2  0.4090627E-002  0.1909001E+03  0.7546771E-02  0.1158061E+00
         21   -1    0    0  503  502  0.00000000000E+00  0.00000000000E+00  0.70676891089E+02  0.70676891089E+02  0.00000000000E+00 0.  1.
         21   -1    0    0  501  503 -0.00000000000E+00 -0.00000000000E+00 -0.51672222808E+03  0.51672222808E+03  0.00000000000E+00 0.  1.
          6    2    1    2  501    0  0.55897604072E+02 -0.59283492079E+02 -0.25570210128E+03  0.31910252727E+03  0.17263772397E+03 0.  0.
         24    2    3    3    0    0  0.56005212723E+02 -0.80837483230E+02 -0.26602260658E+03  0.29474705676E+03  0.80227911048E+02 0.  0.
         -6    2    1    2    0  502 -0.55897604072E+02  0.59283492079E+02 -0.19034323571E+03  0.26829659189E+03  0.17062660774E+03 0.  0.
        -24    2    5    5    0    0 -0.83694060489E+02  0.23551075495E+02 -0.67133027243E+02  0.13694860350E+03  0.81784642427E+02 0.  0.
          5    1    3    3  501    0 -0.10760865109E+00  0.21553991152E+02  0.10320505298E+02  0.24355470511E+02  0.47000000000E+01 0. -1.
        -15    1    4    4    0    0  0.55678557940E+02 -0.59305579135E+02 -0.10777113325E+03  0.13503713720E+03  0.17770000000E+01 0.  1.
         16    1    4    4    0    0  0.32665478380E+00 -0.21531904095E+02 -0.15825147333E+03  0.15970991956E+03  0.00000000000E+00 0. -1.
         -5    1    5    5    0  502  0.27796456417E+02  0.35732416583E+02 -0.12321020846E+03  0.13134798839E+03  0.47000000000E+01 0.  1.
         15    1    6    6    0    0 -0.69337995898E+01  0.20816390700E+02 -0.54929704675E+02  0.59176261146E+02  0.17770000000E+01 0. -1.
        -16    1    6    6    0    0 -0.76760260899E+02  0.27346847950E+01 -0.12203322568E+02  0.77772342359E+02  0.00000000000E+00 0.  1.
<mgrwt>
<rscale>  2 0.19044430E+03</rscale>
<asrwt>0</asrwt>
<pdfrwt beam="1">  1       21 0.10873368E-01 0.19090013E+03</pdfrwt>
<pdfrwt beam="2">  1       21 0.79495724E-01 0.19090013E+03</pdfrwt>
<totfact> 0.97672605E+04</totfact>
</mgrwt>
</event>
<event>
12    2  0.4090627E-002  0.2422951E+03  0.7546771E-02  0.1118899E+00
         21   -1    0    0  503  502  0.00000000000E+00  0.00000000000E+00  0.24910613799E+04  0.24910613799E+04  0.00000000000E+00 0. -1.
         21   -1    0    0  501  503 -0.00000000000E+00 -0.00000000000E+00 -0.31438225444E+02  0.31438225444E+02  0.00000000000E+00 0.  1.
          6    2    1    2  501    0  0.12989103780E+03  0.11179895565E+03  0.18682537256E+04  0.18834184513E+04  0.16589873815E+03 0.  0.
         24    2    3    3    0    0  0.46950698489E+02 -0.26682129043E+01  0.76465616171E+03  0.77079474781E+03  0.84935329281E+02 0.  0.
         -6    2    1    2    0  502 -0.12989103780E+03 -0.11179895565E+03  0.59136942891E+03  0.63908115409E+03  0.17127822944E+03 0.  0.
        -24    2    5    5    0    0 -0.86774908924E+02 -0.67781942718E+00  0.35476342882E+03  0.37410682182E+03  0.81046156269E+02 0.  0.
          5    1    3    3  501    0  0.82940339313E+02  0.11446716855E+03  0.11035975639E+04  0.11126237035E+04  0.47000000000E+01 0. -1.
        -15    1    4    4    0    0 -0.13090920735E+02  0.48574780931E+01  0.45849247542E+03  0.45870848591E+03  0.17770000000E+01 0.  1.
         16    1    4    4    0    0  0.60041619224E+02 -0.75256909974E+01  0.30616368629E+03  0.31208626190E+03  0.00000000000E+00 0. -1.
         -5    1    5    5    0  502 -0.43116128877E+02 -0.11112113622E+03  0.23660600009E+03  0.26497433227E+03  0.47000000000E+01 0.  1.
         15    1    6    6    0    0  0.14862128524E+02  0.50388209452E+01  0.68028480000E+02  0.69837700427E+02  0.17770000000E+01 0. -1.
        -16    1    6    6    0    0 -0.10163703745E+03 -0.57166403724E+01  0.28673494882E+03  0.30426912139E+03  0.00000000000E+00 0.  1.
<mgrwt>
<rscale>  2 0.24134645E+03</rscale>
<asrwt>0</asrwt>
<pdfrwt beam="1">  1       21 0.38324006E+00 0.24229511E+03</pdfrwt>
<pdfrwt beam="2">  1       21 0.48366520E-02 0.24229511E+03</pdfrwt>
<totfact> 0.29559137E+03</totfact>
</mgrwt>
</event>
<event>
12    2  0.4090627E-002  0.1787023E+03  0.7546771E-02  0.1170475E+00
         21   -1    0    0  503  502  0.00000000000E+00  0.00000000000E+00  0.71828642961E+02  0.71828642961E+02  0.00000000000E+00 0.  1.
         21   -1    0    0  501  503 -0.00000000000E+00 -0.00000000000E+00 -0.95556066194E+03  0.95556066194E+03  0.00000000000E+00 0.  1.
          6    2    1    2  501    0  0.28132967375E+02 -0.37541029030E+02 -0.82581180170E+03  0.84492583024E+03  0.17243472407E+03 0.  0.
         24    2    3    3    0    0  0.21500566463E+02  0.45951177656E+02 -0.43452541032E+03  0.44474828540E+03  0.80093196101E+02 0.  0.
         -6    2    1    2    0  502 -0.28132967375E+02  0.37541029030E+02 -0.57920217282E+02  0.18246347466E+03  0.16654541513E+03 0.  0.
        -24    2    5    5    0    0 -0.31353410629E+02  0.79523850221E+02 -0.80710156164E+02  0.13435526493E+03  0.65039440290E+02 0.  0.
          5    1    3    3  501    0  0.66324009120E+01 -0.83492206686E+02 -0.39128639137E+03  0.40017754484E+03  0.47000000000E+01 0. -1.
        -15    1    4    4    0    0 -0.25972128570E+02  0.16031144497E+02 -0.77025977347E+02  0.82871635507E+02  0.17770000000E+01 0.  1.
         16    1    4    4    0    0  0.47472695034E+02  0.29920033159E+02 -0.35749943297E+03  0.36187664989E+03  0.00000000000E+00 0. -1.
         -5    1    5    5    0  502  0.32204432534E+01 -0.41982821191E+02  0.22789938882E+02  0.48108209737E+02  0.47000000000E+01 0.  1.
         15    1    6    6    0    0 -0.44558648024E+02  0.27845320538E+02 -0.51254136027E+02  0.73423287712E+02  0.17770000000E+01 0. -1.
        -16    1    6    6    0    0  0.13205237395E+02  0.51678529683E+02 -0.29456020137E+02  0.60931977214E+02  0.00000000000E+00 0.  1.
<mgrwt>
<rscale>  2 0.17726616E+03</rscale>
<asrwt>0</asrwt>
<pdfrwt beam="1">  1       21 0.11050560E-01 0.17870234E+03</pdfrwt>
<pdfrwt beam="2">  1       21 0.14700933E+00 0.17870234E+03</pdfrwt>
<totfact> 0.21621054E+04</totfact>
</mgrwt>
</event>
<event>
12    2  0.4090627E-002  0.2288211E+03  0.7546771E-02  0.1127576E+00
         21   -1    0    0  503  502  0.00000000000E+00  0.00000000000E+00  0.35114934591E+02  0.35114934591E+02  0.00000000000E+00 0.  1.
         21   -1    0    0  501  503 -0.00000000000E+00 -0.00000000000E+00 -0.15300271201E+04  0.15300271201E+04  0.00000000000E+00 0.  1.
          6    2    1    2  501    0 -0.37163327832E+01 -0.14788576514E+03 -0.61757071912E+03  0.65859904009E+03  0.17457116552E+03 0.  0.
         24    2    3    3    0    0  0.39896350169E+02 -0.16020220638E+03 -0.53398381008E+03  0.56340123443E+03  0.70892706594E+02 0.  0.
         -6    2    1    2    0  502  0.37163327832E+01  0.14788576514E+03 -0.87734146640E+03  0.90654301461E+03  0.17380499997E+03 0.  0.
        -24    2    5    5    0    0  0.12326207471E+02  0.12121559374E+03 -0.85946286363E+03  0.87296977494E+03  0.92491396584E+02 0.  0.
          5    1    3    3  501    0 -0.43612682952E+02  0.12316441232E+02 -0.83586909045E+02  0.95197805660E+02  0.47000000000E+01 0. -1.
        -15    1    4    4    0    0  0.51991729066E+02 -0.69956118396E+02 -0.29687485158E+03  0.30941046139E+03  0.17770000000E+01 0.  1.
         16    1    4    4    0    0 -0.12095378897E+02 -0.90246087980E+02 -0.23710895850E+03  0.25399077303E+03  0.00000000000E+00 0. -1.
         -5    1    5    5    0  502 -0.86098746877E+01  0.26670171407E+02 -0.17878602765E+02  0.33573239669E+02  0.47000000000E+01 0.  1.
         15    1    6    6    0    0 -0.12362768409E+02 -0.10402027667E+02 -0.15840284905E+03  0.15923460848E+03  0.17770000000E+01 0. -1.
        -16    1    6    6    0    0  0.24688975879E+02  0.13161762140E+03 -0.70106001458E+03  0.71373516645E+03  0.00000000000E+00 0.  1.
<mgrwt>
<rscale>  2 0.22867498E+03</rscale>
<asrwt>0</asrwt>
<pdfrwt beam="1">  1       21 0.54022981E-02 0.22882111E+03</pdfrwt>
<pdfrwt beam="2">  1       21 0.23538877E+00 0.22882111E+03</pdfrwt>
<totfact> 0.18598415E+04</totfact>
</mgrwt>
</event>
<event>
12    2  0.4090627E-002  0.2129564E+03  0.7546771E-02  0.1139869E+00
         21   -1    0    0  503  502  0.00000000000E+00  0.00000000000E+00  0.73201008947E+03  0.73201008947E+03  0.00000000000E+00 0. -1.
         21   -1    0    0  501  503 -0.00000000000E+00 -0.00000000000E+00 -0.84269096147E+02  0.84269096147E+02  0.00000000000E+00 0. -1.
          6    2    1    2  501    0 -0.74853332481E+02 -0.97401648962E+02  0.53642398640E+03  0.57598374397E+03  0.17004845642E+03 0.  0.
         24    2    3    3    0    0 -0.52969993575E+01  0.66466028188E+01  0.16061692433E+03  0.17985603719E+03  0.80487031267E+02 0.  0.
         -6    2    1    2    0  502  0.74853332481E+02  0.97401648962E+02  0.11131700692E+03  0.24029544164E+03  0.17395493854E+03 0.  0.
        -24    2    5    5    0    0  0.93011012650E+02  0.23808624733E+02  0.31694132916E+02  0.13026123501E+03  0.82131432472E+02 0.  0.
          5    1    3    3  501    0 -0.69556333124E+02 -0.10404825178E+03  0.37580706207E+03  0.39612770678E+03  0.47000000000E+01 0. -1.
        -15    1    4    4    0    0 -0.19642299670E+02  0.35902845464E+02  0.50530354994E+02  0.65048510771E+02  0.17770000000E+01 0.  1.
         16    1    4    4    0    0  0.14345300312E+02 -0.29256242646E+02  0.11008656934E+03  0.11480752642E+03  0.00000000000E+00 0. -1.
         -5    1    5    5    0  502 -0.18157680168E+02  0.73593024229E+02  0.79622874004E+02  0.11003420663E+03  0.47000000000E+01 0.  1.
         15    1    6    6    0    0  0.19657115585E+02  0.32030606695E+02  0.41251352319E+02  0.55831834607E+02  0.17770000000E+01 0. -1.
        -16    1    6    6    0    0  0.73353897065E+02 -0.82219819629E+01 -0.95572194030E+01  0.74429400405E+02  0.00000000000E+00 0.  1.
<mgrwt>
<rscale>  2 0.21215717E+03</rscale>
<asrwt>0</asrwt>
<pdfrwt beam="1">  1       21 0.11261693E+00 0.21295639E+03</pdfrwt>
<pdfrwt beam="2">  1       21 0.12964477E-01 0.21295639E+03</pdfrwt>
<totfact> 0.31150536E+04</totfact>
</mgrwt>
</event>
<event>
12    2  0.4090627E-002  0.1978041E+03  0.7546771E-02  0.1151907E+00
         21   -1    0    0  503  502  0.00000000000E+00  0.00000000000E+00  0.17808107619E+04  0.17808107619E+04  0.00000000000E+00 0.  1.
         21   -1    0    0  501  503 -0.00000000000E+00 -0.00000000000E+00 -0.41684213902E+02  0.41684213902E+02  0.00000000000E+00 0.  1.
          6    2    1    2  501    0 -0.65651502449E+02 -0.69984400524E+02  0.24206088711E+03  0.31260189853E+03  0.17296975980E+03 0.  0.
         24    2    3    3    0    0 -0.56320452761E+02  0.14721867480E+01  0.57534988046E+02  0.11444789333E+03  0.81325793600E+02 0.  0.
         -6    2    1    2    0  502  0.65651502449E+02  0.69984400524E+02  0.14970656609E+04  0.15098930773E+04  0.17135803364E+03 0.  0.
        -24    2    5    5    0    0 -0.26336438908E+01 -0.14930354793E+01  0.38984069074E+03  0.39825414777E+03  0.81372211614E+02 0.  0.
          5    1    3    3  501    0 -0.93310496882E+01 -0.71456587272E+02  0.18452589906E+03  0.19815400520E+03  0.47000000000E+01 0. -1.
        -15    1    4    4    0    0 -0.39702138121E+02 -0.35518147120E+02  0.14330404508E+02  0.55193448601E+02  0.17770000000E+01 0.  1.
         16    1    4    4    0    0 -0.16618314640E+02  0.36990333868E+02  0.43204583539E+02  0.59254444727E+02  0.00000000000E+00 0. -1.
         -5    1    5    5    0  502  0.68285146340E+02  0.71477436003E+02  0.11072249702E+04  0.11116389295E+04  0.47000000000E+01 0.  1.
         15    1    6    6    0    0 -0.35608165182E+02  0.16527800418E+02  0.13316332266E+03  0.13884069232E+03  0.17770000000E+01 0. -1.
        -16    1    6    6    0    0  0.32974521291E+02 -0.18020835897E+02  0.25667736808E+03  0.25941345545E+03  0.00000000000E+00 0.  1.
<mgrwt>
<rscale>  2 0.19745123E+03</rscale>
<asrwt>0</asrwt>
<pdfrwt beam="1">  1       21 0.27397083E+00 0.19780413E+03</pdfrwt>
<pdfrwt beam="2">  1       21 0.64129574E-02 0.19780413E+03</pdfrwt>
<totfact> 0.84364555E+03</totfact>
</mgrwt>
</event>
<event>
12    2  0.4090627E-002  0.1752893E+03  0.7546771E-02  0.1172793E+00
         21   -1    0    0  503  502  0.00000000000E+00  0.00000000000E+00  0.73511010742E+03  0.73511010742E+03  0.00000000000E+00 0.  1.
         21   -1    0    0  501  503 -0.00000000000E+00 -0.00000000000E+00 -0.10066259059E+03  0.10066259059E+03  0.00000000000E+00 0.  1.
          6    2    1    2  501    0  0.20193289225E+02  0.58816896437E+01 -0.37570194016E+01  0.17393330728E+03  0.17261609712E+03 0.  0.
         24    2    3    3    0    0  0.66575545900E+02  0.64374112655E+01 -0.41657824096E+02  0.11384850423E+03  0.82172769409E+02 0.  0.
         -6    2    1    2    0  502 -0.20193289225E+02 -0.58816896437E+01  0.63820453623E+03  0.66183939073E+03  0.17402294633E+03 0.  0.
        -24    2    5    5    0    0 -0.16639279839E+02 -0.58502638751E+02  0.54618312124E+03  0.55567147616E+03  0.82191015992E+02 0.  0.
          5    1    3    3  501    0 -0.46382256675E+02 -0.55572162181E+00  0.37900804694E+02  0.60084803047E+02  0.47000000000E+01 0. -1.
        -15    1    4    4    0    0  0.62894621138E+02  0.38026242436E+02 -0.34691066079E+02  0.81291797105E+02  0.17770000000E+01 0.  1.
         16    1    4    4    0    0  0.36809247619E+01 -0.31588831171E+02 -0.69667580168E+01  0.32556707129E+02  0.00000000000E+00 0. -1.
         -5    1    5    5    0  502 -0.35540093861E+01  0.52620949107E+02  0.92021414991E+02  0.10616791457E+03  0.47000000000E+01 0.  1.
         15    1    6    6    0    0 -0.34880896527E+02 -0.93340759984E+01  0.98457187594E+02  0.10488459103E+03  0.17770000000E+01 0. -1.
        -16    1    6    6    0    0  0.18241616688E+02 -0.49168562752E+02  0.44772593365E+03  0.45078688513E+03  0.00000000000E+00 0.  1.
<mgrwt>
<rscale>  2 0.17493913E+03</rscale>
<asrwt>0</asrwt>
<pdfrwt beam="1">  1       21 0.11309386E+00 0.17528933E+03</pdfrwt>
<pdfrwt beam="2">  1       21 0.15486553E-01 0.17528933E+03</pdfrwt>
<totfact> 0.22843476E+04</totfact>
</mgrwt>
</event>
<event>
12    2  0.4090627E-002  0.2810962E+03  0.7546771E-02  0.1095185E+00
         21   -1    0    0  503  502  0.00000000000E+00  0.00000000000E+00  0.26280076854E+03  0.26280076854E+03  0.00000000000E+00 0.  1.
         21   -1    0    0  501  503 -0.00000000000E+00 -0.00000000000E+00 -0.64663468989E+03  0.64663468989E+03  0.00000000000E+00 0.  1.
          6    2    1    2  501    0 -0.63973945245E+02 -0.21261902205E+03 -0.52476625056E+03  0.59498833094E+03  0.17126582268E+03 0.  0.
         24    2    3    3    0    0 -0.84650379820E+02 -0.79975390835E+02 -0.22883611121E+03  0.26999819997E+03  0.83494384554E+02 0.  0.
         -6    2    1    2    0  502  0.63973945245E+02  0.21261902205E+03  0.14093232921E+03  0.31444712749E+03  0.17238201868E+03 0.  0.
        -24    2    5    5    0    0  0.10550383739E+03  0.11735737727E+03  0.87828134213E+02  0.19764961710E+03  0.80298046533E+02 0.  0.
          5    1    3    3  501    0  0.20676434575E+02 -0.13264363121E+03 -0.29593013935E+03  0.32499013097E+03  0.47000000000E+01 0. -1.
        -15    1    4    4    0    0 -0.13099357528E+02 -0.69670941090E+02 -0.10852524848E+03  0.12963996485E+03  0.17770000000E+01 0.  1.
         16    1    4    4    0    0 -0.71551022293E+02 -0.10304449745E+02 -0.12031086273E+03  0.14035823512E+03  0.00000000000E+00 0. -1.
         -5    1    5    5    0  502 -0.41529892143E+02  0.95261644783E+02  0.53104194997E+02  0.11679751039E+03  0.47000000000E+01 0.  1.
         15    1    6    6    0    0  0.59706183759E+01 -0.74827004992E+01 -0.69621750706E+01  0.11969490435E+02  0.17770000000E+01 0. -1.
        -16    1    6    6    0    0  0.99533219012E+02  0.12484007776E+03  0.94790309284E+02  0.18568012666E+03  0.00000000000E+00 0.  1.
<mgrwt>
<rscale>  2 0.28092527E+03</rscale>
<asrwt>0</asrwt>
<pdfrwt beam="1">  1       21 0.40430888E-01 0.28109620E+03</pdfrwt>
<pdfrwt beam="2">  1       21 0.99482259E-01 0.28109620E+03</pdfrwt>
<totfact> 0.46143931E+03</totfact>
</mgrwt>
</event>
<event>
12    2  0.4090627E-002  0.2424942E+03  0.7546771E-02  0.1118303E+00
         21   -1    0    0  501  502  0.00000000000E+00  0.00000000000E+00  0.59533687376E+03  0.59533687376E+03  0.00000000000E+00 0.  1.
         21   -1    0    0  502  503 -0.00000000000E+00 -0.00000000000E+00 -0.14893400137E+03  0.14893400137E+03  0.00000000000E+00 0. -1.
         -6    2    1    2    0  503 -0.10709256261E+03 -0.13034080047E+03  0.66782538552E+01  0.24258613666E+03  0.17420072730E+03 0.  0.
        -24    2    3    3    0    0 -0.15523333659E+02 -0.55546426663E+02  0.54299375055E+02  0.11503621221E+03  0.83417795374E+02 0.  0.
          6    2    1    2  501    0  0.10709256261E+03  0.13034080047E+03  0.43972461854E+03  0.50168473847E+03  0.17283603626E+03 0.  0.
         24    2    5    5    0    0  0.11186684088E+03  0.98899280348E+02  0.43747776382E+03  0.46945895257E+03  0.81912493358E+02 0.  0.
          5    1    5    5  501    0 -0.47742782686E+01  0.31441520121E+02  0.22468547149E+01  0.32225785896E+02  0.47000000000E+01 0. -1.
        -15    1    6    6    0    0  0.70584013919E+02  0.94301679943E+02  0.23629697524E+03  0.26403471003E+03  0.17770000000E+01 0.  1.
         16    1    6    6    0    0  0.41282826964E+02  0.45976004044E+01  0.20118078858E+03  0.20542424254E+03  0.00000000000E+00 0. -1.
         -5    1    3    3    0  503 -0.91569228955E+02 -0.74794373806E+02 -0.47621121200E+02  0.12754992446E+03  0.47000000000E+01 0.  1.
         15    1    4    4    0    0 -0.32523429224E+02 -0.71120575826E+02  0.44384548483E+02  0.89939177378E+02  0.17770000000E+01 0. -1.
        -16    1    4    4    0    0  0.17000095565E+02  0.15574149163E+02  0.99148265714E+01  0.25097034831E+02  0.00000000000E+00 0.  1.
<mgrwt>
<rscale>  2 0.24224920E+03</rscale>
<asrwt>0</asrwt>
<pdfrwt beam="1">  1       21 0.91590287E-01 0.24249420E+03</pdfrwt>
<pdfrwt beam="2">  1       21 0.22912924E-01 0.24249420E+03</pdfrwt>
<totfact> 0.17517166E+04</totfact>
</mgrwt>
</event>
<event>
12    2  0.4090627E-002  0.2313383E+03  0.7546771E-02  0.1125891E+00
         21   -1    0    0  501  502  0.00000000000E+00  0.00000000000E+00  0.41348870304E+02  0.41348870304E+02  0.00000000000E+00 0. -1.
         21   -1    0    0  502  503 -0.00000000000E+00 -0.00000000000E+00 -0.25365009455E+04  0.25365009455E+04  0.00000000000E+00 0.  1.
         -6    2    1    2    0  503  0.85010156576E+02  0.12747195369E+03 -0.21532637222E+04  0.21656551134E+04  0.17332509116E+03 0.  0.
        -24    2    3    3    0    0  0.24599433704E+02  0.37160567978E+02 -0.15464502872E+04  0.15491729671E+04  0.80264258977E+02 0.  0.
          6    2    1    2  501    0 -0.85010156576E+02 -0.12747195369E+03 -0.34188835300E+03  0.41219470239E+03  0.17187495764E+03 0.  0.
         24    2    5    5    0    0 -0.16016055325E+01 -0.68738331891E+02 -0.85851920527E+02  0.13654389163E+03  0.80908335004E+02 0.  0.
          5    1    5    5  501    0 -0.83408551043E+02 -0.58733621803E+02 -0.25603643247E+03  0.27565081076E+03  0.47000000000E+01 0. -1.
        -15    1    6    6    0    0  0.31043982910E+02 -0.60351242232E+02 -0.74931411036E+02  0.10111318115E+03  0.17770000000E+01 0.  1.
         16    1    6    6    0    0 -0.32645588443E+02 -0.83870896593E+01 -0.10920509491E+02  0.35430710482E+02  0.00000000000E+00 0. -1.
         -5    1    3    3    0  503  0.60410722871E+02  0.90311385716E+02 -0.60681343501E+03  0.61648214632E+03  0.47000000000E+01 0.  1.
         15    1    4    4    0    0 -0.15607805133E+02  0.24726169842E+02 -0.11718218387E+04  0.11721879399E+04  0.17770000000E+01 0. -1.
        -16    1    4    4    0    0  0.40207238837E+02  0.12434398137E+02 -0.37462844852E+03  0.37698502722E+03  0.00000000000E+00 0.  1.
<mgrwt>
<rscale>  2 0.23106671E+03</rscale>
<asrwt>0</asrwt>
<pdfrwt beam="1">  1       21 0.63613641E-02 0.23133831E+03</pdfrwt>
<pdfrwt beam="2">  1       21 0.39023095E+00 0.23133831E+03</pdfrwt>
<totfact> 0.16947730E+03</totfact>
</mgrwt>
</event>
<event>
12    2  0.4090627E-002  0.1994977E+03  0.7546771E-02  0.1152240E+00
         21   -1    0    0  501  502  0.00000000000E+00  0.00000000000E+00  0.64443015995E+03  0.64443015995E+03  0.00000000000E+00 0. -1.
         21   -1    0    0  502  503 -0.00000000000E+00 -0.00000000000E+00 -0.71121524335E+02  0.71121524335E+02  0.00000000000E+00 0.  1.
         -6    2    1    2    0  503 -0.76947325062E+02  0.58239359249E+02  0.14381192972E+03  0.24592923636E+03  0.17460413617E+03 0.  0.
        -24    2    3    3    0    0 -0.13658149825E+02  0.41196689778E+02  0.15442768145E+03  0.17936530867E+03  0.80251435187E+02 0.  0.
          6    2    1    2  501    0  0.76947325062E+02 -0.58239359249E+02  0.42949670589E+03  0.46962244792E+03  0.16360045666E+03 0.  0.
         24    2    5    5    0    0  0.92601568926E+02 -0.85849203240E+02  0.24777924438E+03  0.28509417189E+03  0.62761426344E+02 0.  0.
          5    1    5    5  501    0 -0.15654243864E+02  0.27609843991E+02  0.18171746151E+03  0.18452827603E+03  0.47000000000E+01 0. -1.
        -15    1    6    6    0    0  0.92019075054E+02 -0.53369521019E+02  0.20888640112E+03  0.23441950058E+03  0.17770000000E+01 0.  1.
         16    1    6    6    0    0  0.58249387199E+00 -0.32479682220E+02  0.38892843256E+02  0.50674671314E+02  0.00000000000E+00 0. -1.
         -5    1    3    3    0  503 -0.63289175237E+02  0.17042669471E+02 -0.10615751732E+02  0.66563927691E+02  0.47000000000E+01 0.  1.
         15    1    4    4    0    0 -0.49447844108E+01 -0.23927522411E+02  0.54746386448E+02  0.59977510616E+02  0.17770000000E+01 0. -1.
        -16    1    4    4    0    0 -0.87133654142E+01  0.65124212188E+02  0.99681295003E+02  0.11938779805E+03  0.00000000000E+00 0.  1.
<mgrwt>
<rscale>  2 0.19706450E+03</rscale>
<asrwt>0</asrwt>
<pdfrwt beam="1">  1       21 0.99143098E-01 0.19949766E+03</pdfrwt>
<pdfrwt beam="2">  1       21 0.10941773E-01 0.19949766E+03</pdfrwt>
<totfact> 0.57768825E+04</totfact>
</mgrwt>
</event>
<event>
12    2  0.4090627E-002  0.2106572E+03  0.7546771E-02  0.1141732E+00
         21   -1    0    0  501  502  0.00000000000E+00  0.00000000000E+00  0.58216109753E+02  0.58216109753E+02  0.00000000000E+00 0.  1.
         21   -1    0    0  502  503 -0.00000000000E+00 -0.00000000000E+00 -0.80447379968E+03  0.80447379968E+03  0.00000000000E+00 0.  1.
         -6    2    1    2    0  503  0.87659470077E+02 -0.82935017287E+02 -0.48265358705E+03  0.52525314037E+03  0.16844576751E+03 0.  0.
        -24    2    3    3    0    0  0.31442694521E+01 -0.77855770814E+02 -0.33745398327E+03  0.35710548853E+03  0.87050167353E+02 0.  0.
          6    2    1    2  501    0 -0.87659470077E+02  0.82935017287E+02 -0.26360410287E+03  0.33743676905E+03  0.17266745575E+03 0.  0.
         24    2    5    5    0    0 -0.17049103107E+02  0.28232278373E+02 -0.72522253239E+02  0.12645673013E+03  0.98204347766E+02 0.  0.
          5    1    5    5  501    0 -0.70610366970E+02  0.54702738914E+02 -0.19108184963E+03  0.21098003893E+03  0.47000000000E+01 0. -1.
        -15    1    6    6    0    0  0.31177697306E+02  0.40548970889E+02 -0.50921113163E+02  0.72196851346E+02  0.17770000000E+01 0.  1.
         16    1    6    6    0    0 -0.48226800413E+02 -0.12316692516E+02 -0.21601140076E+02  0.54259878780E+02  0.00000000000E+00 0. -1.
         -5    1    3    3    0  503  0.84515200625E+02 -0.50792464734E+01 -0.14519960378E+03  0.16814765184E+03  0.47000000000E+01 0.  1.
         15    1    4    4    0    0 -0.19322928272E+02  0.10592196613E+02 -0.37029581256E+02  0.43126764348E+02  0.17770000000E+01 0. -1.
        -16    1    4    4    0    0  0.22467197724E+02 -0.88447967427E+02 -0.30042440201E+03  0.31397872418E+03  0.00000000000E+00 0.  1.
<mgrwt>
<rscale>  2 0.20979029E+03</rscale>
<asrwt>0</asrwt>
<pdfrwt beam="1">  1       21 0.89563239E-02 0.21065719E+03</pdfrwt>
<pdfrwt beam="2">  1       21 0.12376521E+00 0.21065719E+03</pdfrwt>
<totfact> 0.47715886E+04</totfact>
</mgrwt>
</event>
<event>
12    2  0.4090627E-002  0.2124786E+03  0.7546771E-02  0.1140362E+00
         21   -1    0    0  501  502  0.00000000000E+00  0.00000000000E+00  0.12089377043E+04  0.12089377043E+04  0.00000000000E+00 0.  1.
         21   -1    0    0  502  503 -0.00000000000E+00 -0.00000000000E+00 -0.43384452784E+02  0.43384452784E+02  0.00000000000E+00 0.  1.
         -6    2    1    2    0  503  0.33970773383E+02 -0.11506713066E+03  0.33227048641E+03  0.39237603430E+03  0.17076538920E+03 0.  0.
        -24    2    3    3    0    0 -0.28863632496E+02 -0.65370132188E+02  0.99841899251E+02  0.14648359369E+03  0.79891644809E+02 0.  0.
          6    2    1    2  501    0 -0.33970773383E+02  0.11506713066E+03  0.83328276513E+03  0.85994612281E+03  0.17536450460E+03 0.  0.
         24    2    5    5    0    0  0.13701476778E+02  0.82353431421E+01  0.23882634130E+03  0.25406972940E+03  0.85193044064E+02 0.  0.
          5    1    5    5  501    0 -0.47672250161E+02  0.10683178752E+03  0.59445642383E+03  0.60587639341E+03  0.47000000000E+01 0. -1.
        -15    1    6    6    0    0  0.27692861819E+02  0.33940898260E+02  0.69069351246E+02  0.81808386985E+02  0.17770000000E+01 0.  1.
         16    1    6    6    0    0 -0.13991385041E+02 -0.25705555118E+02  0.16975699005E+03  0.17226134242E+03  0.00000000000E+00 0. -1.
         -5    1    3    3    0  503  0.62834405879E+02 -0.49696998475E+02  0.23242858716E+03  0.24589244061E+03  0.47000000000E+01 0.  1.
         15    1    4    4    0    0 -0.10484237118E+02 -0.21433070499E+02  0.95736149737E+02  0.98680615292E+02  0.17770000000E+01 0. -1.
        -16    1    4    4    0    0 -0.18379395378E+02 -0.43937061689E+02  0.41057495138E+01  0.47802978395E+02  0.00000000000E+00 0.  1.
<mgrwt>
<rscale>  2 0.21152735E+03</rscale>
<asrwt>0</asrwt>
<pdfrwt beam="1">  1       21 0.18599039E+00 0.21247863E+03</pdfrwt>
<pdfrwt beam="2">  1       21 0.66745321E-02 0.21247863E+03</pdfrwt>
<totfact> 0.26860908E+04</totfact>
</mgrwt>
</event>
<event>
12    2  0.4090627E-002  0.1882935E+03  0.7546771E-02  0.1160195E+00
         21   -1    0    0  501  502  0.00000000000E+00  0.00000000000E+00  0.15935752669E+03  0.15935752669E+03  0.00000000000E+00 0.  1.
         21   -1    0    0  502  503 -0.00000000000E+00 -0.00000000000E+00 -0.25206306219E+03  0.25206306219E+03  0.00000000000E+00 0.  1.
         -6    2    1    2    0  503 -0.69829786591E+02 -0.31308439344E+02 -0.11804344646E+03  0.22223564197E+03  0.17204071566E+03 0.  0.
        -24    2    3    3    0    0  0.30064418442E+02 -0.23913179383E+02 -0.56090864712E+02  0.10436387074E+03  0.79182845411E+02 0.  0.
          6    2    1    2  501    0  0.69829786591E+02  0.31308439344E+02  0.25337910953E+02  0.18918494690E+03  0.17115056802E+03 0.  0.
         24    2    5    5    0    0  0.64052072483E+01 -0.22019884531E+02 -0.30151884793E+02  0.89346102639E+02  0.80917784853E+02 0.  0.
          5    1    5    5  501    0  0.63424579343E+02  0.53328323875E+02  0.55489795747E+02  0.99838844265E+02  0.47000000000E+01 0. -1.
        -15    1    6    6    0    0 -0.43386231674E+01 -0.50563514080E+02 -0.74460392512E+01  0.51323423859E+02  0.17770000000E+01 0.  1.
         16    1    6    6    0    0  0.10743830416E+02  0.28543629549E+02 -0.22705845542E+02  0.38022678780E+02  0.00000000000E+00 0. -1.
         -5    1    3    3    0  503 -0.99894205033E+02 -0.73952599602E+01 -0.61952581744E+02  0.11787177123E+03  0.47000000000E+01 0.  1.
         15    1    4    4    0    0  0.14702509748E+02  0.22217366527E+02 -0.48207131079E+02  0.55107716194E+02  0.17770000000E+01 0. -1.
        -16    1    4    4    0    0  0.15361908694E+02 -0.46130545911E+02 -0.78837336333E+01  0.49256154547E+02  0.00000000000E+00 0.  1.
<mgrwt>
<rscale>  2 0.18808988E+03</rscale>
<asrwt>0</asrwt>
<pdfrwt beam="1">  1       21 0.24516542E-01 0.18829346E+03</pdfrwt>
<pdfrwt beam="2">  1       21 0.38778933E-01 0.18829346E+03</pdfrwt>
<totfact> 0.10097072E+05</totfact>
</mgrwt>
</event>
<event>
12    2  0.4090627E-002  0.2126323E+03  0.7546771E-02  0.1139843E+00
         21   -1    0    0  501  502  0.00000000000E+00  0.00000000000E+00  0.76346566714E+02  0.76346566714E+02  0.00000000000E+00 0. -1.
         21   -1    0    0  502  503 -0.00000000000E+00 -0.00000000000E+00 -0.11228315602E+04  0.11228315602E+04  0.00000000000E+00 0. -1.
         -6    2    1    2    0  503 -0.44002391165E+02  0.11264583331E+03 -0.93846118428E+03  0.96224836011E+03  0.17489201798E+03 0.  0.
        -24    2    3    3    0    0 -0.32213040710E+02  0.72256015646E+02 -0.26792539663E+03  0.29037734669E+03  0.79223566728E+02 0.  0.
          6    2    1    2  501    0  0.44002391165E+02 -0.11264583331E+03 -0.10802380921E+03  0.23692976681E+03  0.17274627883E+03 0.  0.
         24    2    5    5    0    0  0.21883337375E+02  0.10507001673E+02 -0.29598716360E+02  0.89185195013E+02  0.80552079182E+02 0.  0.
          5    1    5    5  501    0  0.22119053791E+02 -0.12315283498E+03 -0.78425092855E+02  0.14774457179E+03  0.47000000000E+01 0. -1.
        -15    1    6    6    0    0 -0.27120018327E+02  0.10619380904E+02 -0.27563611344E+02  0.40139469904E+02  0.17770000000E+01 0.  1.
         16    1    6    6    0    0  0.49003355702E+02 -0.11237923112E+00 -0.20351050159E+01  0.49045725110E+02  0.00000000000E+00 0. -1.
         -5    1    3    3    0  503 -0.11789350455E+02  0.40389817666E+02 -0.67053578765E+03  0.67187101342E+03  0.47000000000E+01 0.  1.
         15    1    4    4    0    0 -0.34334911935E+01  0.65340802462E+01 -0.16352004956E+03  0.16369620461E+03  0.17770000000E+01 0. -1.
        -16    1    4    4    0    0 -0.28779549517E+02  0.65721935399E+02 -0.10440534707E+03  0.12668114208E+03  0.00000000000E+00 0.  1.
<mgrwt>
<rscale>  2 0.21219063E+03</rscale>
<asrwt>0</asrwt>
<pdfrwt beam="1">  1       21 0.11745626E-01 0.21263234E+03</pdfrwt>
<pdfrwt beam="2">  1       21 0.17274332E+00 0.21263234E+03</pdfrwt>
<totfact> 0.12262808E+04</totfact>
</mgrwt>
</event>
<event>
12    2  0.4090627E-002  0.1971132E+03  0.7546771E-02  0.1152245E+00
         21   -1    0    0  501  502  0.00000000000E+00  0.00000000000E+00  0.10948735870E+03  0.10948735870E+03  0.00000000000E+00 0. -1.
         21   -1    0    0  502  503 -0.00000000000E+00 -0.00000000000E+00 -0.45731091380E+03  0.45731091380E+03  0.00000000000E+00 0. -1.
         -6    2    1    2    0  503 -0.75547379750E+02 -0.56117662325E+02 -0.30837466527E+03  0.36598979647E+03  0.17319641545E+03 0.  0.
        -24    2    3    3    0    0 -0.28379625721E+02 -0.53287700642E+02 -0.66235316183E+02  0.11923818030E+03  0.78648867355E+02 0.  0.
          6    2    1    2  501    0  0.75547379750E+02  0.56117662325E+02 -0.39448889822E+02  0.20080847603E+03  0.17294863552E+03 0.  0.
         24    2    5    5    0    0 -0.11025489845E+02  0.73458004295E+02 -0.22327927396E+02  0.11074868165E+03  0.79051213304E+02 0.  0.
          5    1    5    5  501    0  0.86572869595E+02 -0.17340341970E+02 -0.17120962426E+02  0.90059794381E+02  0.47000000000E+01 0. -1.
        -15    1    6    6    0    0  0.12950171137E+02  0.33144136686E+00  0.19255719153E+02  0.23275679044E+02  0.17770000000E+01 0.  1.
         16    1    6    6    0    0 -0.23975660981E+02  0.73126562929E+02 -0.41583646549E+02  0.87473002610E+02  0.00000000000E+00 0. -1.
         -5    1    3    3    0  503 -0.47167754029E+02 -0.28299616830E+01 -0.24213934909E+03  0.24675161617E+03  0.47000000000E+01 0.  1.
         15    1    4    4    0    0 -0.18501548036E+02 -0.51778311474E+02 -0.83085569053E+02  0.99647731197E+02  0.17770000000E+01 0. -1.
        -16    1    4    4    0    0 -0.98780776851E+01 -0.15093891684E+01  0.16850252869E+02  0.19590449106E+02  0.00000000000E+00 0.  1.
<mgrwt>
<rscale>  2 0.19705872E+03</rscale>
<asrwt>0</asrwt>
<pdfrwt beam="1">  1       21 0.16844209E-01 0.19711316E+03</pdfrwt>
<pdfrwt beam="2">  1       21 0.70355526E-01 0.19711316E+03</pdfrwt>
<totfact> 0.58016249E+04</totfact>
</mgrwt>
</event>
<event>
12    2  0.4090627E-002  0.2189796E+03  0.7546771E-02  0.1134873E+00
         21   -1    0    0  501  502  0.00000000000E+00  0.00000000000E+00  0.15634887678E+03  0.15634887678E+03  0.00000000000E+00 0.  1.
         21   -1    0    0  502  503 -0.00000000000E+00 -0.00000000000E+00 -0.64439479403E+03  0.64439479403E+03  0.00000000000E+00 0.  1.
         -6    2    1    2    0  503  0.13326477423E+03  0.28968993469E+01 -0.53426151918E+03  0.57694033356E+03  0.17221174621E+03 0.  0.
        -24    2    3    3    0    0  0.32951303863E+02  0.66514265386E+01 -0.39871428802E+03  0.40820376169E+03  0.80791074285E+02 0.  0.
          6    2    1    2  501    0 -0.13326477423E+03 -0.28968993469E+01  0.46215601930E+02  0.22380333726E+03  0.17373589103E+03 0.  0.
         24    2    5    5    0    0 -0.12616030731E+03 -0.34504716427E+02  0.83605622100E+02  0.17410795358E+03  0.78845931141E+02 0.  0.
          5    1    5    5  501    0 -0.71044669199E+01  0.31607817080E+02 -0.37390020170E+02  0.49695383679E+02  0.47000000000E+01 0. -1.
        -15    1    6    6    0    0 -0.28462978472E+02  0.20799639234E+02  0.40824528319E+02  0.53968194126E+02  0.17770000000E+01 0.  1.
         16    1    6    6    0    0 -0.97697328834E+02 -0.55304355660E+02  0.42781093780E+02  0.12013975945E+03  0.00000000000E+00 0. -1.
         -5    1    3    3    0  503  0.10031347036E+03 -0.37545271917E+01 -0.13554723115E+03  0.16873657186E+03  0.47000000000E+01 0.  1.
         15    1    4    4    0    0 -0.21628917336E+02  0.45327101982E+01 -0.43596192016E+02  0.48909520691E+02  0.17770000000E+01 0. -1.
        -16    1    4    4    0    0  0.54580221198E+02  0.21187163404E+01 -0.35511809601E+03  0.35929424100E+03  0.00000000000E+00 0.  1.
<mgrwt>
<rscale>  2 0.21867713E+03</rscale>
<asrwt>0</asrwt>
<pdfrwt beam="1">  1       21 0.24053673E-01 0.21897957E+03</pdfrwt>
<pdfrwt beam="2">  1       21 0.99137661E-01 0.21897957E+03</pdfrwt>
<totfact> 0.13429380E+04</totfact>
</mgrwt>
</event>
<event>
12    2  0.4090627E-002  0.1815392E+03  0.7546771E-02  0.1166429E+00
         21   -1    0    0  501  502  0.00000000000E+00  0.00000000000E+00  0.17613862748E+03  0.17613862748E+03  0.00000000000E+00 0. -1.
         21   -1    0    0  502  503 -0.00000000000E+00 -0.00000000000E+00 -0.23853596309E+03  0.23853596309E+03  0.00000000000E+00 0. -1.
         -6    2    1    2    0  503 -0.53727555240E+02 -0.64818973433E+01 -0.12793613003E+03  0.22209040756E+03  0.17328540209E+03 0.  0.
        -24    2    3    3    0    0 -0.49456022669E+02 -0.69251972341E+02 -0.91960056650E+02  0.14946330406E+03  0.81491676821E+02 0.  0.
          6    2    1    2  501    0  0.53727555240E+02  0.64818973433E+01  0.65538794421E+02  0.19258418301E+03  0.17281397162E+03 0.  0.
         24    2    5    5    0    0  0.80450342587E+02 -0.56872360350E+01 -0.74611860179E+01  0.11375980661E+03  0.79881299606E+02 0.  0.
          5    1    5    5  501    0 -0.26722787348E+02  0.12169133378E+02  0.72999980439E+02  0.78824376400E+02  0.47000000000E+01 0. -1.
        -15    1    6    6    0    0 -0.82246152651E+01  0.18943580549E+02 -0.64967842849E+01  0.21722556832E+02  0.17770000000E+01 0.  1.
         16    1    6    6    0    0  0.88674957852E+02 -0.24630816584E+02 -0.96440173295E+00  0.92037249777E+02  0.00000000000E+00 0. -1.
         -5    1    3    3    0  503 -0.42715325711E+01  0.62770074998E+02 -0.35976073381E+02  0.72627103493E+02  0.47000000000E+01 0.  1.
         15    1    4    4    0    0 -0.46581550250E+01 -0.21106291762E+02  0.13232652170E+02  0.25405408334E+02  0.17770000000E+01 0. -1.
        -16    1    4    4    0    0 -0.44797867644E+02 -0.48145680580E+02 -0.10519270882E+03  0.12405789573E+03  0.00000000000E+00 0.  1.
<mgrwt>
<rscale>  2 0.18142665E+03</rscale>
<asrwt>0</asrwt>
<pdfrwt beam="1">  1       21 0.27098251E-01 0.18153924E+03</pdfrwt>
<pdfrwt beam="2">  1       21 0.36697840E-01 0.18153924E+03</pdfrwt>
<totfact> 0.93337221E+04</totfact>
</mgrwt>
</event>
<event>
12    2  0.4090627E-002  0.1911115E+03  0.7546771E-02  0.1157584E+00
         21   -1    0    0  501  502  0.00000000000E+00  0.00000000000E+00  0.16794715687E+03  0.16794715687E+03  0.00000000000E+00 0.  1.
         21   -1    0    0  502  503 -0.00000000000E+00 -0.00000000000E+00 -0.21851881414E+03  0.21851881414E+03  0.00000000000E+00 0. -1.
         -6    2    1    2    0  503  0.57699847276E+02 -0.55923972075E+02 -0.84636046674E+01  0.19129880024E+03  0.17339791042E+03 0.  0.
        -24    2    3    3    0    0  0.12179810883E+02 -0.98161106227E+02  0.39948739275E+01  0.12779011655E+03  0.80810916971E+02 0.  0.
          6    2    1    2  501    0 -0.57699847276E+02  0.55923972075E+02 -0.42108052607E+02  0.19516717078E+03  0.17280154347E+03 0.  0.
         24    2    5    5    0    0 -0.66253928023E+02  0.94503696902E+02 -0.58417438151E+02  0.15215957236E+03  0.80121199899E+02 0.  0.
          5    1    5    5  501    0  0.85540807470E+01 -0.38579724827E+02  0.16309385544E+02  0.43007598421E+02  0.47000000000E+01 0. -1.
        -15    1    6    6    0    0 -0.42755596850E+02  0.23704547602E+01 -0.31965718541E+02  0.53466110842E+02  0.17770000000E+01 0.  1.
         16    1    6    6    0    0 -0.23498331173E+02  0.92133242141E+02 -0.26451719610E+02  0.98693461514E+02  0.00000000000E+00 0. -1.
         -5    1    3    3    0  503  0.45520036392E+02  0.42237134152E+02 -0.12458478595E+02  0.63508683685E+02  0.47000000000E+01 0.  1.
         15    1    4    4    0    0 -0.55790089920E+01  0.11126431251E+02 -0.10163985458E+02  0.16167471760E+02  0.17770000000E+01 0. -1.
        -16    1    4    4    0    0  0.17758819875E+02 -0.10928753748E+03  0.14158859386E+02  0.11162264479E+03  0.00000000000E+00 0.  1.
<mgrwt>
<rscale>  2 0.19097611E+03</rscale>
<asrwt>0</asrwt>
<pdfrwt beam="1">  1       21 0.25838024E-01 0.19111148E+03</pdfrwt>
<pdfrwt beam="2">  1       21 0.33618279E-01 0.19111148E+03</pdfrwt>
<totfact> 0.12127281E+05</totfact>
</mgrwt>
</event>
<event>
12    2  0.4090627E-002  0.1814786E+03  0.7546771E-02  0.1167130E+00
         21   -1    0    0  501  502  0.00000000000E+00  0.00000000000E+00  0.29941881232E+03  0.29941881232E+03  0.00000000000E+00 0.  1.
         21   -1    0    0  502  503 -0.00000000000E+00 -0.00000000000E+00 -0.55493771462E+03  0.55493771462E+03  0.00000000000E+00 0.  1.
         -6    2    1    2    0  503 -0.28844404755E+02  0.47344964320E+02 -0.51085345289E+03  0.54109911799E+03  0.16953896255E+03 0.  0.
        -24    2    3    3    0    0  0.46951228502E+02  0.40523330586E+02 -0.25214712862E+03  0.27139082199E+03  0.78919234742E+02 0.  0.
          6    2    1    2  501    0  0.28844404755E+02 -0.47344964320E+02  0.25533455060E+03  0.31325740895E+03  0.17280314292E+03 0.  0.
         24    2    5    5    0    0  0.49730111140E+02 -0.47284286509E+02  0.26847243689E+03  0.28813947773E+03  0.78981146799E+02 0.  0.
          5    1    5    5  501    0 -0.20885706385E+02 -0.60677811194E-01 -0.13137886289E+02  0.25117931227E+02  0.47000000000E+01 0. -1.
        -15    1    6    6    0    0  0.29049882933E+02 -0.65677399923E+02  0.14779095716E+03  0.16432510857E+03  0.17770000000E+01 0.  1.
         16    1    6    6    0    0  0.20680228206E+02  0.18393113414E+02  0.12068147973E+03  0.12381436916E+03  0.00000000000E+00 0. -1.
         -5    1    3    3    0  503 -0.75795633257E+02  0.68216337340E+01 -0.25870632428E+03  0.26970829600E+03  0.47000000000E+01 0.  1.
         15    1    4    4    0    0  0.10522399996E+02  0.47933151944E+02 -0.70113433123E+02  0.85599995270E+02  0.17770000000E+01 0. -1.
        -16    1    4    4    0    0  0.36428828506E+02 -0.74098213579E+01 -0.18203369549E+03  0.18579082672E+03  0.00000000000E+00 0.  1.
<mgrwt>
<rscale>  2 0.18069720E+03</rscale>
<asrwt>0</asrwt>
<pdfrwt beam="1">  1       21 0.46064433E-01 0.18147857E+03</pdfrwt>
<pdfrwt beam="2">  1       21 0.85375032E-01 0.18147857E+03</pdfrwt>
<totfact> 0.54044206E+03</totfact>
</mgrwt>
</event>
<event>
12    2  0.4090627E-002  0.1953638E+03  0.7546771E-02  0.1155985E+00
         21   -1    0    0  503  502  0.00000000000E+00  0.00000000000E+00  0.41493302956E+03  0.41493302956E+03  0.00000000000E+00 0.  1.
         21   -1    0    0  501  503 -0.00000000000E+00 -0.00000000000E+00 -0.46902573696E+03  0.46902573696E+03  0.00000000000E+00 0.  1.
          6    2    1    2  501    0  0.15515827688E+02  0.66821755818E+02 -0.42590604192E+03  0.46857546582E+03  0.18292381656E+03 0.  0.
         24    2    3    3    0    0  0.51192622967E+02  0.89603385675E+02 -0.38325690447E+03  0.40830212756E+03  0.95787896793E+02 0.  0.
         -6    2    1    2    0  502 -0.15515827688E+02 -0.66821755818E+02  0.37181333451E+03  0.41538330070E+03  0.17202396000E+03 0.  0.
        -24    2    5    5    0    0 -0.22686266708E+02  0.29238765026E+02  0.15464698438E+03  0.17776521954E+03  0.79468304524E+02 0.  0.
          5    1    3    3  501    0 -0.35676795279E+02 -0.22781629857E+02 -0.42649137447E+02  0.60273338263E+02  0.47000000000E+01 0. -1.
        -15    1    4    4    0    0  0.36597975961E+02  0.97192908188E+02 -0.37641939935E+03  0.39048763768E+03  0.17770000000E+01 0.  1.
         16    1    4    4    0    0  0.14594647006E+02 -0.75895225128E+01 -0.68375051202E+01  0.17814489874E+02  0.00000000000E+00 0. -1.
         -5    1    5    5    0  502  0.71704390203E+01 -0.96060520844E+02  0.21716635013E+03  0.23761808115E+03  0.47000000000E+01 0.  1.
         15    1    6    6    0    0 -0.44251828315E+02  0.90367516281E+01  0.43407608950E+02  0.62667897946E+02  0.17770000000E+01 0. -1.
        -16    1    6    6    0    0  0.21565561607E+02  0.20202013397E+02  0.11123937543E+03  0.11509732160E+03  0.00000000000E+00 0.  1.
<mgrwt>
<rscale>  2 0.19277107E+03</rscale>
<asrwt>0</asrwt>
<pdfrwt beam="1">  1       21 0.63835850E-01 0.19536379E+03</pdfrwt>
<pdfrwt beam="2">  1       21 0.72157806E-01 0.19536379E+03</pdfrwt>
<totfact> 0.39189454E+03</totfact>
</mgrwt>
</event>
<event>
12    2  0.4090627E-002  0.2779876E+03  0.7546771E-02  0.1096873E+00
         21   -1    0    0  503  502  0.00000000000E+00  0.00000000000E+00  0.80529218669E+03  0.80529218669E+03  0.00000000000E+00 0.  1.
         21   -1    0    0  501  503 -0.00000000000E+00 -0.00000000000E+00 -0.12325776203E+03  0.12325776203E+03  0.00000000000E+00 0.  1.
          6    2    1    2  501    0 -0.57436853839E+02 -0.20925378350E+03  0.12200938177E+03  0.30358427050E+03  0.17375552356E+03 0.  0.
         24    2    3    3    0    0  0.22587799434E+02 -0.11858653668E+03  0.21395999961E+02  0.14620054397E+03  0.79648194442E+02 0.  0.
         -6    2    1    2    0  502  0.57436853839E+02  0.20925378350E+03  0.56002504289E+03  0.62496567822E+03  0.17282335549E+03 0.  0.
        -24    2    5    5    0    0  0.90664206226E+02  0.88631581852E+02  0.25919073628E+03  0.29911733542E+03  0.78840262428E+02 0.  0.
          5    1    3    3  501    0 -0.80024653273E+02 -0.90667246817E+02  0.10061338181E+03  0.15738372653E+03  0.47000000000E+01 0. -1.
        -15    1    4    4    0    0 -0.20189785915E+02 -0.92055095905E+02  0.15348450725E+02  0.95501313111E+02  0.17770000000E+01 0.  1.
         16    1    4    4    0    0  0.42777585349E+02 -0.26531440775E+02  0.60475492358E+01  0.50699230859E+02  0.00000000000E+00 0. -1.
         -5    1    5    5    0  502 -0.33227352387E+02  0.12062220164E+03  0.30083430661E+03  0.32584834280E+03  0.47000000000E+01 0.  1.
         15    1    6    6    0    0 -0.65262515195E+01 -0.54232620852E+01  0.25788385146E+01  0.90449913004E+01  0.17770000000E+01 0. -1.
        -16    1    6    6    0    0  0.97190457746E+02  0.94054843938E+02  0.25661189777E+03  0.29007234412E+03  0.00000000000E+00 0.  1.
<mgrwt>
<rscale>  2 0.27784209E+03</rscale>
<asrwt>0</asrwt>
<pdfrwt beam="1">  1       21 0.12389110E+00 0.27798763E+03</pdfrwt>
<pdfrwt beam="2">  1       21 0.18962733E-01 0.27798763E+03</pdfrwt>
<totfact> 0.11810743E+04</totfact>
</mgrwt>
</event>
<event>
12    2  0.4090627E-002  0.2792770E+03  0.7546771E-02  0.1096862E+00
         21   -1    0    0  503  502  0.00000000000E+00  0.00000000000E+00  0.12988293585E+03  0.12988293585E+03  0.00000000000E+00 0. -1.
         21   -1    0    0  501  503 -0.00000000000E+00 -0.00000000000E+00 -0.61187879893E+03  0.61187879893E+03  0.00000000000E+00 0.  1.
          6    2    1    2  501    0  0.21453757816E+03  0.45760128145E+02 -0.31113573486E+03  0.41436466905E+03  0.16362234468E+03 0.  0.
         24    2    3    3    0    0  0.19635048225E+03  0.48249548696E+02 -0.32631809431E+03  0.39008377715E+03  0.69284368328E+02 0.  0.
         -6    2    1    2    0  502 -0.21453757816E+03 -0.45760128145E+02 -0.17086012822E+03  0.32739706573E+03  0.17284470908E+03 0.  0.
        -24    2    5    5    0    0 -0.22288597286E+03 -0.21374878172E+02 -0.11254375764E+03  0.26346565570E+03  0.81320428161E+02 0.  0.
          5    1    3    3  501    0  0.18187095917E+02 -0.24894205512E+01  0.15182359457E+02  0.24280891896E+02  0.47000000000E+01 0. -1.
        -15    1    4    4    0    0  0.68847798989E+02 -0.11755263144E+02 -0.79214289306E+02  0.10562323133E+03  0.17770000000E+01 0.  1.
         16    1    4    4    0    0  0.12750268326E+03  0.60004811840E+02 -0.24710380501E+03  0.28446054582E+03  0.00000000000E+00 0. -1.
         -5    1    5    5    0  502  0.83483946906E+01 -0.24385249972E+02 -0.58316370584E+02  0.63931410028E+02  0.47000000000E+01 0.  1.
         15    1    6    6    0    0 -0.12281569286E+03 -0.50956816541E+02 -0.74292298109E+02  0.15232463639E+03  0.17770000000E+01 0. -1.
        -16    1    6    6    0    0 -0.10007028000E+03  0.29581938369E+02 -0.38251459528E+02  0.11114101931E+03  0.00000000000E+00 0.  1.
<mgrwt>
<rscale>  2 0.27786337E+03</rscale>
<asrwt>0</asrwt>
<pdfrwt beam="1">  1       21 0.19981990E-01 0.27927702E+03</pdfrwt>
<pdfrwt beam="2">  1       21 0.94135201E-01 0.27927702E+03</pdfrwt>
<totfact> 0.20912308E+04</totfact>
</mgrwt>
</event>
<event>
12    2  0.4090627E-002  0.2419582E+03  0.7546771E-02  0.1119157E+00
         21   -1    0    0  503  502  0.00000000000E+00  0.00000000000E+00  0.81969565122E+02  0.81969565122E+02  0.00000000000E+00 0. -1.
         21   -1    0    0  501  503 -0.00000000000E+00 -0.00000000000E+00 -0.14354492498E+04  0.14354492498E+04  0.00000000000E+00 0. -1.
          6    2    1    2  501    0  0.20034793568E+02  0.16500596606E+03 -0.12161272598E+04  0.12391932689E+04  0.17031172591E+03 0.  0.
         24    2    3    3    0    0  0.57715174015E+02  0.16473253057E+03 -0.87074507961E+03  0.89172985183E+03  0.80729716043E+02 0.  0.
         -6    2    1    2    0  502 -0.20034793568E+02 -0.16500596606E+03 -0.13735242491E+03  0.27822554601E+03  0.17582776809E+03 0.  0.
        -24    2    5    5    0    0 -0.41874712683E+02 -0.17897070618E+03 -0.14894803567E+03  0.24944110191E+03  0.79065420761E+02 0.  0.
          5    1    3    3  501    0 -0.37680380446E+02  0.27343549980E+00 -0.34538218015E+03  0.34746341707E+03  0.47000000000E+01 0. -1.
        -15    1    4    4    0    0  0.23241891263E+01 -0.75502492381E+01 -0.14869300671E+02  0.16931094179E+02  0.17770000000E+01 0.  1.
         16    1    4    4    0    0  0.55390984888E+02  0.17228277980E+03 -0.85587577894E+03  0.87479875766E+03  0.00000000000E+00 0. -1.
         -5    1    5    5    0  502  0.21839919115E+02  0.13964740111E+02  0.11595610758E+02  0.28784444100E+02  0.47000000000E+01 0.  1.
         15    1    6    6    0    0 -0.52264448292E+01  0.75627591789E+01 -0.11641659020E+02  0.14939779306E+02  0.17770000000E+01 0. -1.
        -16    1    6    6    0    0 -0.36648267854E+02 -0.18653346535E+03 -0.13730637665E+03  0.23450132260E+03  0.00000000000E+00 0.  1.
<mgrwt>
<rscale>  2 0.24095743E+03</rscale>
<asrwt>0</asrwt>
<pdfrwt beam="1">  1       21 0.12610702E-01 0.24195819E+03</pdfrwt>
<pdfrwt beam="2">  1       21 0.22083835E+00 0.24195819E+03</pdfrwt>
<totfact> 0.51106192E+03</totfact>
</mgrwt>
</event>
<event>
12    2  0.4090627E-002  0.2102254E+03  0.7546771E-02  0.1141580E+00
         21   -1    0    0  503  502  0.00000000000E+00  0.00000000000E+00  0.34388225553E+03  0.34388225553E+03  0.00000000000E+00 0.  1.
         21   -1    0    0  501  503 -0.00000000000E+00 -0.00000000000E+00 -0.22365206334E+03  0.22365206334E+03  0.00000000000E+00 0. -1.
          6    2    1    2  501    0 -0.95194836521E+02 -0.68853955202E+02 -0.12561398495E+03  0.24406238683E+03  0.17316076750E+03 0.  0.
         24    2    3    3    0    0 -0.23921752172E+02 -0.94331897488E+02 -0.10746157041E+03  0.16608432421E+03  0.81026270576E+02 0.  0.
         -6    2    1    2    0  502  0.95194836521E+02  0.68853955202E+02  0.24584417714E+03  0.32347193204E+03  0.17433246209E+03 0.  0.
        -24    2    5    5    0    0  0.85785542269E+02 -0.20935035449E+02  0.14721702369E+03  0.18968103901E+03  0.80675953825E+02 0.  0.
          5    1    3    3  501    0 -0.71273084348E+02  0.25477942286E+02 -0.18152414544E+02  0.77978062617E+02  0.47000000000E+01 0. -1.
        -15    1    4    4    0    0  0.26249696718E+02 -0.53166000037E+02 -0.67534551841E+02  0.89887393772E+02  0.17770000000E+01 0.  1.
         16    1    4    4    0    0 -0.50171448891E+02 -0.41165897451E+02 -0.39927018568E+02  0.76196930440E+02  0.00000000000E+00 0. -1.
         -5    1    5    5    0  502  0.94092942519E+01  0.89788990651E+02  0.98627153447E+02  0.13379089303E+03  0.47000000000E+01 0.  1.
         15    1    6    6    0    0  0.61748364605E+02 -0.40377221164E+02  0.53929656297E+02  0.91404300105E+02  0.17770000000E+01 0. -1.
        -16    1    6    6    0    0  0.24037177663E+02  0.19442185715E+02  0.93287367392E+02  0.98276738908E+02  0.00000000000E+00 0.  1.
<mgrwt>
<rscale>  2 0.20998235E+03</rscale>
<asrwt>0</asrwt>
<pdfrwt beam="1">  1       21 0.52904962E-01 0.21022543E+03</pdfrwt>
<pdfrwt beam="2">  1       21 0.34408010E-01 0.21022543E+03</pdfrwt>
<totfact> 0.27289585E+04</totfact>
</mgrwt>
</event>
<event>
12    2  0.4090627E-002  0.1741867E+03  0.7546771E-02  0.1173633E+00
         21   -1    0    0  503  502  0.00000000000E+00  0.00000000000E+00  0.10951481765E+03  0.10951481765E+03  0.00000000000E+00 0. -1.
         21   -1    0    0  501  503 -0.00000000000E+00 -0.00000000000E+00 -0.29246587285E+03  0.29246587285E+03  0.00000000000E+00 0. -1.
          6    2    1    2  501    0  0.14486006384E+02  0.57425982177E+01 -0.13830479226E+03  0.22216325176E+03  0.17316313999E+03 0.  0.
         24    2    3    3    0    0 -0.90415926284E+01  0.46410733341E+02 -0.17993639324E+02  0.92918102326E+02  0.77937770800E+02 0.  0.
         -6    2    1    2    0  502 -0.14486006384E+02 -0.57425982177E+01 -0.44646262940E+02  0.17981743874E+03  0.17348833006E+03 0.  0.
        -24    2    5    5    0    0  0.14388328223E+02 -0.55862551843E+02 -0.60902816683E+02  0.11955051174E+03  0.85179358361E+02 0.  0.
          5    1    3    3  501    0  0.23527599013E+02 -0.40668135123E+02 -0.12031115294E+03  0.12924514943E+03  0.47000000000E+01 0. -1.
        -15    1    4    4    0    0 -0.43475557049E+02  0.28789694320E+02 -0.65719130713E+01  0.52586294129E+02  0.17770000000E+01 0.  1.
         16    1    4    4    0    0  0.34433964421E+02  0.17621039021E+02 -0.11421726252E+02  0.40331808198E+02  0.00000000000E+00 0. -1.
         -5    1    5    5    0  502 -0.28874334607E+02  0.50119953625E+02  0.16256553743E+02  0.60266927000E+02  0.47000000000E+01 0.  1.
         15    1    6    6    0    0 -0.19577884545E+02 -0.40147638430E+02 -0.68078858689E+02  0.81443324859E+02  0.17770000000E+01 0. -1.
        -16    1    6    6    0    0  0.33966212768E+02 -0.15714913413E+02  0.71760420054E+01  0.38107186885E+02  0.00000000000E+00 0.  1.
<mgrwt>
<rscale>  2 0.17410572E+03</rscale>
<asrwt>0</asrwt>
<pdfrwt beam="1">  1       21 0.16848434E-01 0.17418675E+03</pdfrwt>
<pdfrwt beam="2">  1       21 0.44994749E-01 0.17418675E+03</pdfrwt>
<totfact> 0.15123126E+05</totfact>
</mgrwt>
</event>
<event>
12    2  0.4090627E-002  0.2061126E+03  0.7546771E-02  0.1145698E+00
         21   -1    0    0  503  502  0.00000000000E+00  0.00000000000E+00  0.11114769588E+03  0.11114769588E+03  0.00000000000E+00 0. -1.
         21   -1    0    0  501  503 -0.00000000000E+00 -0.00000000000E+00 -0.67177397456E+03  0.67177397456E+03  0.00000000000E+00 0. -1.
          6    2    1    2  501    0 -0.71176673540E+01  0.11164532750E+03 -0.53943352871E+03  0.57572241164E+03  0.16718978146E+03 0.  0.
         24    2    3    3    0    0  0.38354965839E+02  0.26205976418E+02 -0.16454655306E+03  0.18851448611E+03  0.79399538684E+02 0.  0.
         -6    2    1    2    0  502  0.71176673540E+01 -0.11164532750E+03 -0.21192749966E+02  0.20719925880E+03  0.17310996463E+03 0.  0.
        -24    2    5    5    0    0 -0.48814120912E+02 -0.35687072280E+02  0.24999142640E+02  0.10206219389E+03  0.78328467119E+02 0.  0.
          5    1    3    3  501    0 -0.45472633193E+02  0.85439351086E+02 -0.37488697565E+03  0.38720792553E+03  0.47000000000E+01 0. -1.
        -15    1    4    4    0    0 -0.54485796141E+01  0.23955860526E+02 -0.79373407944E+01  0.25879130225E+02  0.17770000000E+01 0.  1.
         16    1    4    4    0    0  0.43803545453E+02  0.22501158928E+01 -0.15660921227E+03  0.16263535588E+03  0.00000000000E+00 0. -1.
         -5    1    5    5    0  502  0.55931788266E+02 -0.75958255224E+02 -0.46191892606E+02  0.10513706491E+03  0.47000000000E+01 0.  1.
         15    1    6    6    0    0 -0.52415691168E+00 -0.42441424018E+02  0.31478604250E+02  0.52873523314E+02  0.17770000000E+01 0. -1.
        -16    1    6    6    0    0 -0.48289964000E+02  0.67543517378E+01 -0.64794616103E+01  0.49188670578E+02  0.00000000000E+00 0.  1.
<mgrwt>
<rscale>  2 0.20486466E+03</rscale>
<asrwt>0</asrwt>
<pdfrwt beam="1">  1       21 0.17099645E-01 0.20611259E+03</pdfrwt>
<pdfrwt beam="2">  1       21 0.10334984E+00 0.20611259E+03</pdfrwt>
<totfact> 0.23232401E+04</totfact>
</mgrwt>
</event>
<event>
12    2  0.4090627E-002  0.1769951E+03  0.7546771E-02  0.1171450E+00
         21   -1    0    0  501  502  0.00000000000E+00  0.00000000000E+00  0.18371277525E+03  0.18371277525E+03  0.00000000000E+00 0. -1.
         21   -1    0    0  502  503 -0.00000000000E+00 -0.00000000000E+00 -0.21012441997E+03  0.21012441997E+03  0.00000000000E+00 0. -1.
         -6    2    1    2    0  503 -0.34504786416E+02 -0.97422490872E+01 -0.10149278123E+03  0.20157580234E+03  0.17043041907E+03 0.  0.
        -24    2    3    3    0    0 -0.35869404294E+02  0.54036706054E+02 -0.38618652397E+02  0.11188263996E+03  0.82581747652E+02 0.  0.
          6    2    1    2  501    0  0.34504786416E+02  0.97422490872E+01  0.75081136520E+02  0.19226139288E+03  0.17332563119E+03 0.  0.
         24    2    5    5    0    0 -0.39928058151E+02  0.26155766264E+02  0.68264660668E+02  0.11559193195E+03  0.80143976060E+02 0.  0.
          5    1    5    5  501    0  0.74432844567E+02 -0.16413517176E+02  0.68164758519E+01  0.76669460931E+02  0.47000000000E+01 0. -1.
        -15    1    6    6    0    0 -0.20369212259E+02  0.42524061788E+02  0.50835693114E+01  0.47457360282E+02  0.17770000000E+01 0.  1.
         16    1    6    6    0    0 -0.19558845892E+02 -0.16368295524E+02  0.63181091357E+02  0.68134571665E+02  0.00000000000E+00 0. -1.
         -5    1    3    3    0  503  0.13646178779E+01 -0.63778955141E+02 -0.62874128838E+02  0.89693162381E+02  0.47000000000E+01 0.  1.
         15    1    4    4    0    0 -0.37404321049E+02 -0.10170033395E+02 -0.25208597417E+02  0.46272496422E+02  0.17770000000E+01 0. -1.
        -16    1    4    4    0    0  0.15349167554E+01  0.64206739449E+02 -0.13410054980E+02  0.65610143535E+02  0.00000000000E+00 0.  1.
<mgrwt>
<rscale>  2 0.17628226E+03</rscale>
<asrwt>0</asrwt>
<pdfrwt beam="1">  1       21 0.28263504E-01 0.17699510E+03</pdfrwt>
<pdfrwt beam="2">  1       21 0.32326834E-01 0.17699510E+03</pdfrwt>
<totfact> 0.11078301E+05</totfact>
</mgrwt>
</event>
<event>
12    2  0.4090627E-002  0.1775054E+03  0.7546771E-02  0.1170516E+00
         21   -1    0    0  501  502  0.00000000000E+00  0.00000000000E+00  0.64652368777E+02  0.64652368777E+02  0.00000000000E+00 0. -1.
         21   -1    0    0  502  503 -0.00000000000E+00 -0.00000000000E+00 -0.55083285758E+03  0.55083285758E+03  0.00000000000E+00 0. -1.
         -6    2    1    2    0  503  0.83494696240E+01  0.33906015027E+02 -0.35073058315E+03  0.39309043878E+03  0.17403683404E+03 0.  0.
        -24    2    3    3    0    0  0.48414255636E+02 -0.63644557299E+01 -0.30446977689E+03  0.31968028901E+03  0.84316046501E+02 0.  0.
          6    2    1    2  501    0 -0.83494696240E+01 -0.33906015027E+02 -0.13544990565E+03  0.22239478758E+03  0.17289717494E+03 0.  0.
         24    2    5    5    0    0  0.39804780712E+02  0.29286934724E+02 -0.60760603904E+02  0.11324918520E+03  0.81800867037E+02 0.  0.
          5    1    5    5  501    0 -0.48154250336E+02 -0.63192949751E+02 -0.74689301747E+02  0.10914560238E+03  0.47000000000E+01 0. -1.
        -15    1    6    6    0    0  0.23898698156E+02 -0.98147076203E+01 -0.65822660312E+02  0.70733702001E+02  0.17770000000E+01 0.  1.
         16    1    6    6    0    0  0.15906082556E+02  0.39101642345E+02  0.50620564083E+01  0.42515483196E+02  0.00000000000E+00 0. -1.
         -5    1    3    3    0  503 -0.40064786012E+02  0.40270470757E+02 -0.46260806269E+02  0.73410149774E+02  0.47000000000E+01 0.  1.
         15    1    4    4    0    0  0.31362416107E+01  0.35246560754E+02 -0.12746882537E+03  0.13230122912E+03  0.17770000000E+01 0. -1.
        -16    1    4    4    0    0  0.45278014025E+02 -0.41611016484E+02 -0.17700095151E+03  0.18737905989E+03  0.00000000000E+00 0.  1.
<mgrwt>
<rscale>  2 0.17722538E+03</rscale>
<asrwt>0</asrwt>
<pdfrwt beam="1">  1       21 0.99465179E-02 0.17750536E+03</pdfrwt>
<pdfrwt beam="2">  1       21 0.84743520E-01 0.17750536E+03</pdfrwt>
<totfact> 0.99439495E+04</totfact>
</mgrwt>
</event>
<event>
12    2  0.4090627E-002  0.1911718E+03  0.7546771E-02  0.1157587E+00
         21   -1    0    0  503  502  0.00000000000E+00  0.00000000000E+00  0.63178719742E+03  0.63178719742E+03  0.00000000000E+00 0. -1.
         21   -1    0    0  501  503 -0.00000000000E+00 -0.00000000000E+00 -0.57743097044E+02  0.57743097044E+02  0.00000000000E+00 0. -1.
          6    2    1    2  501    0  0.13036021341E+02  0.77400720058E+02  0.27082513080E+03  0.33150097022E+03  0.17431532482E+03 0.  0.
         24    2    3    3    0    0  0.61823110180E+02  0.82953708718E+02  0.23874409420E+03  0.27265966985E+03  0.81493179480E+02 0.  0.
         -6    2    1    2    0  502 -0.13036021341E+02 -0.77400720058E+02  0.30321896958E+03  0.35802932425E+03  0.17344291335E+03 0.  0.
        -24    2    5    5    0    0 -0.41493250360E+02 -0.60377472921E+02  0.30578102389E+03  0.32443975818E+03  0.79949940928E+02 0.  0.
          5    1    3    3  501    0 -0.48787088839E+02 -0.55529886600E+01  0.32081036598E+02  0.58841300374E+02  0.47000000000E+01 0. -1.
        -15    1    4    4    0    0  0.76328218763E+01  0.32397887307E+02  0.16418145269E+03  0.16753086345E+03  0.17770000000E+01 0.  1.
         16    1    4    4    0    0  0.54190288304E+02  0.50555821411E+02  0.74562641509E+02  0.10512880639E+03  0.00000000000E+00 0. -1.
         -5    1    5    5    0  502  0.28457229020E+02 -0.17023247137E+02 -0.25620543069E+01  0.33589566071E+02  0.47000000000E+01 0.  1.
         15    1    6    6    0    0  0.19777156289E+02 -0.36333533087E+02  0.14244564520E+03  0.14834143420E+03  0.17770000000E+01 0. -1.
        -16    1    6    6    0    0 -0.61270406649E+02 -0.24043939834E+02  0.16333537869E+03  0.17609832397E+03  0.00000000000E+00 0.  1.
<mgrwt>
<rscale>  2 0.19097266E+03</rscale>
<asrwt>0</asrwt>
<pdfrwt beam="1">  1       21 0.97198025E-01 0.19117176E+03</pdfrwt>
<pdfrwt beam="2">  1       21 0.88835538E-02 0.19117176E+03</pdfrwt>
<totfact> 0.87797366E+04</totfact>
</mgrwt>
</event>
<event>
12    2  0.4090627E-002  0.1871474E+03  0.7546771E-02  0.1161893E+00
         21   -1    0    0  501  502  0.00000000000E+00  0.00000000000E+00  0.69532961469E+02  0.69532961469E+02  0.00000000000E+00 0.  1.
         21   -1    0    0  502  503 -0.00000000000E+00 -0.00000000000E+00 -0.61171180408E+03  0.61171180408E+03  0.00000000000E+00 0.  1.
         -6    2    1    2    0  503  0.67107702881E+02  0.18966816814E+02 -0.42256311563E+03  0.46215121825E+03  0.17366916225E+03 0.  0.
        -24    2    3    3    0    0  0.99872449463E+02  0.11816682673E+01 -0.21381951794E+03  0.25005260981E+03  0.82653608019E+02 0.  0.
          6    2    1    2  501    0 -0.67107702881E+02 -0.18966816814E+02 -0.11961572698E+03  0.21909354729E+03  0.16979657358E+03 0.  0.
         24    2    5    5    0    0 -0.62197855658E+01 -0.70660419448E+02 -0.73173127337E+02  0.12658099631E+03  0.75079034711E+02 0.  0.
          5    1    5    5  501    0 -0.60887917316E+02  0.51693602634E+02 -0.46442599644E+02  0.92512550986E+02  0.47000000000E+01 0. -1.
        -15    1    6    6    0    0 -0.12158679604E+02 -0.43405595852E+02  0.32479961698E+01  0.45228159913E+02  0.17770000000E+01 0.  1.
         16    1    6    6    0    0  0.59388940379E+01 -0.27254823596E+02 -0.76421123506E+02  0.81352836395E+02  0.00000000000E+00 0. -1.
         -5    1    3    3    0  503 -0.32764746581E+02  0.17785148547E+02 -0.20874359769E+03  0.21209860844E+03  0.47000000000E+01 0.  1.
         15    1    4    4    0    0  0.29063330126E+02 -0.37108299993E+02 -0.58825218082E+02  0.75400710194E+02  0.17770000000E+01 0. -1.
        -16    1    4    4    0    0  0.70809119337E+02  0.38289968260E+02 -0.15499429986E+03  0.17465189961E+03  0.00000000000E+00 0.  1.
<mgrwt>
<rscale>  2 0.18624391E+03</rscale>
<asrwt>0</asrwt>
<pdfrwt beam="1">  1       21 0.10697378E-01 0.18714743E+03</pdfrwt>
<pdfrwt beam="2">  1       21 0.94109513E-01 0.18714743E+03</pdfrwt>
<totfact> 0.68366437E+04</totfact>
</mgrwt>
</event>
<event>
12    2  0.4090627E-002  0.1749134E+03  0.7546771E-02  0.1172891E+00
         21   -1    0    0  501  502  0.00000000000E+00  0.00000000000E+00  0.30197781061E+03  0.30197781061E+03  0.00000000000E+00 0.  1.
         21   -1    0    0  502  503 -0.00000000000E+00 -0.00000000000E+00 -0.16242004115E+04  0.16242004115E+04  0.00000000000E+00 0.  1.
         -6    2    1    2    0  503  0.22597779768E+02 -0.18118962187E+02 -0.15936959665E+04  0.16032347477E+04  0.17220878641E+03 0.  0.
        -24    2    3    3    0    0 -0.83142337869E+01  0.35220275257E+02 -0.51838521972E+03  0.52614797358E+03  0.82455198739E+02 0.  0.
          6    2    1    2  501    0 -0.22597779768E+02  0.18118962187E+02  0.27147336562E+03  0.32294347440E+03  0.17249853035E+03 0.  0.
         24    2    5    5    0    0 -0.75386244960E+02 -0.15250630974E+02  0.18803771250E+03  0.21861826164E+03  0.80747107237E+02 0.  0.
          5    1    5    5  501    0  0.52788465192E+02  0.33369593161E+02  0.83435653127E+02  0.10432521276E+03  0.47000000000E+01 0. -1.
        -15    1    6    6    0    0 -0.35153723541E+02  0.28559860343E+02  0.11983798667E+03  0.12812396606E+03  0.17770000000E+01 0.  1.
         16    1    6    6    0    0 -0.40232521419E+02 -0.43810491317E+02  0.68199725830E+02  0.90494295579E+02  0.00000000000E+00 0. -1.
         -5    1    3    3    0  503  0.30912013555E+02 -0.53339237444E+02 -0.10753107468E+04  0.10770867741E+04  0.47000000000E+01 0.  1.
         15    1    4    4    0    0 -0.39711044782E+02  0.29073568680E+02 -0.19264302615E+03  0.19883845888E+03  0.17770000000E+01 0. -1.
        -16    1    4    4    0    0  0.31396810995E+02  0.61467065774E+01 -0.32574219357E+03  0.32730951470E+03  0.00000000000E+00 0.  1.
<mgrwt>
<rscale>  2 0.17484193E+03</rscale>
<asrwt>0</asrwt>
<pdfrwt beam="1">  1       21 0.46458124E-01 0.17491341E+03</pdfrwt>
<pdfrwt beam="2">  1       21 0.24987699E+00 0.17491341E+03</pdfrwt>
<totfact> 0.30331636E+02</totfact>
</mgrwt>
</event>
<event>
12    2  0.4090627E-002  0.2979953E+03  0.7546771E-02  0.1086348E+00
         21   -1    0    0  501  502  0.00000000000E+00  0.00000000000E+00  0.51772691399E+03  0.51772691399E+03  0.00000000000E+00 0. -1.
         21   -1    0    0  502  503 -0.00000000000E+00 -0.00000000000E+00 -0.17107083946E+03  0.17107083946E+03  0.00000000000E+00 0. -1.
         -6    2    1    2    0  503  0.22600007021E+03  0.85457210334E+02  0.17088791915E+03  0.34351691937E+03  0.17441968481E+03 0.  0.
        -24    2    3    3    0    0  0.11948171120E+03  0.70108872496E+02  0.24393715183E+02  0.16168080064E+03  0.79715084142E+02 0.  0.
          6    2    1    2  501    0 -0.22600007021E+03 -0.85457210334E+02  0.17576815537E+03  0.34528083408E+03  0.17304751777E+03 0.  0.
         24    2    5    5    0    0 -0.72627589225E+02 -0.69118436413E+02  0.13388216544E+03  0.18538524437E+03  0.79944541011E+02 0.  0.
          5    1    5    5  501    0 -0.15337248098E+03 -0.16338773920E+02  0.41885989930E+02  0.15989558971E+03  0.47000000000E+01 0. -1.
        -15    1    6    6    0    0  0.13967672942E+01  0.55841496330E+01  0.51345277982E+02  0.51697475625E+02  0.17770000000E+01 0.  1.
         16    1    6    6    0    0 -0.74024356519E+02 -0.74702586046E+02  0.82536887462E+02  0.13368776875E+03  0.00000000000E+00 0. -1.
         -5    1    3    3    0  503  0.10651835900E+03  0.15348337837E+02  0.14649420397E+03  0.18183611873E+03  0.47000000000E+01 0.  1.
         15    1    4    4    0    0  0.12598788641E+03  0.51788892103E+02  0.83665763769E+01  0.13648514277E+03  0.17770000000E+01 0. -1.
        -16    1    4    4    0    0 -0.65061752019E+01  0.18319980394E+02  0.16027138806E+02  0.25195657874E+02  0.00000000000E+00 0.  1.
<mgrwt>
<rscale>  2 0.29779482E+03</rscale>
<asrwt>0</asrwt>
<pdfrwt beam="1">  1       21 0.79650294E-01 0.29799529E+03</pdfrwt>
<pdfrwt beam="2">  1       21 0.26318591E-01 0.29799529E+03</pdfrwt>
<totfact> 0.18068107E+04</totfact>
</mgrwt>
</event>
<event>
12    2  0.4090627E-002  0.1807646E+03  0.7546771E-02  0.1168335E+00
         21   -1    0    0  503  502  0.00000000000E+00  0.00000000000E+00  0.29634398591E+03  0.29634398591E+03  0.00000000000E+00 0. -1.
         21   -1    0    0  501  503 -0.00000000000E+00 -0.00000000000E+00 -0.11305577751E+03  0.11305577751E+03  0.00000000000E+00 0. -1.
          6    2    1    2  501    0 -0.25174997457E+02  0.20000627474E+02  0.45999795508E+02  0.18652565399E+03  0.17788207559E+03 0.  0.
         24    2    3    3    0    0  0.97476225002E+00  0.97066407345E+01 -0.45102829528E+02  0.91071191636E+02  0.78514506167E+02 0.  0.
         -6    2    1    2    0  502  0.25174997457E+02 -0.20000627474E+02  0.13728841288E+03  0.22287410943E+03  0.17260056415E+03 0.  0.
        -24    2    5    5    0    0 -0.50385126639E+02 -0.19115628005E+02  0.94681118921E+02  0.13599725937E+03  0.81404373681E+02 0.  0.
          5    1    3    3  501    0 -0.26149759707E+02  0.10293986739E+02  0.91102625036E+02  0.95454462359E+02  0.47000000000E+01 0. -1.
        -15    1    4    4    0    0 -0.14195122961E+02  0.25506954796E+02  0.10686330580E+02  0.31136179103E+02  0.17770000000E+01 0.  1.
         16    1    4    4    0    0  0.15169885211E+02 -0.15800314062E+02 -0.55789160108E+02  0.59935012533E+02  0.00000000000E+00 0. -1.
         -5    1    5    5    0  502  0.75560124096E+02 -0.88499946884E+00  0.42607293963E+02  0.86876850060E+02  0.47000000000E+01 0.  1.
         15    1    6    6    0    0 -0.34049041271E+01 -0.16153391818E+01 -0.14911104012E+02  0.15482294554E+02  0.17770000000E+01 0. -1.
        -16    1    6    6    0    0 -0.46980222512E+02 -0.17500288823E+02  0.10959222293E+03  0.12051496481E+03  0.00000000000E+00 0.  1.
<mgrwt>
<rscale>  2 0.17945166E+03</rscale>
<asrwt>0</asrwt>
<pdfrwt beam="1">  1       21 0.45591382E-01 0.18076459E+03</pdfrwt>
<pdfrwt beam="2">  1       21 0.17393197E-01 0.18076459E+03</pdfrwt>
<totfact> 0.13853175E+05</totfact>
</mgrwt>
</event>
<event>
12    2  0.4090627E-002  0.1907485E+03  0.7546771E-02  0.1159662E+00
         21   -1    0    0  503  502  0.00000000000E+00  0.00000000000E+00  0.46030351960E+03  0.46030351960E+03  0.00000000000E+00 0.  1.
         21   -1    0    0  501  503 -0.00000000000E+00 -0.00000000000E+00 -0.13228320020E+03  0.13228320020E+03  0.00000000000E+00 0.  1.
          6    2    1    2  501    0  0.15658748712E+02 -0.61204161486E+02 -0.27692958565E+02  0.19274823024E+03  0.17998287283E+03 0.  0.
         24    2    3    3    0    0 -0.44586929683E+02 -0.43919254645E+02  0.31236529514E+02  0.10659090707E+03  0.80430127862E+02 0.  0.
         -6    2    1    2    0  502 -0.15658748712E+02  0.61204161486E+02  0.35571327796E+03  0.39983848956E+03  0.17131180876E+03 0.  0.
        -24    2    5    5    0    0  0.91669186798E+01 -0.29267156696E+02  0.19952427071E+03  0.21757914368E+03  0.81179740710E+02 0.  0.
          5    1    3    3  501    0  0.60245678395E+02 -0.17284906841E+02 -0.58929488079E+02  0.86157323165E+02  0.47000000000E+01 0. -1.
        -15    1    4    4    0    0 -0.58959092542E+01 -0.44070501716E+02 -0.14390310795E+02  0.46767613166E+02  0.17770000000E+01 0.  1.
         16    1    4    4    0    0 -0.38691020429E+02  0.15124707151E+00  0.45626840309E+02  0.59823293909E+02  0.00000000000E+00 0. -1.
         -5    1    5    5    0  502 -0.24825667392E+02  0.90471318182E+02  0.15618900725E+03  0.18225934588E+03  0.47000000000E+01 0.  1.
         15    1    6    6    0    0  0.15936942449E+02 -0.37013756652E+02  0.37023709329E+02  0.54753238238E+02  0.17770000000E+01 0. -1.
        -16    1    6    6    0    0 -0.67700237694E+01  0.77465999555E+01  0.16250056139E+03  0.16282590544E+03  0.00000000000E+00 0.  1.
<mgrwt>
<rscale>  2 0.18867514E+03</rscale>
<asrwt>0</asrwt>
<pdfrwt beam="1">  1       21 0.70815925E-01 0.19074847E+03</pdfrwt>
<pdfrwt beam="2">  1       21 0.20351262E-01 0.19074847E+03</pdfrwt>
<totfact> 0.40395737E+04</totfact>
</mgrwt>
</event>
<event>
12    2  0.4090627E-002  0.2142357E+03  0.7546771E-02  0.1138326E+00
         21   -1    0    0  501  502  0.00000000000E+00  0.00000000000E+00  0.22419875903E+03  0.22419875903E+03  0.00000000000E+00 0.  1.
         21   -1    0    0  502  503 -0.00000000000E+00 -0.00000000000E+00 -0.42628809312E+03  0.42628809312E+03  0.00000000000E+00 0. -1.
         -6    2    1    2    0  503  0.82388171104E+02 -0.97439787837E+02 -0.33575680349E+03  0.39828329515E+03  0.17208901509E+03 0.  0.
        -24    2    3    3    0    0  0.40216837194E+02 -0.65587923827E+02 -0.80149632722E+02  0.13722759536E+03  0.80549857587E+02 0.  0.
          6    2    1    2  501    0 -0.82388171104E+02  0.97439787837E+02  0.13366746939E+03  0.25220355700E+03  0.17163134561E+03 0.  0.
         24    2    5    5    0    0 -0.10650565738E+03  0.24683965967E+02  0.98166502319E+02  0.16760171645E+03  0.80628282570E+02 0.  0.
          5    1    5    5  501    0  0.24117486277E+02  0.72755821870E+02  0.35500967074E+02  0.84601840544E+02  0.47000000000E+01 0. -1.
        -15    1    6    6    0    0 -0.62419264042E+02  0.36100044174E+02  0.98469083081E+02  0.12206021368E+03  0.17770000000E+01 0.  1.
         16    1    6    6    0    0 -0.44086393338E+02 -0.11416078206E+02 -0.30258076182E+00  0.45541502767E+02  0.00000000000E+00 0. -1.
         -5    1    3    3    0  503  0.42171333910E+02 -0.31851864010E+02 -0.25560717077E+03  0.26105569979E+03  0.47000000000E+01 0.  1.
         15    1    4    4    0    0  0.44563675037E+02 -0.17855217032E+02 -0.74938418185E+02  0.89014909747E+02  0.17770000000E+01 0. -1.
        -16    1    4    4    0    0 -0.43468378435E+01 -0.47732706795E+02 -0.52112145372E+01  0.48212685615E+02  0.00000000000E+00 0.  1.
<mgrwt>
<rscale>  2 0.21414382E+03</rscale>
<asrwt>0</asrwt>
<pdfrwt beam="1">  1       21 0.34492117E-01 0.21423574E+03</pdfrwt>
<pdfrwt beam="2">  1       21 0.65582783E-01 0.21423574E+03</pdfrwt>
<totfact> 0.17088956E+04</totfact>
</mgrwt>
</event>
<event>
12    2  0.4090627E-002  0.1935268E+03  0.7546771E-02  0.1157239E+00
         21   -1    0    0  503  502  0.00000000000E+00  0.00000000000E+00  0.10053659392E+04  0.10053659392E+04  0.00000000000E+00 0.  1.
         21   -1    0    0  501  503 -0.00000000000E+00 -0.00000000000E+00 -0.88607510117E+02  0.88607510117E+02  0.00000000000E+00 0.  1.
          6    2    1    2  501    0  0.63226901617E+02  0.82522049239E+01  0.39626877914E+02  0.19754213243E+03  0.18272072860E+03 0.  0.
         24    2    3    3    0    0 -0.22958044506E+02  0.50641472790E+02  0.15782861558E+01  0.94128012009E+02  0.75933925776E+02 0.  0.
         -6    2    1    2    0  502 -0.63226901617E+02 -0.82522049239E+01  0.87713155116E+03  0.89643131687E+03  0.17367673379E+03 0.  0.
        -24    2    5    5    0    0 -0.34118274179E+01 -0.48953421431E+02  0.67691523059E+03  0.68349213037E+03  0.80865226377E+02 0.  0.
          5    1    3    3  501    0  0.86184946123E+02 -0.42389267866E+02  0.38048591758E+02  0.10341412042E+03  0.47000000000E+01 0. -1.
        -15    1    4    4    0    0  0.26711908848E+02  0.62377055019E+01  0.76796009410E+00  0.27498773353E+02  0.17770000000E+01 0.  1.
         16    1    4    4    0    0 -0.49669953354E+02  0.44403767288E+02  0.81032606167E+00  0.66629238656E+02  0.00000000000E+00 0. -1.
         -5    1    5    5    0  502 -0.59815074199E+02  0.40701216507E+02  0.20021632056E+03  0.21293918650E+03  0.47000000000E+01 0.  1.
         15    1    6    6    0    0 -0.12220626709E+02 -0.56171053128E-01  0.13802286952E+02  0.18520467771E+02  0.17770000000E+01 0. -1.
        -16    1    6    6    0    0  0.88087992914E+01 -0.48897250378E+02  0.66311294364E+03  0.66497166260E+03  0.00000000000E+00 0.  1.
<mgrwt>
<rscale>  2 0.19136195E+03</rscale>
<asrwt>0</asrwt>
<pdfrwt beam="1">  1       21 0.15467168E+00 0.19352675E+03</pdfrwt>
<pdfrwt beam="2">  1       21 0.13631925E-01 0.19352675E+03</pdfrwt>
<totfact> 0.12852895E+04</totfact>
</mgrwt>
</event>
<event>
12    2  0.4090627E-002  0.1742097E+03  0.7546771E-02  0.1173772E+00
         21   -1    0    0  501  502  0.00000000000E+00  0.00000000000E+00  0.12617212598E+03  0.12617212598E+03  0.00000000000E+00 0.  1.
         21   -1    0    0  502  503 -0.00000000000E+00 -0.00000000000E+00 -0.24071822070E+03  0.24071822070E+03  0.00000000000E+00 0.  1.
         -6    2    1    2    0  503 -0.14055196752E+01  0.26776443343E+02 -0.42574423964E+02  0.17839915586E+03  0.17115701514E+03 0.  0.
        -24    2    3    3    0    0  0.53879375278E+02  0.16918996718E+02  0.13426623391E+02  0.98952342402E+02  0.80137708483E+02 0.  0.
          6    2    1    2  501    0  0.14055196752E+01 -0.26776443343E+02 -0.71971670754E+02  0.18849119081E+03  0.17213382648E+03 0.  0.
         24    2    5    5    0    0 -0.46619218306E+02 -0.49217270510E+02 -0.46274993843E+02  0.12939486786E+03  0.10002982326E+03 0.  0.
          5    1    5    5  501    0  0.48024737981E+02  0.22440827166E+02 -0.25696676911E+02  0.59096322951E+02  0.47000000000E+01 0. -1.
        -15    1    6    6    0    0 -0.16915682742E+02 -0.69036379399E+02 -0.58056941433E+02  0.91792854736E+02  0.17770000000E+01 0.  1.
         16    1    6    6    0    0 -0.29703535564E+02  0.19819108889E+02  0.11781947590E+02  0.37602013126E+02  0.00000000000E+00 0. -1.
         -5    1    3    3    0  503 -0.55284894954E+02  0.98574466255E+01 -0.56001047354E+02  0.79446813459E+02  0.47000000000E+01 0.  1.
         15    1    4    4    0    0 -0.11498487067E+01 -0.19962076750E+02  0.24621741327E+02  0.31767822324E+02  0.17770000000E+01 0. -1.
        -16    1    4    4    0    0  0.55029223985E+02  0.36881073468E+02 -0.11195117936E+02  0.67184520078E+02  0.00000000000E+00 0.  1.
<mgrwt>
<rscale>  2 0.17396789E+03</rscale>
<asrwt>0</asrwt>
<pdfrwt beam="1">  1       21 0.19411097E-01 0.17420967E+03</pdfrwt>
<pdfrwt beam="2">  1       21 0.37033572E-01 0.17420967E+03</pdfrwt>
<totfact> 0.17260109E+05</totfact>
</mgrwt>
</event>
<event>
12    2  0.4090627E-002  0.1850419E+03  0.7546771E-02  0.1163119E+00
         21   -1    0    0  503  502  0.00000000000E+00  0.00000000000E+00  0.49658871687E+02  0.49658871687E+02  0.00000000000E+00 0. -1.
         21   -1    0    0  501  503 -0.00000000000E+00 -0.00000000000E+00 -0.73600890142E+03  0.73600890142E+03  0.00000000000E+00 0. -1.
          6    2    1    2  501    0 -0.60492634502E+02  0.26080462291E+02 -0.24221403408E+03  0.30452610688E+03  0.17242088656E+03 0.  0.
         24    2    3    3    0    0 -0.35023651138E+01  0.50452971649E+02 -0.79677357049E+02  0.13050837388E+03  0.90145357712E+02 0.  0.
         -6    2    1    2    0  502  0.60492634502E+02 -0.26080462291E+02 -0.44413599566E+03  0.48114166624E+03  0.17291897237E+03 0.  0.
        -24    2    5    5    0    0  0.10018971230E+03 -0.21204983081E+02 -0.39982609422E+03  0.42126608149E+03  0.84359801065E+02 0.  0.
          5    1    3    3  501    0 -0.56990269388E+02 -0.24372509358E+02 -0.16253667703E+03  0.17401773300E+03  0.47000000000E+01 0. -1.
        -15    1    4    4    0    0 -0.93666801450E+01  0.74316265016E+02 -0.73957293930E+02  0.10527811262E+03  0.17770000000E+01 0.  1.
         16    1    4    4    0    0  0.58643150312E+01 -0.23863293366E+02 -0.57200631190E+01  0.25230261258E+02  0.00000000000E+00 0. -1.
         -5    1    5    5    0  502 -0.39697077795E+02 -0.48754792104E+01 -0.44309901436E+02  0.59875584742E+02  0.47000000000E+01 0.  1.
         15    1    6    6    0    0  0.39147299930E+02  0.88746843327E+01 -0.28477733089E+03  0.28759790860E+03  0.17770000000E+01 0. -1.
        -16    1    6    6    0    0  0.61042412368E+02 -0.30079667414E+02 -0.11504876333E+03  0.13366817289E+03  0.00000000000E+00 0.  1.
<mgrwt>
<rscale>  2 0.18492549E+03</rscale>
<asrwt>0</asrwt>
<pdfrwt beam="1">  1       21 0.76398264E-02 0.18504194E+03</pdfrwt>
<pdfrwt beam="2">  1       21 0.11323214E+00 0.18504194E+03</pdfrwt>
<totfact> 0.79420456E+04</totfact>
</mgrwt>
</event>
<event>
12    2  0.4090627E-002  0.3660484E+03  0.7546771E-02  0.1056345E+00
         21   -1    0    0  501  502  0.00000000000E+00  0.00000000000E+00  0.24939173490E+03  0.24939173490E+03  0.00000000000E+00 0. -1.
         21   -1    0    0  502  503 -0.00000000000E+00 -0.00000000000E+00 -0.55627065160E+03  0.55627065160E+03  0.00000000000E+00 0.  1.
         -6    2    1    2    0  503  0.31871663233E+03 -0.48862300493E+02 -0.23193425969E+03  0.43334158413E+03  0.17327322814E+03 0.  0.
        -24    2    3    3    0    0  0.22362729480E+03 -0.54300049963E+02 -0.23386837986E+03  0.33796138676E+03  0.81029731799E+02 0.  0.
          6    2    1    2  501    0 -0.31871663233E+03  0.48862300493E+02 -0.74944657018E+02  0.37232080236E+03  0.17040616809E+03 0.  0.
         24    2    5    5    0    0 -0.10394081777E+03  0.66410320671E+02 -0.50495328688E+02  0.15539583103E+03  0.79900324105E+02 0.  0.
          5    1    5    5  501    0 -0.21477581456E+03 -0.17548020177E+02 -0.24449328330E+02  0.21692497133E+03  0.47000000000E+01 0. -1.
        -15    1    6    6    0    0  0.14952777654E+01 -0.12779011031E+02 -0.12836427947E+02  0.18261177124E+02  0.17770000000E+01 0.  1.
         16    1    6    6    0    0 -0.10543609553E+03  0.79189331702E+02 -0.37658900740E+02  0.13713465391E+03  0.00000000000E+00 0. -1.
         -5    1    3    3    0  503  0.95089337526E+02  0.54377494693E+01  0.19341201715E+01  0.95380197375E+02  0.47000000000E+01 0.  1.
         15    1    4    4    0    0  0.84014028815E+02  0.68984140131E+01 -0.46064423197E+02  0.96078270004E+02  0.17770000000E+01 0. -1.
        -16    1    4    4    0    0  0.13961326599E+03 -0.61198463976E+02 -0.18780395666E+03  0.24188311676E+03  0.00000000000E+00 0.  1.
<mgrwt>
<rscale>  2 0.36571083E+03</rscale>
<asrwt>0</asrwt>
<pdfrwt beam="1">  1       21 0.38367960E-01 0.36604840E+03</pdfrwt>
<pdfrwt beam="2">  1       21 0.85580099E-01 0.36604840E+03</pdfrwt>
<totfact> 0.70415477E+03</totfact>
</mgrwt>
</event>
<event>
12    2  0.4090627E-002  0.1905753E+03  0.7546771E-02  0.1158354E+00
         21   -1    0    0  503  502  0.00000000000E+00  0.00000000000E+00  0.76342104091E+02  0.76342104091E+02  0.00000000000E+00 0.  1.
         21   -1    0    0  501  503 -0.00000000000E+00 -0.00000000000E+00 -0.48379617518E+03  0.48379617518E+03  0.00000000000E+00 0.  1.
          6    2    1    2  501    0 -0.19429692712E+02  0.74754000731E+02 -0.15760389003E+03  0.24590261171E+03  0.17223076006E+03 0.  0.
         24    2    3    3    0    0  0.48335645243E+02  0.13145785658E+02 -0.10029442000E+03  0.13776298647E+03  0.80065744717E+02 0.  0.
         -6    2    1    2    0  502  0.19429692712E+02 -0.74754000731E+02 -0.24985018106E+03  0.31423566756E+03  0.17422189359E+03 0.  0.
        -24    2    5    5    0    0  0.51232493302E+02 -0.62886521096E+02 -0.78883297580E+02  0.13986818078E+03  0.82225607033E+02 0.  0.
          5    1    3    3  501    0 -0.67765337955E+02  0.61608215073E+02 -0.57309470035E+02  0.10813962525E+03  0.47000000000E+01 0. -1.
        -15    1    4    4    0    0  0.44816225748E+02 -0.27786807537E+02 -0.63994911210E+02  0.82940383127E+02  0.17770000000E+01 0.  1.
         16    1    4    4    0    0  0.35194194945E+01  0.40932593195E+02 -0.36299508785E+02  0.54822603342E+02  0.00000000000E+00 0. -1.
         -5    1    5    5    0  502 -0.31802800590E+02 -0.11867479635E+02 -0.17096688348E+03  0.17436748678E+03  0.47000000000E+01 0.  1.
         15    1    6    6    0    0  0.67146573746E+02 -0.25880195797E+02 -0.65767507949E+02  0.97503690859E+02  0.17770000000E+01 0. -1.
        -16    1    6    6    0    0 -0.15914080445E+02 -0.37006325299E+02 -0.13115789632E+02  0.42364489920E+02  0.00000000000E+00 0.  1.
<mgrwt>
<rscale>  2 0.19011902E+03</rscale>
<asrwt>0</asrwt>
<pdfrwt beam="1">  1       21 0.11744939E-01 0.19057529E+03</pdfrwt>
<pdfrwt beam="2">  1       21 0.74430181E-01 0.19057529E+03</pdfrwt>
<totfact> 0.98699888E+04</totfact>
</mgrwt>
</event>
<event>
12    2  0.4090627E-002  0.2465946E+03  0.7546771E-02  0.1115762E+00
         21   -1    0    0  501  502  0.00000000000E+00  0.00000000000E+00  0.40855812352E+02  0.40855812352E+02  0.00000000000E+00 0.  1.
         21   -1    0    0  502  503 -0.00000000000E+00 -0.00000000000E+00 -0.23006018752E+04  0.23006018752E+04  0.00000000000E+00 0. -1.
         -6    2    1    2    0  503  0.65354718560E+02  0.16192955068E+03 -0.18274288942E+04  0.18437559403E+04  0.17160182244E+03 0.  0.
        -24    2    3    3    0    0 -0.16832727319E+02  0.29213847808E+02 -0.76251033553E+03  0.76744656999E+03  0.80096419312E+02 0.  0.
          6    2    1    2  501    0 -0.65354718560E+02 -0.16192955068E+03 -0.43231716862E+03  0.49770174721E+03  0.17411627228E+03 0.  0.
         24    2    5    5    0    0 -0.41540829171E+02 -0.12004491637E+03 -0.42223665140E+03  0.44825348388E+03  0.80690604086E+02 0.  0.
          5    1    5    5  501    0 -0.23813889389E+02 -0.41884634305E+02 -0.10080517214E+02  0.49448263326E+02  0.47000000000E+01 0. -1.
        -15    1    6    6    0    0 -0.64234596391E+02 -0.69658299078E+02 -0.24951149476E+03  0.26690355140E+03  0.17770000000E+01 0.  1.
         16    1    6    6    0    0  0.22693767220E+02 -0.50386617293E+02 -0.17272515664E+03  0.18134993248E+03  0.00000000000E+00 0. -1.
         -5    1    3    3    0  503  0.82187445879E+02  0.13271570287E+03 -0.10649185587E+04  0.10763093704E+04  0.47000000000E+01 0.  1.
         15    1    4    4    0    0  0.69285640547E+01  0.48552438349E+02 -0.60481689781E+03  0.60680473125E+03  0.17770000000E+01 0. -1.
        -16    1    4    4    0    0 -0.23761291373E+02 -0.19338590540E+02 -0.15769343772E+03  0.16064183873E+03  0.00000000000E+00 0.  1.
<mgrwt>
<rscale>  2 0.24615117E+03</rscale>
<asrwt>0</asrwt>
<pdfrwt beam="1">  1       21 0.62855100E-02 0.24659460E+03</pdfrwt>
<pdfrwt beam="2">  1       21 0.35393873E+00 0.24659460E+03</pdfrwt>
<totfact> 0.28300964E+03</totfact>
</mgrwt>
</event>
<event>
12    2  0.4090627E-002  0.1838769E+03  0.7546771E-02  0.1164199E+00
         21   -1    0    0  503  502  0.00000000000E+00  0.00000000000E+00  0.23846249182E+03  0.23846249182E+03  0.00000000000E+00 0. -1.
         21   -1    0    0  501  503 -0.00000000000E+00 -0.00000000000E+00 -0.14866691750E+03  0.14866691750E+03  0.00000000000E+00 0. -1.
          6    2    1    2  501    0 -0.25743337078E+02 -0.56832658329E+02  0.22700721490E+01  0.18348407815E+03  0.17253574484E+03 0.  0.
         24    2    3    3    0    0 -0.59595341559E+02 -0.46811533729E+02  0.52103855971E+02  0.12223150958E+03  0.80515872361E+02 0.  0.
         -6    2    1    2    0  502  0.25743337078E+02  0.56832658329E+02  0.87525502171E+02  0.20364533118E+03  0.17296831190E+03 0.  0.
        -24    2    5    5    0    0  0.46213303785E+02  0.52331217425E+02 -0.66311326535E+01  0.10706974219E+03  0.80905698241E+02 0.  0.
          5    1    3    3  501    0  0.33852004481E+02 -0.10021124600E+02 -0.49833783823E+02  0.61252568564E+02  0.47000000000E+01 0. -1.
        -15    1    4    4    0    0 -0.73309095903E+02 -0.14353915958E+02  0.29306485431E+02  0.80263854024E+02  0.17770000000E+01 0.  1.
         16    1    4    4    0    0  0.13713754343E+02 -0.32457617771E+02  0.22797370540E+02  0.41967655559E+02  0.00000000000E+00 0. -1.
         -5    1    5    5    0  502 -0.20469966707E+02  0.45014409042E+01  0.94156634824E+02  0.96575588989E+02  0.47000000000E+01 0.  1.
         15    1    6    6    0    0  0.34622040018E+02  0.62884174276E+02  0.21421723959E+02  0.74934324683E+02  0.17770000000E+01 0. -1.
        -16    1    6    6    0    0  0.11591263767E+02 -0.10552956851E+02 -0.28052856612E+02  0.32135417503E+02  0.00000000000E+00 0.  1.
<mgrwt>
<rscale>  2 0.18377508E+03</rscale>
<asrwt>0</asrwt>
<pdfrwt beam="1">  1       21 0.36686537E-01 0.18387688E+03</pdfrwt>
<pdfrwt beam="2">  1       21 0.22871833E-01 0.18387688E+03</pdfrwt>
<totfact> 0.12891546E+05</totfact>
</mgrwt>
</event>
<event>
12    2  0.4090627E-002  0.1868243E+03  0.7546771E-02  0.1161669E+00
         21   -1    0    0  501  502  0.00000000000E+00  0.00000000000E+00  0.78002278177E+03  0.78002278177E+03  0.00000000000E+00 0.  1.
         21   -1    0    0  502  503 -0.00000000000E+00 -0.00000000000E+00 -0.71479142515E+02  0.71479142515E+02  0.00000000000E+00 0.  1.
         -6    2    1    2    0  503 -0.41530422101E+02  0.56848639934E+02  0.91542555304E+02  0.20683637417E+03  0.17159458741E+03 0.  0.
        -24    2    3    3    0    0 -0.18374633314E+00  0.41358559199E+02  0.12273908978E+03  0.15257032621E+03  0.80636568005E+02 0.  0.
          6    2    1    2  501    0  0.41530422101E+02 -0.56848639934E+02  0.61700108395E+03  0.64466555011E+03  0.17305140879E+03 0.  0.
         24    2    5    5    0    0 -0.48433286474E+01 -0.62866074348E+02  0.56643936261E+03  0.57563431124E+03  0.80781852077E+02 0.  0.
          5    1    5    5  501    0  0.46373750749E+02  0.60174344142E+01  0.50561721339E+02  0.69031238872E+02  0.47000000000E+01 0. -1.
        -15    1    6    6    0    0  0.27468974553E+02 -0.62532208815E+02  0.33012912317E+03  0.33712492847E+03  0.17770000000E+01 0.  1.
         16    1    6    6    0    0 -0.32312303200E+02 -0.33386553299E+00  0.23631023945E+03  0.23850938277E+03  0.00000000000E+00 0. -1.
         -5    1    3    3    0  503 -0.41346675768E+02  0.15490080735E+02 -0.31196534472E+02  0.54266047961E+02  0.47000000000E+01 0.  1.
         15    1    4    4    0    0  0.12727892961E+01 -0.24576321348E+02  0.33595828637E+02  0.41682766156E+02  0.17770000000E+01 0. -1.
        -16    1    4    4    0    0 -0.14565356293E+01  0.65934880547E+02  0.89143261139E+02  0.11088756006E+03  0.00000000000E+00 0.  1.
<mgrwt>
<rscale>  2 0.18648627E+03</rscale>
<asrwt>0</asrwt>
<pdfrwt beam="1">  1       21 0.12000350E+00 0.18682434E+03</pdfrwt>
<pdfrwt beam="2">  1       21 0.10996792E-01 0.18682434E+03</pdfrwt>
<totfact> 0.36326142E+04</totfact>
</mgrwt>
</event>
<event>
12    2  0.4090627E-002  0.1793166E+03  0.7546771E-02  0.1169501E+00
         21   -1    0    0  503  502  0.00000000000E+00  0.00000000000E+00  0.11139287257E+03  0.11139287257E+03  0.00000000000E+00 0.  1.
         21   -1    0    0  501  503 -0.00000000000E+00 -0.00000000000E+00 -0.32028339935E+03  0.32028339935E+03  0.00000000000E+00 0. -1.
          6    2    1    2  501    0 -0.43863860043E+02 -0.60192101986E+01 -0.17803571885E+03  0.24972448679E+03  0.16942648260E+03 0.  0.
         24    2    3    3    0    0 -0.63555804629E+02  0.52314159791E+02 -0.90609084540E+02  0.14269149597E+03  0.73312653787E+02 0.  0.
         -6    2    1    2    0  502  0.43863860043E+02  0.60192101986E+01 -0.30854807931E+02  0.18195178513E+03  0.17376467947E+03 0.  0.
        -24    2    5    5    0    0  0.93049823502E+02 -0.17559305711E+02 -0.23657325771E+02  0.12673313644E+03  0.80839470179E+02 0.  0.
          5    1    3    3  501    0  0.19691944586E+02 -0.58333369989E+02 -0.87426634308E+02  0.10703299081E+03  0.47000000000E+01 0. -1.
        -15    1    4    4    0    0 -0.31237293596E+02  0.26724827336E+02  0.21304889528E+01  0.41202932172E+02  0.17770000000E+01 0.  1.
         16    1    4    4    0    0 -0.32318511032E+02  0.25589332454E+02 -0.92739573493E+02  0.10148856380E+03  0.00000000000E+00 0. -1.
         -5    1    5    5    0  502 -0.49185963459E+02  0.23578515910E+02 -0.71974821598E+01  0.55218648692E+02  0.47000000000E+01 0.  1.
         15    1    6    6    0    0  0.65940048461E+02 -0.39037059519E+02 -0.42190598001E+02  0.87493921478E+02  0.17770000000E+01 0. -1.
        -16    1    6    6    0    0  0.27109775041E+02  0.21477753808E+02  0.18533272229E+02  0.39239214963E+02  0.00000000000E+00 0.  1.
<mgrwt>
<rscale>  2 0.17825707E+03</rscale>
<asrwt>0</asrwt>
<pdfrwt beam="1">  1       21 0.17137365E-01 0.17931657E+03</pdfrwt>
<pdfrwt beam="2">  1       21 0.49274369E-01 0.17931657E+03</pdfrwt>
<totfact> 0.12131808E+05</totfact>
</mgrwt>
</event>
<event>
12    2  0.4090627E-002  0.2666977E+03  0.7546771E-02  0.1104540E+00
         21   -1    0    0  501  502  0.00000000000E+00  0.00000000000E+00  0.10848050910E+04  0.10848050910E+04  0.00000000000E+00 0.  1.
         21   -1    0    0  502  503 -0.00000000000E+00 -0.00000000000E+00 -0.23379384671E+03  0.23379384671E+03  0.00000000000E+00 0. -1.
         -6    2    1    2    0  503 -0.18676834794E+03  0.39314511675E+02 -0.13541424673E+03  0.29910646156E+03  0.18627831465E+03 0.  0.
        -24    2    3    3    0    0 -0.96476683340E+02  0.92284946446E+02 -0.47645150477E+02  0.16241719383E+03  0.79278135183E+02 0.  0.
          6    2    1    2  501    0  0.18676834794E+03 -0.39314511675E+02  0.98642549104E+03  0.10194924762E+04  0.17292082856E+03 0.  0.
         24    2    5    5    0    0  0.57406948934E+02 -0.21401344723E+02  0.66660746727E+03  0.67400599099E+03  0.78517419314E+02 0.  0.
          5    1    5    5  501    0  0.12936139900E+03 -0.17913166952E+02  0.31981802377E+03  0.34548648517E+03  0.47000000000E+01 0. -1.
        -15    1    6    6    0    0  0.53446140807E+02  0.22530223245E+01  0.20813816728E+03  0.21490979616E+03  0.17770000000E+01 0.  1.
         16    1    6    6    0    0  0.39608081264E+01 -0.23654367048E+02  0.45846929998E+03  0.45909619483E+03  0.00000000000E+00 0. -1.
         -5    1    3    3    0  503 -0.90291664599E+02 -0.52970434771E+02 -0.87769096257E+02  0.13668926773E+03  0.47000000000E+01 0.  1.
         15    1    4    4    0    0 -0.93240551919E+02  0.37858727619E+02 -0.28109656433E+02  0.10450069039E+03  0.17770000000E+01 0. -1.
        -16    1    4    4    0    0 -0.32361314204E+01  0.54426218827E+02 -0.19535494045E+02  0.57916503433E+02  0.00000000000E+00 0.  1.
<mgrwt>
<rscale>  2 0.26437958E+03</rscale>
<asrwt>0</asrwt>
<pdfrwt beam="1">  1       21 0.16689309E+00 0.26669769E+03</pdfrwt>
<pdfrwt beam="2">  1       21 0.35968285E-01 0.26669769E+03</pdfrwt>
<totfact> 0.15685281E+03</totfact>
</mgrwt>
</event>
<event>
12    2  0.4090627E-002  0.3163630E+03  0.7546771E-02  0.1077545E+00
         21   -1    0    0  501  502  0.00000000000E+00  0.00000000000E+00  0.17794030789E+03  0.17794030789E+03  0.00000000000E+00 0. -1.
         21   -1    0    0  502  503 -0.00000000000E+00 -0.00000000000E+00 -0.63709286985E+03  0.63709286985E+03  0.00000000000E+00 0.  1.
         -6    2    1    2    0  503 -0.19327543006E+03  0.17930612180E+03 -0.86593157735E+02  0.32627349612E+03  0.17160985440E+03 0.  0.
        -24    2    3    3    0    0 -0.45482945463E+02  0.83322704407E+02  0.80078061328E+01  0.12620633919E+03  0.82780092387E+02 0.  0.
          6    2    1    2  501    0  0.19327543006E+03 -0.17930612180E+03 -0.37255940423E+03  0.48875968161E+03  0.17486977873E+03 0.  0.
         24    2    5    5    0    0  0.59352361058E+02 -0.14826538091E+03 -0.21026747754E+03  0.27601646674E+03  0.80419847434E+02 0.  0.
          5    1    5    5  501    0  0.13392306900E+03 -0.31040740884E+02 -0.16229192669E+03  0.21274321487E+03  0.47000000000E+01 0. -1.
        -15    1    6    6    0    0  0.71603192865E+02 -0.14962693935E+03 -0.18935266275E+03  0.25173960123E+03  0.17770000000E+01 0.  1.
         16    1    6    6    0    0 -0.12250831806E+02  0.13615584413E+01 -0.20914814785E+02  0.24276865507E+02  0.00000000000E+00 0. -1.
         -5    1    3    3    0  503 -0.14779248460E+03  0.95983417390E+02 -0.94600963868E+02  0.20006715693E+03  0.47000000000E+01 0.  1.
         15    1    4    4    0    0 -0.34240399284E+02  0.34840364703E+02  0.43213471909E+02  0.65244293538E+02  0.17770000000E+01 0. -1.
        -16    1    4    4    0    0 -0.11242546178E+02  0.48482339704E+02 -0.35205665776E+02  0.60962045655E+02  0.00000000000E+00 0.  1.
<mgrwt>
<rscale>  2 0.31591445E+03</rscale>
<asrwt>0</asrwt>
<pdfrwt beam="1">  1       21 0.27375432E-01 0.31636295E+03</pdfrwt>
<pdfrwt beam="2">  1       21 0.98014287E-01 0.31636295E+03</pdfrwt>
<totfact> 0.10227244E+04</totfact>
</mgrwt>
</event>
<event>
12    2  0.4090627E-002  0.1781704E+03  0.7546771E-02  0.1169736E+00
         21   -1    0    0  503  502  0.00000000000E+00  0.00000000000E+00  0.39326603188E+03  0.39326603188E+03  0.00000000000E+00 0.  1.
         21   -1    0    0  501  503 -0.00000000000E+00 -0.00000000000E+00 -0.84459555487E+02  0.84459555487E+02  0.00000000000E+00 0.  1.
          6    2    1    2  501    0 -0.37580263857E+02 -0.13761833834E+02  0.20623573630E+03  0.27214000461E+03  0.17298941840E+03 0.  0.
         24    2    3    3    0    0 -0.66259871318E+02  0.37585305536E+02  0.94537860403E+02  0.14581679184E+03  0.80759544278E+02 0.  0.
         -6    2    1    2    0  502  0.37580263857E+02  0.13761833834E+02  0.10257074009E+03  0.20558558276E+03  0.17361742658E+03 0.  0.
        -24    2    5    5    0    0  0.23810112006E+01  0.11090041944E+02 -0.15586222468E+02  0.82178598916E+02  0.79885753075E+02 0.  0.
          5    1    3    3  501    0  0.28679607461E+02 -0.51347139370E+02  0.11169787590E+03  0.12632321277E+03  0.47000000000E+01 0. -1.
        -15    1    4    4    0    0 -0.30103390191E+02  0.19114386420E+02  0.98741775090E+02  0.10499842735E+03  0.17770000000E+01 0.  1.
         16    1    4    4    0    0 -0.36156481127E+02  0.18470919116E+02 -0.42039146863E+01  0.40818364485E+02  0.00000000000E+00 0. -1.
         -5    1    5    5    0  502  0.35199252657E+02  0.26717918900E+01  0.11815696256E+03  0.12340698384E+03  0.47000000000E+01 0.  1.
         15    1    6    6    0    0 -0.29663051995E+02 -0.19150964120E+02  0.26406064435E+00  0.35353691991E+02  0.17770000000E+01 0. -1.
        -16    1    6    6    0    0  0.32044063195E+02  0.30241006064E+02 -0.15850283112E+02  0.46824906925E+02  0.00000000000E+00 0.  1.
<mgrwt>
<rscale>  2 0.17801718E+03</rscale>
<asrwt>0</asrwt>
<pdfrwt beam="1">  1       21 0.60502465E-01 0.17817035E+03</pdfrwt>
<pdfrwt beam="2">  1       21 0.12993778E-01 0.17817035E+03</pdfrwt>
<totfact> 0.13014319E+05</totfact>
</mgrwt>
</event>
<event>
12    2  0.4090627E-002  0.2038815E+03  0.7546771E-02  0.1147746E+00
         21   -1    0    0  503  502  0.00000000000E+00  0.00000000000E+00  0.16533103171E+03  0.16533103171E+03  0.00000000000E+00 0.  1.
         21   -1    0    0  501  503 -0.00000000000E+00 -0.00000000000E+00 -0.45524247752E+03  0.45524247752E+03  0.00000000000E+00 0.  1.
          6    2    1    2  501    0  0.70405986080E+02  0.64955456288E+02 -0.35508248168E+03  0.40652928901E+03  0.17322320815E+03 0.  0.
         24    2    3    3    0    0  0.66426734296E+02  0.59419947261E+02 -0.37035729612E+03  0.38915441459E+03  0.79582601395E+02 0.  0.
         -6    2    1    2    0  502 -0.70405986080E+02 -0.64955456288E+02  0.65171035871E+02  0.21404422022E+03  0.17997624875E+03 0.  0.
        -24    2    5    5    0    0  0.35075376016E+00 -0.73688539553E+02 -0.10087368331E+02  0.11027187140E+03  0.81412571098E+02 0.  0.
          5    1    3    3  501    0  0.39792517837E+01  0.55355090267E+01  0.15274814434E+02  0.17374874415E+02  0.47000000000E+01 0. -1.
        -15    1    4    4    0    0  0.62932135274E+02  0.51623375861E+01 -0.16371056667E+03  0.17547481514E+03  0.17770000000E+01 0.  1.
         16    1    4    4    0    0  0.34945990226E+01  0.54257609675E+02 -0.20664672945E+03  0.21367959945E+03  0.00000000000E+00 0. -1.
         -5    1    5    5    0  502 -0.70756739840E+02  0.87330832657E+01  0.75258404201E+02  0.10377234882E+03  0.47000000000E+01 0.  1.
         15    1    6    6    0    0 -0.31265881805E+02 -0.67962765511E+02 -0.18447516379E+02  0.77071145382E+02  0.17770000000E+01 0. -1.
        -16    1    6    6    0    0  0.31616635565E+02 -0.57257740421E+01  0.83601480480E+01  0.33200726019E+02  0.00000000000E+00 0.  1.
<mgrwt>
<rscale>  2 0.20238106E+03</rscale>
<asrwt>0</asrwt>
<pdfrwt beam="1">  1       21 0.25435543E-01 0.20388150E+03</pdfrwt>
<pdfrwt beam="2">  1       21 0.70037304E-01 0.20388150E+03</pdfrwt>
<totfact> 0.26949917E+04</totfact>
</mgrwt>
</event>
<event>
12    2  0.4090627E-002  0.1968112E+03  0.7546771E-02  0.1152647E+00
         21   -1    0    0  501  502  0.00000000000E+00  0.00000000000E+00  0.89939620528E+02  0.89939620528E+02  0.00000000000E+00 0. -1.
         21   -1    0    0  502  503 -0.00000000000E+00 -0.00000000000E+00 -0.42897176901E+03  0.42897176901E+03  0.00000000000E+00 0. -1.
         -6    2    1    2    0  503  0.77719614496E+02  0.49288579780E+02 -0.17490101801E+03  0.26264263615E+03  0.17297712464E+03 0.  0.
        -24    2    3    3    0    0  0.39783795502E+02 -0.37276503750E+02 -0.62557081935E+02  0.11575529830E+03  0.80706954268E+02 0.  0.
          6    2    1    2  501    0 -0.77719614496E+02 -0.49288579780E+02 -0.16413113048E+03  0.25626875339E+03  0.17396822526E+03 0.  0.
         24    2    5    5    0    0 -0.10390590548E+03 -0.76607077718E+02 -0.15430618409E+03  0.21689056480E+03  0.81031087263E+02 0.  0.
          5    1    5    5  501    0  0.26186290981E+02  0.27318497938E+02 -0.98249463901E+01  0.39378188589E+02  0.47000000000E+01 0. -1.
        -15    1    6    6    0    0 -0.67239410186E+02 -0.10205247857E+01 -0.81881064222E+02  0.10597096848E+03  0.17770000000E+01 0.  1.
         16    1    6    6    0    0 -0.36666495291E+02 -0.75586552933E+02 -0.72425119863E+02  0.11091959632E+03  0.00000000000E+00 0. -1.
         -5    1    3    3    0  503  0.37935818994E+02  0.86565083530E+02 -0.11234393608E+03  0.14688733786E+03  0.47000000000E+01 0.  1.
         15    1    4    4    0    0  0.40176073160E+02  0.10167156674E+02 -0.53091992373E+02  0.67375108998E+02  0.17770000000E+01 0. -1.
        -16    1    4    4    0    0 -0.39227765775E+00 -0.47443660424E+02 -0.94650895621E+01  0.48380189299E+02  0.00000000000E+00 0.  1.
<mgrwt>
<rscale>  2 0.19659195E+03</rscale>
<asrwt>0</asrwt>
<pdfrwt beam="1">  1       21 0.13836865E-01 0.19681119E+03</pdfrwt>
<pdfrwt beam="2">  1       21 0.65995655E-01 0.19681119E+03</pdfrwt>
<totfact> 0.95598321E+04</totfact>
</mgrwt>
</event>
<event>
12    2  0.4090627E-002  0.3289609E+03  0.7546771E-02  0.1071599E+00
         21   -1    0    0  501  502  0.00000000000E+00  0.00000000000E+00  0.17720446684E+03  0.17720446684E+03  0.00000000000E+00 0. -1.
         21   -1    0    0  502  503 -0.00000000000E+00 -0.00000000000E+00 -0.71499284980E+03  0.71499284980E+03  0.00000000000E+00 0. -1.
         -6    2    1    2    0  503  0.18043480242E+03 -0.21445222429E+03 -0.43930046041E+03  0.54880955773E+03  0.17222241933E+03 0.  0.
        -24    2    3    3    0    0  0.45156396495E+02 -0.15511749198E+03 -0.24672484037E+03  0.30605800367E+03  0.81840199740E+02 0.  0.
          6    2    1    2  501    0 -0.18043480242E+03  0.21445222429E+03 -0.98487922552E+02  0.34338775890E+03  0.17224635743E+03 0.  0.
         24    2    5    5    0    0 -0.15537144417E+03  0.81134732060E+02 -0.45732216152E+02  0.19776159292E+03  0.79341550458E+02 0.  0.
          5    1    5    5  501    0 -0.25063358247E+02  0.13331749223E+03 -0.52755706400E+02  0.14562616598E+03  0.47000000000E+01 0. -1.
        -15    1    6    6    0    0 -0.15582535364E+03  0.68424643611E+02 -0.23039912982E+02  0.17174826930E+03  0.17770000000E+01 0.  1.
         16    1    6    6    0    0  0.45390946906E+00  0.12710088449E+02 -0.22692303171E+02  0.26013323613E+02  0.00000000000E+00 0. -1.
         -5    1    3    3    0  503  0.13527840592E+03 -0.59334732316E+02 -0.19257562004E+03  0.24275155406E+03  0.47000000000E+01 0.  1.
         15    1    4    4    0    0  0.65652803787E+02 -0.11738144414E+03 -0.15808571372E+03  0.20756431457E+03  0.17770000000E+01 0. -1.
        -16    1    4    4    0    0 -0.20496407291E+02 -0.37736047832E+02 -0.88639126654E+02  0.98493689097E+02  0.00000000000E+00 0.  1.
<mgrwt>
<rscale>  2 0.32895778E+03</rscale>
<asrwt>0</asrwt>
<pdfrwt beam="1">  1       21 0.27262226E-01 0.32896091E+03</pdfrwt>
<pdfrwt beam="2">  1       21 0.10999890E+00 0.32896091E+03</pdfrwt>
<totfact> 0.77463257E+03</totfact>
</mgrwt>
</event>
<event>
12    2  0.4090627E-002  0.2285164E+03  0.7546771E-02  0.1127908E+00
         21   -1    0    0  501  502  0.00000000000E+00  0.00000000000E+00  0.66285641246E+03  0.66285641246E+03  0.00000000000E+00 0.  1.
         21   -1    0    0  502  503 -0.00000000000E+00 -0.00000000000E+00 -0.29414299752E+03  0.29414299752E+03  0.00000000000E+00 0. -1.
         -6    2    1    2    0  503  0.75520838686E+02 -0.12746816323E+03 -0.22561710431E+03  0.32025101839E+03  0.17235459757E+03 0.  0.
        -24    2    3    3    0    0  0.85881498311E+02 -0.25636903370E+02 -0.79911803942E+02  0.14212445296E+03  0.76030133202E+02 0.  0.
          6    2    1    2  501    0 -0.75520838686E+02  0.12746816323E+03  0.59433051925E+03  0.63674839160E+03  0.17397763759E+03 0.  0.
         24    2    5    5    0    0 -0.67388562794E+02  0.15548131903E+02  0.38058353133E+03  0.39529012985E+03  0.81409456665E+02 0.  0.
          5    1    5    5  501    0 -0.81322758919E+01  0.11192003133E+03  0.21374698792E+03  0.24145826175E+03  0.47000000000E+01 0. -1.
        -15    1    6    6    0    0 -0.54260340059E+02  0.39417455629E+02  0.33902154014E+03  0.34559612660E+03  0.17770000000E+01 0.  1.
         16    1    6    6    0    0 -0.13128222735E+02 -0.23869323726E+02  0.41561991190E+02  0.49694003250E+02  0.00000000000E+00 0. -1.
         -5    1    3    3    0  503 -0.10360659625E+02 -0.10183125986E+03 -0.14570530037E+03  0.17812656542E+03  0.47000000000E+01 0.  1.
         15    1    4    4    0    0 -0.57546283945E+01 -0.15744044223E+02 -0.36581928514E+02  0.40278851762E+02  0.17770000000E+01 0. -1.
        -16    1    4    4    0    0  0.91636126705E+02 -0.98928591468E+01 -0.43329875428E+02  0.10184560120E+03  0.00000000000E+00 0.  1.
<mgrwt>
<rscale>  2 0.22820747E+03</rscale>
<asrwt>0</asrwt>
<pdfrwt beam="1">  1       21 0.10197791E+00 0.22851641E+03</pdfrwt>
<pdfrwt beam="2">  1       21 0.45252769E-01 0.22851641E+03</pdfrwt>
<totfact> 0.35677263E+03</totfact>
</mgrwt>
</event>
<event>
12    2  0.4090627E-002  0.1823624E+03  0.7546771E-02  0.1165675E+00
         21   -1    0    0  503  502  0.00000000000E+00  0.00000000000E+00  0.61127932746E+02  0.61127932746E+02  0.00000000000E+00 0. -1.
         21   -1    0    0  501  503 -0.00000000000E+00 -0.00000000000E+00 -0.58993934813E+03  0.58993934813E+03  0.00000000000E+00 0. -1.
          6    2    1    2  501    0  0.13231090850E+02 -0.57421103866E+02 -0.17150609084E+03  0.24991502338E+03  0.17196201552E+03 0.  0.
         24    2    3    3    0    0 -0.33064671233E+02 -0.76030347443E+02 -0.16308691743E+03  0.19909599137E+03  0.78536519706E+02 0.  0.
         -6    2    1    2    0  502 -0.13231090850E+02  0.57421103866E+02 -0.35730532454E+03  0.40115225749E+03  0.17257981867E+03 0.  0.
        -24    2    5    5    0    0 -0.29478379063E+02  0.68966382239E+02 -0.36354424050E+03  0.37974473780E+03  0.80101899934E+02 0.  0.
          5    1    3    3  501    0  0.46295762083E+02  0.18609243576E+02 -0.84191734101E+01  0.50819032008E+02  0.47000000000E+01 0. -1.
        -15    1    4    4    0    0 -0.54304707038E+02 -0.33150108848E+02 -0.11386882106E+03  0.13044997916E+03  0.17770000000E+01 0.  1.
         16    1    4    4    0    0  0.21240035805E+02 -0.42880238594E+02 -0.49218096371E+02  0.68646012217E+02  0.00000000000E+00 0. -1.
         -5    1    5    5    0  502  0.16247288212E+02 -0.11545278373E+02  0.62389159625E+01  0.21407519692E+02  0.47000000000E+01 0.  1.
         15    1    6    6    0    0 -0.44414353179E+02  0.48162759498E+02 -0.13823679965E+03  0.15298645913E+03  0.17770000000E+01 0. -1.
        -16    1    6    6    0    0  0.14935974116E+02  0.20803622741E+02 -0.22530744085E+03  0.22675827867E+03  0.00000000000E+00 0.  1.
<mgrwt>
<rscale>  2 0.18221607E+03</rscale>
<asrwt>0</asrwt>
<pdfrwt beam="1">  1       21 0.94042969E-02 0.18236238E+03</pdfrwt>
<pdfrwt beam="2">  1       21 0.90759904E-01 0.18236238E+03</pdfrwt>
<totfact> 0.93560216E+04</totfact>
</mgrwt>
</event>
<event>
12    2  0.4090627E-002  0.1767464E+03  0.7546771E-02  0.1171550E+00
         21   -1    0    0  501  502  0.00000000000E+00  0.00000000000E+00  0.30104012676E+03  0.30104012676E+03  0.00000000000E+00 0.  1.
         21   -1    0    0  502  503 -0.00000000000E+00 -0.00000000000E+00 -0.63111904482E+03  0.63111904482E+03  0.00000000000E+00 0. -1.
         -6    2    1    2    0  503 -0.33005355049E+02 -0.15542993217E+02 -0.59143972505E+03  0.61664567873E+03  0.17064585148E+03 0.  0.
        -24    2    3    3    0    0 -0.39518854945E+02  0.57075317299E+02 -0.34341643702E+03  0.35808526779E+03  0.73965384109E+02 0.  0.
          6    2    1    2  501    0  0.33005355049E+02  0.15542993217E+02  0.26136080698E+03  0.31551349286E+03  0.17294032106E+03 0.  0.
         24    2    5    5    0    0 -0.47697156188E+02 -0.63066388055E+01  0.14120462863E+03  0.16905565273E+03  0.79537878846E+02 0.  0.
          5    1    5    5  501    0  0.80702511237E+02  0.21849632023E+02  0.12015617835E+03  0.14645784013E+03  0.47000000000E+01 0. -1.
        -15    1    6    6    0    0 -0.47243729075E+02 -0.26679204569E+02  0.13817228908E+03  0.14845365974E+03  0.17770000000E+01 0.  1.
         16    1    6    6    0    0 -0.45342711329E+00  0.20372565764E+02  0.30323395583E+01  0.20601992989E+02  0.00000000000E+00 0. -1.
         -5    1    3    3    0  503  0.65134998965E+01 -0.72618310517E+02 -0.24802328802E+03  0.25856041094E+03  0.47000000000E+01 0.  1.
         15    1    4    4    0    0 -0.21111051720E+02  0.46651595681E+02 -0.32782827846E+03  0.33180805562E+03  0.17770000000E+01 0. -1.
        -16    1    4    4    0    0 -0.18407803225E+02  0.10423721618E+02 -0.15588158559E+02  0.26277212166E+02  0.00000000000E+00 0.  1.
<mgrwt>
<rscale>  2 0.17618261E+03</rscale>
<asrwt>0</asrwt>
<pdfrwt beam="1">  1       21 0.46313866E-01 0.17674641E+03</pdfrwt>
<pdfrwt beam="2">  1       21 0.97095238E-01 0.17674641E+03</pdfrwt>
<totfact> 0.39837569E+03</totfact>
</mgrwt>
</event>
<event>
12    2  0.4090627E-002  0.1884502E+03  0.7546771E-02  0.1159894E+00
         21   -1    0    0  503  502  0.00000000000E+00  0.00000000000E+00  0.22443779852E+03  0.22443779852E+03  0.00000000000E+00 0.  1.
         21   -1    0    0  501  503 -0.00000000000E+00 -0.00000000000E+00 -0.15821953737E+03  0.15821953737E+03  0.00000000000E+00 0. -1.
          6    2    1    2  501    0  0.66616260425E+02  0.38173207431E+02  0.37608080375E+02  0.19216614388E+03  0.17210037544E+03 0.  0.
         24    2    3    3    0    0  0.84991005071E+02  0.21858539767E+02 -0.26478235842E+02  0.12336973737E+03  0.82569536892E+02 0.  0.
         -6    2    1    2    0  502 -0.66616260425E+02 -0.38173207431E+02  0.28610180770E+02  0.19049119201E+03  0.17196927595E+03 0.  0.
        -24    2    5    5    0    0 -0.75985161789E+02 -0.83870456877E+02  0.46100152821E+01  0.13782134425E+03  0.78520521785E+02 0.  0.
          5    1    3    3  501    0 -0.18374744646E+02  0.16314667664E+02  0.64086316218E+02  0.68796406506E+02  0.47000000000E+01 0. -1.
        -15    1    4    4    0    0  0.37978125778E+02  0.43679586251E+02  0.11595599818E+02  0.59058106614E+02  0.17770000000E+01 0.  1.
         16    1    4    4    0    0  0.47012879293E+02 -0.21821046484E+02 -0.38073835661E+02  0.64311630760E+02  0.00000000000E+00 0. -1.
         -5    1    5    5    0  502  0.93689013644E+01  0.45697249446E+02  0.24000165488E+02  0.52669847761E+02  0.47000000000E+01 0.  1.
         15    1    6    6    0    0  0.16251313437E+02 -0.15688451068E+02 -0.30611108481E+01  0.22863963217E+02  0.17770000000E+01 0. -1.
        -16    1    6    6    0    0 -0.92236475226E+02 -0.68182005809E+02  0.76711261302E+01  0.11495738103E+03  0.00000000000E+00 0.  1.
<mgrwt>
<rscale>  2 0.18842021E+03</rscale>
<asrwt>0</asrwt>
<pdfrwt beam="1">  1       21 0.34528892E-01 0.18845015E+03</pdfrwt>
<pdfrwt beam="2">  1       21 0.24341467E-01 0.18845015E+03</pdfrwt>
<totfact> 0.12902171E+05</totfact>
</mgrwt>
</event>
<event>
11    2  0.4090627E-002  0.1744749E+03  0.7546771E-02  0.1173338E+00
         21   -1    0    0  501  502  0.00000000000E+00  0.00000000000E+00  0.99304265265E+03  0.99304265265E+03  0.00000000000E+00 0. -1.
         21   -1    0    0  502  503 -0.00000000000E+00 -0.00000000000E+00 -0.37419914812E+02  0.37419914812E+02  0.00000000000E+00 0. -1.
         -6    2    1    2    0  503  0.64355712259E+01 -0.15534691090E+02  0.25820880958E+03  0.31163003743E+03  0.17366274119E+03 0.  0.
        -24    2    3    3    0    0 -0.16475211305E+02 -0.20060191283E+02  0.42591291105E+02  0.94700582574E+02  0.80500549067E+02 0.  0.
          6    2    1    2  501    0 -0.64355712259E+01  0.15534691090E+02  0.69741392825E+03  0.71883253003E+03  0.17335303778E+03 0.  0.
          5    1    5    5  501    0  0.31846493334E+02  0.60456302901E+02  0.55132545685E+03  0.55556368948E+03  0.47000000000E+01 0. -1.
        -15    1    5    5    0    0 -0.40484556637E+02 -0.24896126916E+02  0.70505833116E+02  0.85047320322E+02  0.17770000000E+01 0.  1.
         16    1    5    5    0    0  0.22024920772E+01 -0.20025484895E+02  0.75582638284E+02  0.78221520227E+02  0.00000000000E+00 0. -1.
         -5    1    3    3    0  503  0.22910782531E+02  0.45255001932E+01  0.21561751848E+03  0.21692945485E+03  0.47000000000E+01 0.  1.
         15    1    4    4    0    0 -0.37193569167E+02 -0.40770237536E+02  0.29685542169E+02  0.62689416962E+02  0.17770000000E+01 0. -1.
        -16    1    4    4    0    0  0.20718357861E+02  0.20710046253E+02  0.12905748936E+02  0.32011165613E+02  0.00000000000E+00 0.  1.
<mgrwt>
<rscale>  2 0.17439778E+03</rscale>
<asrwt>0</asrwt>
<pdfrwt beam="1">  1       21 0.15277577E+00 0.17447490E+03</pdfrwt>
<pdfrwt beam="2">  1       21 0.57569107E-02 0.17447490E+03</pdfrwt>
<totfact> 0.60871288E+04</totfact>
</mgrwt>
</event>
<event>
12    2  0.4090627E-002  0.1838174E+03  0.7546771E-02  0.1164249E+00
         21   -1    0    0  503  502  0.00000000000E+00  0.00000000000E+00  0.73518592282E+03  0.73518592282E+03  0.00000000000E+00 0.  1.
         21   -1    0    0  501  503 -0.00000000000E+00 -0.00000000000E+00 -0.17232297003E+03  0.17232297003E+03  0.00000000000E+00 0.  1.
          6    2    1    2  501    0  0.25381055946E+02 -0.54330481991E+02 -0.10719928004E+03  0.21279220413E+03  0.17376086218E+03 0.  0.
         24    2    3    3    0    0  0.35903381247E+02 -0.38089514185E+02 -0.14266948762E+03  0.17211402828E+03  0.80800941575E+02 0.  0.
         -6    2    1    2    0  502 -0.25381055946E+02  0.54330481991E+02  0.67006223282E+03  0.69471668871E+03  0.17335478779E+03 0.  0.
        -24    2    5    5    0    0 -0.46281883661E+02  0.90899248562E+02  0.57125882785E+03  0.58720705137E+03  0.89837556951E+02 0.  0.
          5    1    3    3  501    0 -0.10522325300E+02 -0.16240967805E+02  0.35470207577E+02  0.40678175850E+02  0.47000000000E+01 0. -1.
        -15    1    4    4    0    0 -0.11772584290E+02 -0.29932905759E+02 -0.10773689818E+03  0.11244985347E+03  0.17770000000E+01 0.  1.
         16    1    4    4    0    0  0.47675965537E+02 -0.81566084261E+01 -0.34932589436E+02  0.59664174809E+02  0.00000000000E+00 0. -1.
         -5    1    5    5    0  502  0.20900827715E+02 -0.36568766572E+02  0.98803404977E+02  0.10750963735E+03  0.47000000000E+01 0.  1.
         15    1    6    6    0    0  0.12807701051E+02 -0.84109521829E+01  0.29818498494E+02  0.33572040514E+02  0.17770000000E+01 0. -1.
        -16    1    6    6    0    0 -0.59089584713E+02  0.99310200745E+02  0.54144032935E+03  0.55363501085E+03  0.00000000000E+00 0.  1.
<mgrwt>
<rscale>  2 0.18372137E+03</rscale>
<asrwt>0</asrwt>
<pdfrwt beam="1">  1       21 0.11310552E+00 0.18381740E+03</pdfrwt>
<pdfrwt beam="2">  1       21 0.26511227E-01 0.18381740E+03</pdfrwt>
<totfact> 0.83178246E+03</totfact>
</mgrwt>
</event>
<event>
12    2  0.4090627E-002  0.1766904E+03  0.7546771E-02  0.1172911E+00
         21   -1    0    0  503  502  0.00000000000E+00  0.00000000000E+00  0.57008777495E+03  0.57008777495E+03  0.00000000000E+00 0. -1.
         21   -1    0    0  501  503 -0.00000000000E+00 -0.00000000000E+00 -0.52515954477E+02  0.52515954477E+02  0.00000000000E+00 0. -1.
          6    2    1    2  501    0  0.18898768281E+02 -0.30495858107E+02  0.26008356665E+03  0.31442478128E+03  0.17300959695E+03 0.  0.
         24    2    3    3    0    0  0.21699898266E+02  0.27881627685E+02  0.23510802446E+03  0.25069374579E+03  0.79519181753E+02 0.  0.
         -6    2    1    2    0  502 -0.18898768281E+02  0.30495858107E+02  0.25748825383E+03  0.30817894815E+03  0.16548988616E+03 0.  0.
        -24    2    5    5    0    0  0.19517606493E+02 -0.91617711685E+01  0.23286247491E+03  0.24754014541E+03  0.81156123336E+02 0.  0.
          5    1    3    3  501    0 -0.28011299850E+01 -0.58377485792E+02  0.24975542187E+02  0.63731035486E+02  0.47000000000E+01 0. -1.
        -15    1    4    4    0    0  0.20033713833E+02 -0.29310296290E+01  0.85599922763E+01  0.22053839154E+02  0.17770000000E+01 0.  1.
         16    1    4    4    0    0  0.16661844322E+01  0.30812657314E+02  0.22654803218E+03  0.22863990664E+03  0.00000000000E+00 0. -1.
         -5    1    5    5    0  502 -0.38416374773E+02  0.39657629275E+02  0.24625778920E+02  0.60638802741E+02  0.47000000000E+01 0.  1.
         15    1    6    6    0    0  0.26770316398E+02  0.31586094145E+02  0.13683519597E+03  0.14297328340E+03  0.17770000000E+01 0. -1.
        -16    1    6    6    0    0 -0.72527099047E+01 -0.40747865314E+02  0.96027278944E+02  0.10456686201E+03  0.00000000000E+00 0.  1.
<mgrwt>
<rscale>  2 0.17482188E+03</rscale>
<asrwt>0</asrwt>
<pdfrwt beam="1">  1       21 0.87705807E-01 0.17669035E+03</pdfrwt>
<pdfrwt beam="2">  1       21 0.80793780E-02 0.17669035E+03</pdfrwt>
<totfact> 0.13230681E+05</totfact>
</mgrwt>
</event>
<event>
12    2  0.4090627E-002  0.2159017E+03  0.7546771E-02  0.1138224E+00
         21   -1    0    0  503  502  0.00000000000E+00  0.00000000000E+00  0.57599811537E+02  0.57599811537E+02  0.00000000000E+00 0.  1.
         21   -1    0    0  501  503 -0.00000000000E+00 -0.00000000000E+00 -0.86587619114E+03  0.86587619114E+03  0.00000000000E+00 0.  1.
          6    2    1    2  501    0 -0.12569446934E+03 -0.18919452615E+02 -0.55047892077E+03  0.59130415751E+03  0.17451796230E+03 0.  0.
         24    2    3    3    0    0 -0.96778163847E+02  0.45435448457E+02 -0.44308122569E+03  0.46271931810E+03  0.79735825176E+02 0.  0.
         -6    2    1    2    0  502  0.12569446934E+03  0.18919452615E+02 -0.25779745883E+03  0.33217184517E+03  0.16649792682E+03 0.  0.
        -24    2    5    5    0    0  0.21858357655E+02  0.19691508609E+01 -0.44410906337E+02  0.94211424923E+02  0.80136125623E+02 0.  0.
          5    1    3    3  501    0 -0.28916305489E+02 -0.64354901072E+02 -0.10739769509E+03  0.12858483941E+03  0.47000000000E+01 0. -1.
        -15    1    4    4    0    0 -0.21201234049E+02 -0.83855563471E+01 -0.22704318375E+02  0.32225047437E+02  0.17770000000E+01 0.  1.
         16    1    4    4    0    0 -0.75576929798E+02  0.53821004805E+02 -0.42037690731E+03  0.43049427067E+03  0.00000000000E+00 0. -1.
         -5    1    5    5    0  502  0.10383611168E+03  0.16950301754E+02 -0.21338655250E+03  0.23796042025E+03  0.47000000000E+01 0.  1.
         15    1    6    6    0    0 -0.18205341784E+02 -0.27726700649E+02 -0.17537145669E+02  0.37562129939E+02  0.17770000000E+01 0. -1.
        -16    1    6    6    0    0  0.40063699440E+02  0.29695851510E+02 -0.26873760669E+02  0.56649294984E+02  0.00000000000E+00 0.  1.
<mgrwt>
<rscale>  2 0.21427609E+03</rscale>
<asrwt>0</asrwt>
<pdfrwt beam="1">  1       21 0.88615096E-02 0.21590175E+03</pdfrwt>
<pdfrwt beam="2">  1       21 0.13321172E+00 0.21590175E+03</pdfrwt>
<totfact> 0.40263147E+04</totfact>
</mgrwt>
</event>
<event>
12    2  0.4090627E-002  0.3467592E+03  0.7546771E-02  0.1064091E+00
         21   -1    0    0  501  502  0.00000000000E+00  0.00000000000E+00  0.12192322164E+03  0.12192322164E+03  0.00000000000E+00 0. -1.
         21   -1    0    0  502  503 -0.00000000000E+00 -0.00000000000E+00 -0.98595398598E+03  0.98595398598E+03  0.00000000000E+00 0.  1.
         -6    2    1    2    0  503  0.27592688260E+03 -0.11499570300E+03 -0.39973987516E+03  0.52918228467E+03  0.17573350951E+03 0.  0.
        -24    2    3    3    0    0  0.19116918816E+03 -0.53696081742E+02 -0.15874541079E+03  0.26642396950E+03  0.79703816601E+02 0.  0.
          6    2    1    2  501    0 -0.27592688260E+03  0.11499570300E+03 -0.46429088918E+03  0.57869492295E+03  0.17309571865E+03 0.  0.
         24    2    5    5    0    0 -0.29227987959E+03  0.10676037473E+03 -0.40785047935E+03  0.51917306978E+03  0.79833309178E+02 0.  0.
          5    1    5    5  501    0  0.16352996985E+02  0.82353282650E+01 -0.56440409835E+02  0.59521853167E+02  0.47000000000E+01 0. -1.
        -15    1    6    6    0    0 -0.91997327049E+02  0.65431522125E+01 -0.79845202271E+02  0.12200301258E+03  0.17770000000E+01 0.  1.
         16    1    6    6    0    0 -0.20028255254E+03  0.10021722252E+03 -0.32800527708E+03  0.39717005720E+03  0.00000000000E+00 0. -1.
         -5    1    3    3    0  503  0.84757694445E+02 -0.61299621257E+02 -0.24099446437E+03  0.26275831517E+03  0.47000000000E+01 0.  1.
         15    1    4    4    0    0  0.10548728298E+03 -0.53627450144E+02 -0.13057849427E+03  0.17623101649E+03  0.17770000000E+01 0. -1.
        -16    1    4    4    0    0  0.85681905181E+02 -0.68631598190E-01 -0.28166916518E+02  0.90192953005E+02  0.00000000000E+00 0.  1.
<mgrwt>
<rscale>  2 0.34642636E+03</rscale>
<asrwt>0</asrwt>
<pdfrwt beam="1">  1       21 0.18757420E-01 0.34675917E+03</pdfrwt>
<pdfrwt beam="2">  1       21 0.15168522E+00 0.34675917E+03</pdfrwt>
<totfact> 0.68809454E+03</totfact>
</mgrwt>
</event>
<event>
12    2  0.4090627E-002  0.1870729E+03  0.7546771E-02  0.1161602E+00
         21   -1    0    0  501  502  0.00000000000E+00  0.00000000000E+00  0.19948028584E+02  0.19948028584E+02  0.00000000000E+00 0.  1.
         21   -1    0    0  502  503 -0.00000000000E+00 -0.00000000000E+00 -0.18775282953E+04  0.18775282953E+04  0.00000000000E+00 0.  1.
         -6    2    1    2    0  503 -0.60886163292E+02 -0.18296039608E+02 -0.11852415921E+04  0.11995969967E+04  0.17376263412E+03 0.  0.
        -24    2    3    3    0    0 -0.52684546898E+02  0.37723189576E+02 -0.43410018354E+03  0.44631024776E+03  0.80939282121E+02 0.  0.
          6    2    1    2  501    0  0.60886163292E+02  0.18296039608E+02 -0.67233867465E+03  0.69787932717E+03  0.17593860269E+03 0.  0.
         24    2    5    5    0    0  0.10088370765E+03  0.43205056691E+02 -0.55059774407E+03  0.56725311668E+03  0.81080350410E+02 0.  0.
          5    1    5    5  501    0 -0.39997544359E+02 -0.24909017083E+02 -0.12174093058E+03  0.13062621048E+03  0.47000000000E+01 0. -1.
        -15    1    6    6    0    0  0.40786782280E+02  0.11137903604E+02 -0.39674624776E+03  0.39899668839E+03  0.17770000000E+01 0.  1.
         16    1    6    6    0    0  0.60096925371E+02  0.32067153087E+02 -0.15385149630E+03  0.16825642829E+03  0.00000000000E+00 0. -1.
         -5    1    3    3    0  503 -0.82016163940E+01 -0.56019229184E+02 -0.75114140855E+03  0.75328674898E+03  0.47000000000E+01 0.  1.
         15    1    4    4    0    0  0.74649183515E+01 -0.13908447524E+02 -0.16540058363E+03  0.16616161022E+03  0.17770000000E+01 0. -1.
        -16    1    4    4    0    0 -0.60149465250E+02  0.51631637100E+02 -0.26869959992E+03  0.28014863754E+03  0.00000000000E+00 0.  1.
<mgrwt>
<rscale>  2 0.18655952E+03</rscale>
<asrwt>0</asrwt>
<pdfrwt beam="1">  1       21 0.30689281E-02 0.18707288E+03</pdfrwt>
<pdfrwt beam="2">  1       21 0.28885045E+00 0.18707288E+03</pdfrwt>
<totfact> 0.24243761E+04</totfact>
</mgrwt>
</event>
<event>
12    2  0.4090627E-002  0.3856250E+03  0.7546771E-02  0.1048979E+00
         21   -1    0    0  501  502  0.00000000000E+00  0.00000000000E+00  0.36077066417E+03  0.36077066417E+03  0.00000000000E+00 0.  1.
         21   -1    0    0  502  503 -0.00000000000E+00 -0.00000000000E+00 -0.41158403418E+03  0.41158403418E+03  0.00000000000E+00 0. -1.
         -6    2    1    2    0  503 -0.10773407117E+03 -0.32763543606E+03 -0.40443127587E+02  0.38773997457E+03  0.17249647027E+03 0.  0.
        -24    2    3    3    0    0 -0.52626779635E+02 -0.29646942033E+03  0.12481966023E+01  0.31179005272E+03  0.80918377713E+02 0.  0.
          6    2    1    2  501    0  0.10773407117E+03  0.32763543606E+03 -0.10370242423E+02  0.38461472378E+03  0.16990978420E+03 0.  0.
         24    2    5    5    0    0  0.21881647946E+02  0.10177630488E+03  0.39983735674E+02  0.13775322653E+03  0.80870449180E+02 0.  0.
          5    1    5    5  501    0  0.85852423219E+02  0.22585913118E+03 -0.50353978097E+02  0.24686149725E+03  0.47000000000E+01 0. -1.
        -15    1    6    6    0    0  0.45354686787E+02  0.94798763994E+02  0.41992209377E+02  0.11318284607E+03  0.17770000000E+01 0.  1.
         16    1    6    6    0    0 -0.23473038841E+02  0.69775408818E+01 -0.20084737026E+01  0.24570380457E+02  0.00000000000E+00 0. -1.
         -5    1    3    3    0  503 -0.55107291530E+02 -0.31166015727E+02 -0.41691324190E+02  0.75949921848E+02  0.47000000000E+01 0.  1.
         15    1    4    4    0    0  0.16017074409E+02 -0.68509348322E+02  0.19470225427E+02  0.73022769649E+02  0.17770000000E+01 0. -1.
        -16    1    4    4    0    0 -0.68643854044E+02 -0.22796007201E+03 -0.18222028825E+02  0.23876728307E+03  0.00000000000E+00 0.  1.
<mgrwt>
<rscale>  2 0.38533715E+03</rscale>
<asrwt>0</asrwt>
<pdfrwt beam="1">  1       21 0.55503179E-01 0.38562500E+03</pdfrwt>
<pdfrwt beam="2">  1       21 0.63320621E-01 0.38562500E+03</pdfrwt>
<totfact> 0.63796805E+03</totfact>
</mgrwt>
</event>
<event>
12    2  0.4090627E-002  0.2320366E+03  0.7546771E-02  0.1125668E+00
         21   -1    0    0  501  502  0.00000000000E+00  0.00000000000E+00  0.39956206275E+03  0.39956206275E+03  0.00000000000E+00 0. -1.
         21   -1    0    0  502  503 -0.00000000000E+00 -0.00000000000E+00 -0.13942844569E+03  0.13942844569E+03  0.00000000000E+00 0.  1.
         -6    2    1    2    0  503 -0.69623759517E+02 -0.13310455183E+03  0.18609768278E+03  0.29542882098E+03  0.17344033880E+03 0.  0.
        -24    2    3    3    0    0 -0.10081714096E+03 -0.64774900596E+02  0.15410219152E+03  0.21365003556E+03  0.86827234229E+02 0.  0.
          6    2    1    2  501    0  0.69623759517E+02  0.13310455183E+03  0.74035934276E+02  0.24356168746E+03  0.17685215980E+03 0.  0.
         24    2    5    5    0    0  0.25890354516E+02  0.12682940571E+03 -0.74976724018E+01  0.15070800046E+03  0.76815868806E+02 0.  0.
          5    1    5    5  501    0  0.43733405001E+02  0.62751461212E+01  0.81533606678E+02  0.92853687001E+02  0.47000000000E+01 0. -1.
        -15    1    6    6    0    0 -0.15858742227E+02  0.82242260544E+02  0.15948572909E+02  0.85280735405E+02  0.17770000000E+01 0.  1.
         16    1    6    6    0    0  0.41749096742E+02  0.44587145165E+02 -0.23446245311E+02  0.65427265050E+02  0.00000000000E+00 0. -1.
         -5    1    3    3    0  503  0.31193381448E+02 -0.68329651234E+02  0.31995491258E+02  0.81778785420E+02  0.47000000000E+01 0.  1.
         15    1    4    4    0    0  0.61614258804E+01 -0.12297281021E+02  0.60657354442E+02  0.62222653963E+02  0.17770000000E+01 0. -1.
        -16    1    4    4    0    0 -0.10697856685E+03 -0.52477619575E+02  0.93444837078E+02  0.15142738160E+03  0.00000000000E+00 0.  1.
<mgrwt>
<rscale>  2 0.23138641E+03</rscale>
<asrwt>0</asrwt>
<pdfrwt beam="1">  1       21 0.61471086E-01 0.23203658E+03</pdfrwt>
<pdfrwt beam="2">  1       21 0.21450530E-01 0.23203658E+03</pdfrwt>
<totfact> 0.48883934E+04</totfact>
</mgrwt>
</event>
<event>
12    2  0.4090627E-002  0.4635451E+03  0.7546771E-02  0.1023864E+00
         21   -1    0    0  501  502  0.00000000000E+00  0.00000000000E+00  0.17741258510E+04  0.17741258510E+04  0.00000000000E+00 0. -1.
         21   -1    0    0  502  503 -0.00000000000E+00 -0.00000000000E+00 -0.12744375323E+03  0.12744375323E+03  0.00000000000E+00 0.  1.
         -6    2    1    2    0  503 -0.20927104805E+03  0.37568791118E+03  0.60391070859E+03  0.76040957535E+03  0.16905265502E+03 0.  0.
        -24    2    3    3    0    0 -0.18148466952E+03  0.22657573749E+03  0.46849111551E+03  0.55702058998E+03  0.80714077272E+02 0.  0.
          6    2    1    2  501    0  0.20927104805E+03 -0.37568791118E+03  0.10427713891E+04  0.11411600288E+04  0.17302677039E+03 0.  0.
         24    2    5    5    0    0  0.20398652793E+03 -0.33988849035E+03  0.80984602615E+03  0.90539353545E+03  0.82171640586E+02 0.  0.
          5    1    5    5  501    0  0.52845201197E+01 -0.35799420833E+02  0.23292536299E+03  0.23576649339E+03  0.47000000000E+01 0. -1.
        -15    1    6    6    0    0  0.61164576973E+02 -0.64933658291E+02  0.12354142514E+03  0.15239136101E+03  0.17770000000E+01 0.  1.
         16    1    6    6    0    0  0.14282195095E+03 -0.27495483205E+03  0.68630460101E+03  0.75300217444E+03  0.00000000000E+00 0. -1.
         -5    1    3    3    0  503 -0.27786378524E+02  0.14911217369E+03  0.13541959309E+03  0.20338898536E+03  0.47000000000E+01 0.  1.
         15    1    4    4    0    0 -0.73529029552E+02  0.42849492291E+02  0.17181137517E+03  0.19174176265E+03  0.17770000000E+01 0. -1.
        -16    1    4    4    0    0 -0.10795563997E+03  0.18372624519E+03  0.29667974033E+03  0.36527882734E+03  0.00000000000E+00 0.  1.
<mgrwt>
<rscale>  2 0.46317747E+03</rscale>
<asrwt>0</asrwt>
<pdfrwt beam="1">  1       21 0.27294242E+00 0.46354508E+03</pdfrwt>
<pdfrwt beam="2">  1       21 0.19606732E-01 0.46354508E+03</pdfrwt>
<totfact> 0.94681808E+02</totfact>
</mgrwt>
</event>
<event>
12    2  0.4090627E-002  0.1878399E+03  0.7546771E-02  0.1160566E+00
         21   -1    0    0  501  502  0.00000000000E+00  0.00000000000E+00  0.18306833841E+03  0.18306833841E+03  0.00000000000E+00 0.  1.
         21   -1    0    0  502  503 -0.00000000000E+00 -0.00000000000E+00 -0.24880639809E+03  0.24880639809E+03  0.00000000000E+00 0.  1.
         -6    2    1    2    0  503 -0.52246337618E+02  0.50025226257E+02  0.70177805312E+02  0.20052115560E+03  0.17335399167E+03 0.  0.
        -24    2    3    3    0    0  0.29722376390E+02 -0.58692823527E+01  0.49284506024E+02  0.99023933355E+02  0.80367336085E+02 0.  0.
          6    2    1    2  501    0  0.52246337618E+02 -0.50025226257E+02 -0.13591586500E+03  0.23135358089E+03  0.17268223411E+03 0.  0.
         24    2    5    5    0    0  0.69907325591E+02  0.16782930345E+02 -0.11747493693E+03  0.15967793571E+03  0.80795924552E+02 0.  0.
          5    1    5    5  501    0 -0.17660987973E+02 -0.66808156601E+02 -0.18440928070E+02  0.71675645185E+02  0.47000000000E+01 0. -1.
        -15    1    6    6    0    0  0.59050364792E+02 -0.96851826765E+01 -0.11658346537E+03  0.13105575329E+03  0.17770000000E+01 0.  1.
         16    1    6    6    0    0  0.10856960799E+02  0.26468113021E+02 -0.89147156046E+00  0.28622182416E+02  0.00000000000E+00 0. -1.
         -5    1    3    3    0  503 -0.81968714009E+02  0.55894508609E+02  0.20893299288E+02  0.10149722225E+03  0.47000000000E+01 0.  1.
         15    1    4    4    0    0  0.25834341022E+02 -0.13478049988E+02 -0.15926978800E+02  0.33255035562E+02  0.17770000000E+01 0. -1.
        -16    1    4    4    0    0  0.38880353684E+01  0.76087676356E+01  0.65211484824E+02  0.65768897793E+02  0.00000000000E+00 0.  1.
<mgrwt>
<rscale>  2 0.18768472E+03</rscale>
<asrwt>0</asrwt>
<pdfrwt beam="1">  1       21 0.28164360E-01 0.18783985E+03</pdfrwt>
<pdfrwt beam="2">  1       21 0.38277907E-01 0.18783985E+03</pdfrwt>
<totfact> 0.79440357E+04</totfact>
</mgrwt>
</event>
<event>
12    2  0.4090627E-002  0.1859591E+03  0.7546771E-02  0.1162211E+00
         21   -1    0    0  503  502  0.00000000000E+00  0.00000000000E+00  0.22836402553E+03  0.22836402553E+03  0.00000000000E+00 0.  1.
         21   -1    0    0  501  503 -0.00000000000E+00 -0.00000000000E+00 -0.44724314037E+03  0.44724314037E+03  0.00000000000E+00 0.  1.
          6    2    1    2  501    0  0.26614584649E+02 -0.63887090828E+02 -0.38423160742E+03  0.42676535164E+03  0.17235092322E+03 0.  0.
         24    2    3    3    0    0  0.22329822678E+02  0.30222566338E+02 -0.22285506068E+03  0.23984433465E+03  0.80305057720E+02 0.  0.
         -6    2    1    2    0  502 -0.26614584649E+02  0.63887090828E+02  0.16535249258E+03  0.24884181425E+03  0.17260042071E+03 0.  0.
        -24    2    5    5    0    0  0.26999942200E+02  0.24601180079E+02  0.24166135742E+02  0.92721419593E+02  0.81725421960E+02 0.  0.
          5    1    3    3  501    0  0.42847619704E+01 -0.94109657165E+02 -0.16137654673E+03  0.18692101699E+03  0.47000000000E+01 0. -1.
        -15    1    4    4    0    0 -0.50051076408E+01 -0.24416268972E+02 -0.41140968739E+02  0.48134627149E+02  0.17770000000E+01 0.  1.
         16    1    4    4    0    0  0.27334930319E+02  0.54638835310E+02 -0.18171409194E+03  0.19170970750E+03  0.00000000000E+00 0. -1.
         -5    1    5    5    0  502 -0.53614526849E+02  0.39285910749E+02  0.14118635683E+03  0.15612039466E+03  0.47000000000E+01 0.  1.
         15    1    6    6    0    0  0.15406955502E+02  0.43096028157E+02 -0.14735962562E+02  0.48113909032E+02  0.17770000000E+01 0. -1.
        -16    1    6    6    0    0  0.11592986698E+02 -0.18494848078E+02  0.38902098303E+02  0.44607510561E+02  0.00000000000E+00 0.  1.
<mgrwt>
<rscale>  2 0.18590123E+03</rscale>
<asrwt>0</asrwt>
<pdfrwt beam="1">  1       21 0.35132927E-01 0.18595914E+03</pdfrwt>
<pdfrwt beam="2">  1       21 0.68806637E-01 0.18595914E+03</pdfrwt>
<totfact> 0.15094136E+04</totfact>
</mgrwt>
</event>
<event>
12    2  0.4090627E-002  0.3372502E+03  0.7546771E-02  0.1069009E+00
         21   -1    0    0  501  502  0.00000000000E+00  0.00000000000E+00  0.65457364830E+03  0.65457364830E+03  0.00000000000E+00 0. -1.
         21   -1    0    0  502  503 -0.00000000000E+00 -0.00000000000E+00 -0.31741885155E+03  0.31741885155E+03  0.00000000000E+00 0. -1.
         -6    2    1    2    0  503 -0.12679891625E+03 -0.24801083569E+03 -0.16255217803E+03  0.37438068983E+03  0.19013245528E+03 0.  0.
        -24    2    3    3    0    0 -0.63816854462E+02 -0.25397349199E+03 -0.13637768193E+03  0.30575498310E+03  0.79448801215E+02 0.  0.
          6    2    1    2  501    0  0.12679891625E+03  0.24801083569E+03  0.49970697478E+03  0.59761181002E+03  0.17275842975E+03 0.  0.
         24    2    5    5    0    0  0.10932213027E+03  0.18153575582E+03  0.24525087845E+03  0.33399396303E+03  0.80606545358E+02 0.  0.
          5    1    5    5  501    0  0.17476785984E+02  0.66475079878E+02  0.25445609633E+03  0.26361784699E+03  0.47000000000E+01 0. -1.
        -15    1    6    6    0    0 -0.19621845616E+01  0.56280889973E+01  0.44078258654E+02  0.44514898281E+02  0.17770000000E+01 0.  1.
         16    1    6    6    0    0  0.11128431483E+03  0.17590766682E+03  0.20117261979E+03  0.28947906475E+03  0.00000000000E+00 0. -1.
         -5    1    3    3    0  503 -0.62982061790E+02  0.59626563011E+01 -0.26174496108E+02  0.68625706729E+02  0.47000000000E+01 0.  1.
         15    1    4    4    0    0 -0.29817157734E+02 -0.39818485639E+02 -0.54923057906E+02  0.74123374941E+02  0.17770000000E+01 0. -1.
        -16    1    4    4    0    0 -0.33999696729E+02 -0.21415500636E+03 -0.81454624020E+02  0.23163160816E+03  0.00000000000E+00 0.  1.
<mgrwt>
<rscale>  2 0.33485460E+03</rscale>
<asrwt>0</asrwt>
<pdfrwt beam="1">  1       21 0.10070364E+00 0.33725019E+03</pdfrwt>
<pdfrwt beam="2">  1       21 0.48833670E-01 0.33725019E+03</pdfrwt>
<totfact> 0.29413863E+03</totfact>
</mgrwt>
</event>
<event>
12    2  0.4090627E-002  0.3601366E+03  0.7546771E-02  0.1058581E+00
         21   -1    0    0  501  502  0.00000000000E+00  0.00000000000E+00  0.55569239227E+03  0.55569239227E+03  0.00000000000E+00 0.  1.
         21   -1    0    0  502  503 -0.00000000000E+00 -0.00000000000E+00 -0.31695613048E+03  0.31695613048E+03  0.00000000000E+00 0.  1.
         -6    2    1    2    0  503 -0.19092375302E+02  0.31479134230E+03 -0.10517260864E+03  0.37468097585E+03  0.17281911953E+03 0.  0.
        -24    2    3    3    0    0 -0.46220054104E+02  0.29744994075E+03 -0.57434989842E+02  0.31690896348E+03  0.80744983872E+02 0.  0.
          6    2    1    2  501    0  0.19092375302E+02 -0.31479134230E+03  0.34390887043E+03  0.49796754690E+03  0.17389726458E+03 0.  0.
         24    2    5    5    0    0 -0.14252728824E+02 -0.20551752248E+03  0.30475007854E+03  0.37710330633E+03  0.83028314162E+02 0.  0.
          5    1    5    5  501    0  0.33345104126E+02 -0.10927381982E+03  0.39158791891E+02  0.12086424057E+03  0.47000000000E+01 0. -1.
        -15    1    6    6    0    0  0.31100605787E+02 -0.96120850281E+02  0.16951624762E+03  0.19734584230E+03  0.17770000000E+01 0.  1.
         16    1    6    6    0    0 -0.45353334612E+02 -0.10939667220E+03  0.13523383092E+03  0.17975746403E+03  0.00000000000E+00 0. -1.
         -5    1    3    3    0  503  0.27127678802E+02  0.17341401543E+02 -0.47737618795E+02  0.57772012366E+02  0.47000000000E+01 0.  1.
         15    1    4    4    0    0 -0.30954676330E+02  0.18491094486E+03  0.45051427002E+01  0.18754653704E+03  0.17770000000E+01 0. -1.
        -16    1    4    4    0    0 -0.15265377775E+02  0.11253899589E+03 -0.61940132542E+02  0.12936242644E+03  0.00000000000E+00 0.  1.
<mgrwt>
<rscale>  2 0.36000668E+03</rscale>
<asrwt>0</asrwt>
<pdfrwt beam="1">  1       21 0.85491137E-01 0.36013659E+03</pdfrwt>
<pdfrwt beam="2">  1       21 0.48762482E-01 0.36013659E+03</pdfrwt>
<totfact> 0.43041167E+03</totfact>
</mgrwt>
</event>
<event>
12    2  0.4090627E-002  0.1832954E+03  0.7546771E-02  0.1165138E+00
         21   -1    0    0  503  502  0.00000000000E+00  0.00000000000E+00  0.48182189656E+03  0.48182189656E+03  0.00000000000E+00 0. -1.
         21   -1    0    0  501  503 -0.00000000000E+00 -0.00000000000E+00 -0.69042872989E+02  0.69042872989E+02  0.00000000000E+00 0. -1.
          6    2    1    2  501    0 -0.51562173209E+02 -0.25058370523E+02  0.19528649270E+03  0.26643516982E+03  0.17194274003E+03 0.  0.
         24    2    3    3    0    0 -0.16807178880E+02 -0.66357225225E+02  0.18261882606E+03  0.21079287648E+03  0.79988990125E+02 0.  0.
         -6    2    1    2    0  502  0.51562173209E+02  0.25058370523E+02  0.21749253088E+03  0.28442959973E+03  0.17409944450E+03 0.  0.
        -24    2    5    5    0    0  0.54374845599E+02 -0.48364102418E+02  0.12378464068E+03  0.16525733222E+03  0.81802434848E+02 0.  0.
          5    1    3    3  501    0 -0.34754994329E+02  0.41298854702E+02  0.12667666638E+02  0.55642293344E+02  0.47000000000E+01 0. -1.
        -15    1    4    4    0    0 -0.39659311914E+01  0.12686998138E+02  0.24552948759E+01  0.13633588445E+02  0.17770000000E+01 0.  1.
         16    1    4    4    0    0 -0.12841247689E+02 -0.79044223363E+02  0.18016353118E+03  0.19715928803E+03  0.00000000000E+00 0. -1.
         -5    1    5    5    0  502 -0.28126723902E+01  0.73422472941E+02  0.93707890201E+02  0.11917226751E+03  0.47000000000E+01 0.  1.
         15    1    6    6    0    0  0.27818007374E+02 -0.36982621409E+02  0.12794303197E+03  0.13606664903E+03  0.17770000000E+01 0. -1.
        -16    1    6    6    0    0  0.26556838225E+02 -0.11381481009E+02 -0.41583912935E+01  0.29190683182E+02  0.00000000000E+00 0.  1.
<mgrwt>
<rscale>  2 0.18278141E+03</rscale>
<asrwt>0</asrwt>
<pdfrwt beam="1">  1       21 0.74126444E-01 0.18329538E+03</pdfrwt>
<pdfrwt beam="2">  1       21 0.10621981E-01 0.18329538E+03</pdfrwt>
<totfact> 0.11942222E+05</totfact>
</mgrwt>
</event>
<event>
12    2  0.4090627E-002  0.3614491E+03  0.7546771E-02  0.1058394E+00
         21   -1    0    0  503  502  0.00000000000E+00  0.00000000000E+00  0.93203178373E+03  0.93203178373E+03  0.00000000000E+00 0. -1.
         21   -1    0    0  501  503 -0.00000000000E+00 -0.00000000000E+00 -0.17853410108E+03  0.17853410108E+03  0.00000000000E+00 0.  1.
          6    2    1    2  501    0  0.62965800961E+02 -0.31178307729E+03  0.11282992019E+03  0.37497044152E+03  0.16339786336E+03 0.  0.
         24    2    3    3    0    0  0.40634679494E+02 -0.27489118573E+03  0.43050843272E+02  0.29280657949E+03  0.81645432902E+02 0.  0.
         -6    2    1    2    0  502 -0.62965800961E+02  0.31178307729E+03  0.64066776246E+03  0.73559544328E+03  0.17167438641E+03 0.  0.
        -24    2    5    5    0    0 -0.68723057620E+02  0.17439586791E+03  0.49333940412E+03  0.53401140008E+03  0.81533001643E+02 0.  0.
          5    1    3    3  501    0  0.22331121466E+02 -0.36891891560E+02  0.69779076920E+02  0.82163862036E+02  0.47000000000E+01 0. -1.
        -15    1    4    4    0    0  0.63644734610E+02 -0.20194226033E+03  0.44201967375E+02  0.21630603413E+03  0.17770000000E+01 0.  1.
         16    1    4    4    0    0 -0.23010055116E+02 -0.72948925403E+02 -0.11511241030E+01  0.76500545361E+02  0.00000000000E+00 0. -1.
         -5    1    5    5    0  502  0.57572566595E+01  0.13738720939E+03  0.14732835833E+03  0.20158404321E+03  0.47000000000E+01 0.  1.
         15    1    6    6    0    0  0.10122050771E+02  0.47488309403E+02  0.18658045467E+03  0.19280305816E+03  0.17770000000E+01 0. -1.
        -16    1    6    6    0    0 -0.78845108391E+02  0.12690755851E+03  0.30675894945E+03  0.34120834192E+03  0.00000000000E+00 0.  1.
<mgrwt>
<rscale>  2 0.36048104E+03</rscale>
<asrwt>0</asrwt>
<pdfrwt beam="1">  1       21 0.14338950E+00 0.36144913E+03</pdfrwt>
<pdfrwt beam="2">  1       21 0.27466785E-01 0.36144913E+03</pdfrwt>
<totfact> 0.38244070E+03</totfact>
</mgrwt>
</event>
<event>
12    2  0.4090627E-002  0.3180106E+03  0.7546771E-02  0.1076595E+00
         21   -1    0    0  501  502  0.00000000000E+00  0.00000000000E+00  0.38678827758E+03  0.38678827758E+03  0.00000000000E+00 0. -1.
         21   -1    0    0  502  503 -0.00000000000E+00 -0.00000000000E+00 -0.26796948144E+03  0.26796948144E+03  0.00000000000E+00 0.  1.
         -6    2    1    2    0  503 -0.42870219371E+01  0.26643598565E+03  0.11117255250E+03  0.33688290399E+03  0.17356336470E+03 0.  0.
        -24    2    3    3    0    0  0.14808242305E+02  0.22979629627E+03  0.14462845044E+03  0.28351172206E+03  0.80223974270E+02 0.  0.
          6    2    1    2  501    0  0.42870219371E+01 -0.26643598565E+03  0.76462436420E+01  0.31787485503E+03  0.17314573462E+03 0.  0.
         24    2    5    5    0    0  0.40767173903E+02 -0.18620706024E+03  0.40864645735E+02  0.22357196962E+03  0.10945078610E+03 0.  0.
          5    1    5    5  501    0 -0.36480151965E+02 -0.80228925412E+02 -0.33218402093E+02  0.94302885416E+02  0.47000000000E+01 0. -1.
        -15    1    6    6    0    0 -0.62269488563E+01 -0.13909637178E+03 -0.10308696921E+02  0.13962808634E+03  0.17770000000E+01 0.  1.
         16    1    6    6    0    0  0.46994122759E+02 -0.47110688457E+02  0.51173342656E+02  0.83943883275E+02  0.00000000000E+00 0. -1.
         -5    1    3    3    0  503 -0.19095264242E+02  0.36639689375E+02 -0.33455897939E+02  0.53371181932E+02  0.47000000000E+01 0.  1.
         15    1    4    4    0    0 -0.31589965188E+02  0.12983904637E+03  0.80394840540E+02  0.15595701965E+03  0.17770000000E+01 0. -1.
        -16    1    4    4    0    0  0.46398207493E+02  0.99957249903E+02  0.64233609897E+02  0.12755470241E+03  0.00000000000E+00 0.  1.
<mgrwt>
<rscale>  2 0.31795367E+03</rscale>
<asrwt>0</asrwt>
<pdfrwt beam="1">  1       21 0.59505889E-01 0.31801062E+03</pdfrwt>
<pdfrwt beam="2">  1       21 0.41226074E-01 0.31801062E+03</pdfrwt>
<totfact> 0.14017765E+04</totfact>
</mgrwt>
</event>
<event>
12    2  0.4090627E-002  0.2123831E+03  0.7546771E-02  0.1139881E+00
         21   -1    0    0  501  502  0.00000000000E+00  0.00000000000E+00  0.22635341781E+04  0.22635341781E+04  0.00000000000E+00 0. -1.
         21   -1    0    0  502  503 -0.00000000000E+00 -0.00000000000E+00 -0.37189685342E+02  0.37189685342E+02  0.00000000000E+00 0. -1.
         -6    2    1    2    0  503  0.93981617713E+02  0.77543764653E+02  0.32873863608E+03  0.39137666306E+03  0.17395695339E+03 0.  0.
        -24    2    3    3    0    0  0.11353848088E+03  0.93536194995E+02  0.32434600414E+03  0.36530725684E+03  0.81296095139E+02 0.  0.
          6    2    1    2  501    0 -0.93981617713E+02 -0.77543764653E+02  0.18976058567E+04  0.19093472004E+04  0.17278068291E+03 0.  0.
         24    2    5    5    0    0  0.16428475933E+02 -0.38843662102E+02  0.62135319122E+03  0.62773452768E+03  0.78690050849E+02 0.  0.
          5    1    5    5  501    0 -0.11041009365E+03 -0.38700102551E+02  0.12762526655E+04  0.12816126727E+04  0.47000000000E+01 0. -1.
        -15    1    6    6    0    0  0.13039171828E+02  0.21941583857E+02  0.11991156322E+03  0.12261074107E+03  0.17770000000E+01 0.  1.
         16    1    6    6    0    0  0.33893041045E+01 -0.60785245959E+02  0.50144162800E+03  0.50512378661E+03  0.00000000000E+00 0. -1.
         -5    1    3    3    0  503 -0.19556863169E+02 -0.15992430342E+02  0.43926319374E+01  0.26069406218E+02  0.47000000000E+01 0.  1.
         15    1    4    4    0    0  0.11801370467E+02  0.20961097888E+02  0.14331381946E+03  0.14532944831E+03  0.17770000000E+01 0. -1.
        -16    1    4    4    0    0  0.10173711042E+03  0.72575097107E+02  0.18103218468E+03  0.21997780853E+03  0.00000000000E+00 0.  1.
<mgrwt>
<rscale>  2 0.21214214E+03</rscale>
<asrwt>0</asrwt>
<pdfrwt beam="1">  1       21 0.34823592E+00 0.21238315E+03</pdfrwt>
<pdfrwt beam="2">  1       21 0.57214918E-02 0.21238315E+03</pdfrwt>
<totfact> 0.37377192E+03</totfact>
</mgrwt>
</event>
<event>
12    2  0.4090627E-002  0.2144727E+03  0.7546771E-02  0.1138106E+00
         21   -1    0    0  501  502  0.00000000000E+00  0.00000000000E+00  0.28397071856E+03  0.28397071856E+03  0.00000000000E+00 0.  1.
         21   -1    0    0  502  503 -0.00000000000E+00 -0.00000000000E+00 -0.16356698167E+03  0.16356698167E+03  0.00000000000E+00 0. -1.
         -6    2    1    2    0  503  0.12430750310E+03 -0.75375520534E+01  0.83138092672E+02  0.23002282477E+03  0.17461210566E+03 0.  0.
        -24    2    3    3    0    0  0.10500861145E+03  0.33637447283E+01  0.12541008137E+03  0.18206141821E+03  0.79878333959E+02 0.  0.
          6    2    1    2  501    0 -0.12430750310E+03  0.75375520534E+01  0.37265644220E+02  0.21751487547E+03  0.17439845983E+03 0.  0.
         24    2    5    5    0    0  0.22263724038E+00 -0.24813470777E+02  0.22761144819E+01  0.84095605031E+02  0.80318940413E+02 0.  0.
          5    1    5    5  501    0 -0.12453014034E+03  0.32351022830E+02  0.34989529739E+02  0.13341927043E+03  0.47000000000E+01 0. -1.
        -15    1    6    6    0    0 -0.41204048300E+01  0.14710463366E+02  0.31295481680E+02  0.34870336549E+02  0.17770000000E+01 0.  1.
         16    1    6    6    0    0  0.43430420704E+01 -0.39523934143E+02 -0.29019367198E+02  0.49225268482E+02  0.00000000000E+00 0. -1.
         -5    1    3    3    0  503  0.19298891651E+02 -0.10901296782E+02 -0.42271988695E+02  0.47961406554E+02  0.47000000000E+01 0.  1.
         15    1    4    4    0    0  0.36940645686E+02 -0.28932019604E+01 -0.23437174133E+01  0.37170319632E+02  0.17770000000E+01 0. -1.
        -16    1    4    4    0    0  0.68067965767E+02  0.62569466887E+01  0.12775379878E+03  0.14489109858E+03  0.00000000000E+00 0.  1.
<mgrwt>
<rscale>  2 0.21442925E+03</rscale>
<asrwt>0</asrwt>
<pdfrwt beam="1">  1       21 0.43687803E-01 0.21447274E+03</pdfrwt>
<pdfrwt beam="2">  1       21 0.25164151E-01 0.21447274E+03</pdfrwt>
<totfact> 0.74609800E+04</totfact>
</mgrwt>
</event>
<event>
12    2  0.4090627E-002  0.1815960E+03  0.7546771E-02  0.1166465E+00
         21   -1    0    0  503  502  0.00000000000E+00  0.00000000000E+00  0.20305063677E+04  0.20305063677E+04  0.00000000000E+00 0.  1.
         21   -1    0    0  501  503 -0.00000000000E+00 -0.00000000000E+00 -0.13883119469E+03  0.13883119469E+03  0.00000000000E+00 0.  1.
          6    2    1    2  501    0 -0.38499163952E+02 -0.34568281865E+02 -0.73470275088E+02  0.19589532727E+03  0.17406879729E+03 0.  0.
         24    2    3    3    0    0  0.17533286550E+02 -0.46553492713E+02  0.41949578388E+01  0.99265832840E+02  0.85798974802E+02 0.  0.
         -6    2    1    2    0  502  0.38499163952E+02  0.34568281865E+02  0.19651454481E+04  0.19734422351E+04  0.17320644160E+03 0.  0.
        -24    2    5    5    0    0  0.92020726728E+02  0.34763013174E+02  0.13652006836E+04  0.13710964822E+04  0.80351576036E+02 0.  0.
          5    1    3    3  501    0 -0.56032450502E+02  0.11985210848E+02 -0.77665232927E+02  0.96629494431E+02  0.47000000000E+01 0. -1.
        -15    1    4    4    0    0 -0.34204910026E+02 -0.24606059494E+02 -0.44365136020E+01  0.42406065788E+02  0.17770000000E+01 0.  1.
         16    1    4    4    0    0  0.51738196577E+02 -0.21947433219E+02  0.86314714408E+01  0.56859767052E+02  0.00000000000E+00 0. -1.
         -5    1    5    5    0  502 -0.53521562776E+02 -0.19473130866E+00  0.59994476444E+03  0.60234575286E+03  0.47000000000E+01 0.  1.
         15    1    6    6    0    0  0.35649175589E+02  0.53003364069E+02  0.87453683632E+03  0.87686832314E+03  0.17770000000E+01 0. -1.
        -16    1    6    6    0    0  0.56371551138E+02 -0.18240350895E+02  0.49066384729E+03  0.49422815907E+03  0.00000000000E+00 0.  1.
<mgrwt>
<rscale>  2 0.18138901E+03</rscale>
<asrwt>0</asrwt>
<pdfrwt beam="1">  1       21 0.31238557E+00 0.18159597E+03</pdfrwt>
<pdfrwt beam="2">  1       21 0.21358647E-01 0.18159597E+03</pdfrwt>
<totfact> 0.60095772E+02</totfact>
</mgrwt>
</event>
<event>
12    2  0.4090627E-002  0.1747562E+03  0.7546771E-02  0.1173131E+00
         21   -1    0    0  501  502  0.00000000000E+00  0.00000000000E+00  0.16817606949E+03  0.16817606949E+03  0.00000000000E+00 0. -1.
         21   -1    0    0  502  503 -0.00000000000E+00 -0.00000000000E+00 -0.41182393071E+03  0.41182393071E+03  0.00000000000E+00 0. -1.
         -6    2    1    2    0  503 -0.23030421056E+02  0.47312576561E+01 -0.33886053908E+03  0.38098952928E+03  0.17255077915E+03 0.  0.
        -24    2    3    3    0    0  0.30445509547E+02  0.41880318707E+02 -0.12266872591E+03  0.15515614386E+03  0.79655021898E+02 0.  0.
          6    2    1    2  501    0  0.23030421056E+02 -0.47312576561E+01  0.95212677860E+02  0.19901047092E+03  0.17316734223E+03 0.  0.
         24    2    5    5    0    0  0.36358149290E+02  0.61239956415E+02  0.80929988626E+02  0.13004733121E+03  0.72735122294E+02 0.  0.
          5    1    5    5  501    0 -0.13327728235E+02 -0.65971214071E+02  0.14282689234E+02  0.68963139702E+02  0.47000000000E+01 0. -1.
        -15    1    6    6    0    0  0.37365440800E+02  0.17147968407E+02  0.39648390295E+01  0.41341343280E+02  0.17770000000E+01 0.  1.
         16    1    6    6    0    0 -0.10072915101E+01  0.44091988008E+02  0.76965149596E+02  0.88705987932E+02  0.00000000000E+00 0. -1.
         -5    1    3    3    0  503 -0.53475930603E+02 -0.37149061051E+02 -0.21619181317E+03  0.22583338542E+03  0.47000000000E+01 0.  1.
         15    1    4    4    0    0  0.11239969828E+02 -0.23608845635E+01  0.91497636159E+01  0.14791436741E+02  0.17770000000E+01 0. -1.
        -16    1    4    4    0    0  0.19205539719E+02  0.44241203271E+02 -0.13181848953E+03  0.14036470712E+03  0.00000000000E+00 0.  1.
<mgrwt>
<rscale>  2 0.17460322E+03</rscale>
<asrwt>0</asrwt>
<pdfrwt beam="1">  1       21 0.25873242E-01 0.17475615E+03</pdfrwt>
<pdfrwt beam="2">  1       21 0.63357527E-01 0.17475615E+03</pdfrwt>
<totfact> 0.32996784E+04</totfact>
</mgrwt>
</event>
<event>
12    2  0.4090627E-002  0.1866615E+03  0.7546771E-02  0.1162220E+00
         21   -1    0    0  503  502  0.00000000000E+00  0.00000000000E+00  0.52188596799E+02  0.52188596799E+02  0.00000000000E+00 0. -1.
         21   -1    0    0  501  503 -0.00000000000E+00 -0.00000000000E+00 -0.80963588535E+03  0.80963588535E+03  0.00000000000E+00 0.  1.
          6    2    1    2  501    0 -0.39820056720E+02 -0.46459234240E+02 -0.56344882174E+03  0.59260727511E+03  0.17310317856E+03 0.  0.
         24    2    3    3    0    0 -0.12001186129E+02 -0.61122857487E+02 -0.17969371198E+03  0.20753717023E+03  0.83077161269E+02 0.  0.
         -6    2    1    2    0  502  0.39820056720E+02  0.46459234240E+02 -0.19399846681E+03  0.26921720704E+03  0.17634739034E+03 0.  0.
        -24    2    5    5    0    0  0.68783954982E+02  0.18660842751E+02 -0.48144133247E+02  0.11786584566E+03  0.80591814054E+02 0.  0.
          5    1    3    3  501    0 -0.27818870591E+02  0.14663623247E+02 -0.38375510976E+03  0.38507010488E+03  0.47000000000E+01 0. -1.
        -15    1    4    4    0    0  0.32345286316E+01 -0.76947145110E+02 -0.16180675931E+03  0.17920912478E+03  0.17770000000E+01 0.  1.
         16    1    4    4    0    0 -0.15235714760E+02  0.15824287624E+02 -0.17886952666E+02  0.28328045445E+02  0.00000000000E+00 0. -1.
         -5    1    5    5    0  502 -0.28963898262E+02  0.27798391489E+02 -0.14585433356E+03  0.15135136138E+03  0.47000000000E+01 0.  1.
         15    1    6    6    0    0  0.82649547956E+02 -0.80180950920E+00 -0.30332393320E+02  0.88061356390E+02  0.17770000000E+01 0. -1.
        -16    1    6    6    0    0 -0.13865592974E+02  0.19462652260E+02 -0.17811739928E+02  0.29804489272E+02  0.00000000000E+00 0.  1.
<mgrwt>
<rscale>  2 0.18589123E+03</rscale>
<asrwt>0</asrwt>
<pdfrwt beam="1">  1       21 0.80290156E-02 0.18666146E+03</pdfrwt>
<pdfrwt beam="2">  1       21 0.12455936E+00 0.18666146E+03</pdfrwt>
<totfact> 0.57562742E+04</totfact>
</mgrwt>
</event>
<event>
12    2  0.4090627E-002  0.2272375E+03  0.7546771E-02  0.1128606E+00
         21   -1    0    0  503  502  0.00000000000E+00  0.00000000000E+00  0.39831431394E+03  0.39831431394E+03  0.00000000000E+00 0.  1.
         21   -1    0    0  501  503 -0.00000000000E+00 -0.00000000000E+00 -0.25820006240E+03  0.25820006240E+03  0.00000000000E+00 0.  1.
          6    2    1    2  501    0 -0.14031285850E+03 -0.45642589580E+02 -0.16158769139E+03  0.27883230111E+03  0.17281760873E+03 0.  0.
         24    2    3    3    0    0 -0.92801237091E+02 -0.79853562413E+02 -0.16376369435E+03  0.22005671247E+03  0.81349542595E+02 0.  0.
         -6    2    1    2    0  502  0.14031285850E+03  0.45642589580E+02  0.30170194294E+03  0.37768207522E+03  0.17276788860E+03 0.  0.
        -24    2    5    5    0    0  0.15346517308E+03  0.78434971479E+02  0.26749147616E+03  0.32827792837E+03  0.80691414263E+02 0.  0.
          5    1    3    3  501    0 -0.47511621408E+02  0.34210972833E+02  0.21760029560E+01  0.58775588639E+02  0.47000000000E+01 0. -1.
        -15    1    4    4    0    0 -0.47461373725E+01  0.14444926067E+02 -0.64726977870E+01  0.16620326551E+02  0.17770000000E+01 0.  1.
         16    1    4    4    0    0 -0.88055099719E+02 -0.94298488480E+02 -0.15729099656E+03  0.20343638592E+03  0.00000000000E+00 0. -1.
         -5    1    5    5    0  502 -0.13152314582E+02 -0.32792381899E+02  0.34210466773E+02  0.49404146853E+02  0.47000000000E+01 0.  1.
         15    1    6    6    0    0  0.94335004355E+02  0.88673719466E+02  0.19645294275E+03  0.23528501443E+03  0.17770000000E+01 0. -1.
        -16    1    6    6    0    0  0.59130168726E+02 -0.10238747987E+02  0.71038533411E+02  0.92992913940E+02  0.00000000000E+00 0.  1.
<mgrwt>
<rscale>  2 0.22722802E+03</rscale>
<asrwt>0</asrwt>
<pdfrwt beam="1">  1       21 0.61279125E-01 0.22723748E+03</pdfrwt>
<pdfrwt beam="2">  1       21 0.39723086E-01 0.22723748E+03</pdfrwt>
<totfact> 0.14810707E+04</totfact>
</mgrwt>
</event>
<event>
12    2  0.4090627E-002  0.3204389E+03  0.7546771E-02  0.1075564E+00
         21   -1    0    0  501  502  0.00000000000E+00  0.00000000000E+00  0.13551904491E+04  0.13551904491E+04  0.00000000000E+00 0. -1.
         21   -1    0    0  502  503 -0.00000000000E+00 -0.00000000000E+00 -0.75764764645E+02  0.75764764645E+02  0.00000000000E+00 0. -1.
         -6    2    1    2    0  503  0.26023614752E+03  0.70668518038E+02  0.59876206081E+03  0.67863608121E+03  0.17121341462E+03 0.  0.
        -24    2    3    3    0    0  0.82044902884E+02 -0.23513804080E+02  0.23504958697E+03  0.26278600836E+03  0.80770742141E+02 0.  0.
          6    2    1    2  501    0 -0.26023614752E+03 -0.70668518038E+02  0.68066362361E+03  0.75231913249E+03  0.17310175242E+03 0.  0.
         24    2    5    5    0    0 -0.19374471562E+03 -0.53106987634E+02  0.63209853932E+03  0.66799727721E+03  0.79463400285E+02 0.  0.
          5    1    5    5  501    0 -0.66491431898E+02 -0.17561530403E+02  0.48565084292E+02  0.84321855282E+02  0.47000000000E+01 0. -1.
        -15    1    6    6    0    0 -0.44445172776E+02 -0.49273712742E+02  0.21127590207E+03  0.22145865681E+03  0.17770000000E+01 0.  1.
         16    1    6    6    0    0 -0.14929954285E+03 -0.38332748917E+01  0.42082263725E+03  0.44653862040E+03  0.00000000000E+00 0. -1.
         -5    1    3    3    0  503  0.17819124464E+03  0.94182322117E+02  0.36371247384E+03  0.41585007285E+03  0.47000000000E+01 0.  1.
         15    1    4    4    0    0  0.94207215633E+02 -0.37472145693E+01  0.18816515878E+03  0.21047167459E+03  0.17770000000E+01 0. -1.
        -16    1    4    4    0    0 -0.12162312749E+02 -0.19766589510E+02  0.46884428183E+02  0.52314333775E+02  0.00000000000E+00 0.  1.
<mgrwt>
<rscale>  2 0.32018460E+03</rscale>
<asrwt>0</asrwt>
<pdfrwt beam="1">  1       21 0.20849082E+00 0.32043893E+03</pdfrwt>
<pdfrwt beam="2">  1       21 0.11656119E-01 0.32043893E+03</pdfrwt>
<totfact> 0.66989240E+03</totfact>
</mgrwt>
</event>
<event>
12    2  0.4090627E-002  0.2414932E+03  0.7546771E-02  0.1119708E+00
         21   -1    0    0  503  502  0.00000000000E+00  0.00000000000E+00  0.29867990764E+03  0.29867990764E+03  0.00000000000E+00 0.  1.
         21   -1    0    0  501  503 -0.00000000000E+00 -0.00000000000E+00 -0.20425508582E+03  0.20425508582E+03  0.00000000000E+00 0. -1.
          6    2    1    2  501    0  0.11746450365E+03  0.11068602628E+03 -0.17589357373E+02  0.23672808521E+03  0.17228318200E+03 0.  0.
         24    2    3    3    0    0  0.12296117031E+03  0.37365409946E+02  0.22390037780E+02  0.15290345779E+03  0.79765470903E+02 0.  0.
         -6    2    1    2    0  502 -0.11746450365E+03 -0.11068602628E+03  0.11201417919E+03  0.26620690825E+03  0.17963751176E+03 0.  0.
        -24    2    5    5    0    0 -0.35074333882E+00 -0.22505388891E+02  0.80093739749E+02  0.11609874019E+03  0.80977125022E+02 0.  0.
          5    1    3    3  501    0 -0.54966666606E+01  0.73320616338E+02 -0.39979395152E+02  0.83824627415E+02  0.47000000000E+01 0. -1.
        -15    1    4    4    0    0  0.93786597245E+02  0.60879931797E+02  0.27300320827E+02  0.11511193320E+03  0.17770000000E+01 0.  1.
         16    1    4    4    0    0  0.29174573065E+02 -0.23514521851E+02 -0.49102830479E+01  0.37791524593E+02  0.00000000000E+00 0. -1.
         -5    1    5    5    0  502 -0.11711376031E+03 -0.88180637393E+02  0.31920439437E+02  0.15010816806E+03  0.47000000000E+01 0.  1.
         15    1    6    6    0    0  0.30506093619E+02 -0.38258232762E+02  0.41003192681E+02  0.63864964268E+02  0.17770000000E+01 0. -1.
        -16    1    6    6    0    0 -0.30856836958E+02  0.15752843870E+02  0.39090547068E+02  0.52233775922E+02  0.00000000000E+00 0.  1.
<mgrwt>
<rscale>  2 0.24012674E+03</rscale>
<asrwt>0</asrwt>
<pdfrwt beam="1">  1       21 0.45950755E-01 0.24149315E+03</pdfrwt>
<pdfrwt beam="2">  1       21 0.31423859E-01 0.24149315E+03</pdfrwt>
<totfact> 0.43180359E+04</totfact>
</mgrwt>
</event>
<event>
12    2  0.4090627E-002  0.2560032E+03  0.7546771E-02  0.1109647E+00
         21   -1    0    0  503  502  0.00000000000E+00  0.00000000000E+00  0.39775320465E+03  0.39775320465E+03  0.00000000000E+00 0.  1.
         21   -1    0    0  501  503 -0.00000000000E+00 -0.00000000000E+00 -0.32794404505E+03  0.32794404505E+03  0.00000000000E+00 0. -1.
          6    2    1    2  501    0 -0.15297709414E+03 -0.11159921073E+03 -0.22131897558E+03  0.33802050934E+03  0.17152084600E+03 0.  0.
         24    2    3    3    0    0 -0.16287146652E+03 -0.86074245852E+02 -0.12271952629E+03  0.23558338795E+03  0.80644653497E+02 0.  0.
         -6    2    1    2    0  502  0.15297709414E+03  0.11159921073E+03  0.29112813518E+03  0.38767674036E+03  0.17228258401E+03 0.  0.
        -24    2    5    5    0    0  0.11817678357E+03  0.50947669451E+02  0.93969139890E+02  0.17843183481E+03  0.80288873590E+02 0.  0.
          5    1    3    3  501    0  0.98943723846E+01 -0.25524964874E+02 -0.98599449297E+02  0.10243712139E+03  0.47000000000E+01 0. -1.
        -15    1    4    4    0    0 -0.36267170709E+01 -0.30045286084E+02 -0.75999545485E+01  0.31253629081E+02  0.17770000000E+01 0.  1.
         16    1    4    4    0    0 -0.15924474945E+03 -0.56028959769E+02 -0.11511957174E+03  0.20432975887E+03  0.00000000000E+00 0. -1.
         -5    1    5    5    0  502  0.34800310565E+02  0.60651541276E+02  0.19715899529E+03  0.20924490555E+03  0.47000000000E+01 0.  1.
         15    1    6    6    0    0  0.11602036766E+03  0.53400649893E+02  0.10598693127E+03  0.16597813847E+03  0.17770000000E+01 0. -1.
        -16    1    6    6    0    0  0.21564159125E+01 -0.24529804424E+01 -0.12017791383E+02  0.12453696333E+02  0.00000000000E+00 0.  1.
<mgrwt>
<rscale>  2 0.25587515E+03</rscale>
<asrwt>0</asrwt>
<pdfrwt beam="1">  1       21 0.61192801E-01 0.25600325E+03</pdfrwt>
<pdfrwt beam="2">  1       21 0.50452930E-01 0.25600325E+03</pdfrwt>
<totfact> 0.89259717E+03</totfact>
</mgrwt>
</event>
<event>
12    2  0.4090627E-002  0.1734318E+03  0.7546771E-02  0.1174800E+00
         21   -1    0    0  503  502  0.00000000000E+00  0.00000000000E+00  0.20710479269E+02  0.20710479269E+02  0.00000000000E+00 0. -1.
         21   -1    0    0  501  503 -0.00000000000E+00 -0.00000000000E+00 -0.15778281443E+04  0.15778281443E+04  0.00000000000E+00 0. -1.
          6    2    1    2  501    0 -0.46813900227E+01 -0.14258338534E+02 -0.10216487037E+04  0.10362647705E+04  0.17278132188E+03 0.  0.
         24    2    3    3    0    0 -0.11057746510E+01 -0.26999453855E+02 -0.23583327317E+03  0.25032386821E+03  0.79463910141E+02 0.  0.
         -6    2    1    2    0  502  0.46813900227E+01  0.14258338534E+02 -0.53546896127E+03  0.56227385301E+03  0.17087908490E+03 0.  0.
        -24    2    5    5    0    0 -0.54569647080E+02 -0.14190704282E+02 -0.40148207846E+03  0.41296006194E+03  0.78542542398E+02 0.  0.
          5    1    3    3  501    0 -0.35756153716E+01  0.12741115321E+02 -0.78581543057E+03  0.78594090234E+03  0.47000000000E+01 0. -1.
        -15    1    4    4    0    0 -0.34492125735E+02 -0.27636813059E+02 -0.17920308119E+03  0.18458169522E+03  0.17770000000E+01 0.  1.
         16    1    4    4    0    0  0.33386351084E+02  0.63735920370E+00 -0.56630191978E+02  0.65742172986E+02  0.00000000000E+00 0. -1.
         -5    1    5    5    0  502  0.59251037102E+02  0.28449042816E+02 -0.13398688282E+03  0.14931379106E+03  0.47000000000E+01 0.  1.
         15    1    6    6    0    0 -0.44339966611E+02  0.27737647541E+02 -0.25178511992E+03  0.25716592712E+03  0.17770000000E+01 0. -1.
        -16    1    6    6    0    0 -0.10229680468E+02 -0.41928351824E+02 -0.14969695854E+03  0.15579413482E+03  0.00000000000E+00 0.  1.
<mgrwt>
<rscale>  2 0.17295612E+03</rscale>
<asrwt>0</asrwt>
<pdfrwt beam="1">  1       21 0.31862272E-02 0.17343183E+03</pdfrwt>
<pdfrwt beam="2">  1       21 0.24274282E+00 0.17343183E+03</pdfrwt>
<totfact> 0.42670270E+04</totfact>
</mgrwt>
</event>
<event>
12    2  0.4090627E-002  0.1998995E+03  0.7546771E-02  0.1154389E+00
         21   -1    0    0  503  502  0.00000000000E+00  0.00000000000E+00  0.10355003083E+03  0.10355003083E+03  0.00000000000E+00 0. -1.
         21   -1    0    0  501  503 -0.00000000000E+00 -0.00000000000E+00 -0.40437702758E+03  0.40437702758E+03  0.00000000000E+00 0. -1.
          6    2    1    2  501    0 -0.32667839780E+02  0.32377295987E+02 -0.23859638547E+03  0.29856503253E+03  0.17348592577E+03 0.  0.
         24    2    3    3    0    0  0.29785685285E+02 -0.29020677047E+02 -0.10805598515E+03  0.14129761696E+03  0.80990949415E+02 0.  0.
         -6    2    1    2    0  502  0.32667839780E+02 -0.32377295987E+02 -0.62230611284E+02  0.20936202587E+03  0.19453619675E+03 0.  0.
        -24    2    5    5    0    0  0.44619945135E+02  0.35407597516E+02  0.21525922188E+02  0.10084985370E+03  0.80390858934E+02 0.  0.
          5    1    3    3  501    0 -0.62453525065E+02  0.61397973034E+02 -0.13054040032E+03  0.15726741557E+03  0.47000000000E+01 0. -1.
        -15    1    4    4    0    0  0.22225521822E+02  0.82239402919E+00  0.60453189848E+01  0.23116093157E+02  0.17770000000E+01 0.  1.
         16    1    4    4    0    0  0.75601634634E+01 -0.29843071076E+02 -0.11410130413E+03  0.11818152380E+03  0.00000000000E+00 0. -1.
         -5    1    5    5    0  502 -0.11952105355E+02 -0.67784893504E+02 -0.83756533472E+02  0.10851217217E+03  0.47000000000E+01 0.  1.
         15    1    6    6    0    0 -0.16515563645E+01  0.44842342318E+02  0.28391202728E+02  0.53129854360E+02  0.17770000000E+01 0. -1.
        -16    1    6    6    0    0  0.46271501499E+02 -0.94347448013E+01 -0.68652805396E+01  0.47719999343E+02  0.00000000000E+00 0.  1.
<mgrwt>
<rscale>  2 0.19458637E+03</rscale>
<asrwt>0</asrwt>
<pdfrwt beam="1">  1       21 0.15930774E-01 0.19989950E+03</pdfrwt>
<pdfrwt beam="2">  1       21 0.62211849E-01 0.19989950E+03</pdfrwt>
<totfact> 0.83977351E+04</totfact>
</mgrwt>
</event>
<event>
12    2  0.4090627E-002  0.3124309E+03  0.7546771E-02  0.1080183E+00
         21   -1    0    0  501  502  0.00000000000E+00  0.00000000000E+00  0.14752719855E+03  0.14752719855E+03  0.00000000000E+00 0. -1.
         21   -1    0    0  502  503 -0.00000000000E+00 -0.00000000000E+00 -0.76392983273E+03  0.76392983273E+03  0.00000000000E+00 0. -1.
         -6    2    1    2    0  503 -0.24270987239E+03 -0.71008948643E+02 -0.48508747361E+03  0.57255180809E+03  0.16898332151E+03 0.  0.
        -24    2    3    3    0    0 -0.15177397236E+03 -0.11070938563E+03 -0.30618136940E+03  0.36791811894E+03  0.79528639641E+02 0.  0.
          6    2    1    2  501    0  0.24270987239E+03  0.71008948643E+02 -0.13131516056E+03  0.33890522319E+03  0.18347404713E+03 0.  0.
         24    2    5    5    0    0  0.20417472614E+03  0.77743953259E+02 -0.35817827616E+02  0.23559913245E+03  0.80576630454E+02 0.  0.
          5    1    5    5  501    0  0.38535146248E+02 -0.67350046164E+01 -0.95497332947E+02  0.10330609074E+03  0.47000000000E+01 0. -1.
        -15    1    6    6    0    0  0.14828074809E+02 -0.15356943352E+02  0.85587262769E+00  0.21438231238E+02  0.17770000000E+01 0.  1.
         16    1    6    6    0    0  0.18934665133E+03  0.93100896611E+02 -0.36673700244E+02  0.21416090122E+03  0.00000000000E+00 0. -1.
         -5    1    3    3    0  503 -0.90935900030E+02  0.39700436988E+02 -0.17890610421E+03  0.20463368915E+03  0.47000000000E+01 0.  1.
         15    1    4    4    0    0 -0.34431525137E+02  0.96341182564E+01 -0.49057480681E+02  0.60730060906E+02  0.17770000000E+01 0. -1.
        -16    1    4    4    0    0 -0.11734244722E+03 -0.12034350389E+03 -0.25712388872E+03  0.30718805804E+03  0.00000000000E+00 0.  1.
<mgrwt>
<rscale>  2 0.31033916E+03</rscale>
<asrwt>0</asrwt>
<pdfrwt beam="1">  1       21 0.22696492E-01 0.31243092E+03</pdfrwt>
<pdfrwt beam="2">  1       21 0.11752767E+00 0.31243092E+03</pdfrwt>
<totfact> 0.94400447E+03</totfact>
</mgrwt>
</event>
<event>
12    2  0.4090627E-002  0.2093947E+03  0.7546771E-02  0.1142056E+00
         21   -1    0    0  503  502  0.00000000000E+00  0.00000000000E+00  0.84271102984E+03  0.84271102984E+03  0.00000000000E+00 0. -1.
         21   -1    0    0  501  503 -0.00000000000E+00 -0.00000000000E+00 -0.66230366038E+02  0.66230366038E+02  0.00000000000E+00 0. -1.
          6    2    1    2  501    0  0.49815147089E+02 -0.10774247845E+03  0.17767708665E+03  0.27458197962E+03  0.17244165932E+03 0.  0.
         24    2    3    3    0    0  0.31322896365E+01 -0.12965823605E+03  0.14592695590E+03  0.21383866383E+03  0.87242353675E+02 0.  0.
         -6    2    1    2    0  502 -0.49815147089E+02  0.10774247845E+03  0.59880357716E+03  0.63435941626E+03  0.17249972301E+03 0.  0.
        -24    2    5    5    0    0 -0.52680698434E+02  0.15564830795E+02  0.44372613596E+03  0.45387109841E+03  0.78029291245E+02 0.  0.
          5    1    3    3  501    0  0.46682857452E+02  0.21915757598E+02  0.31750130748E+02  0.60743315793E+02  0.47000000000E+01 0. -1.
        -15    1    4    4    0    0 -0.25527617731E+02 -0.22926874770E+01  0.26344200170E+02  0.36797965901E+02  0.17770000000E+01 0.  1.
         16    1    4    4    0    0  0.28659907368E+02 -0.12736554857E+03  0.11958275573E+03  0.17704069792E+03  0.00000000000E+00 0. -1.
         -5    1    5    5    0  502  0.28655513447E+01  0.92177647659E+02  0.15507744120E+03  0.18048831785E+03  0.47000000000E+01 0.  1.
         15    1    6    6    0    0 -0.51623741540E+02 -0.15798603760E+01  0.13325295661E+03  0.14292310808E+03  0.17770000000E+01 0. -1.
        -16    1    6    6    0    0 -0.10569568940E+01  0.17144691171E+02  0.31047317935E+03  0.31094799033E+03  0.00000000000E+00 0.  1.
<mgrwt>
<rscale>  2 0.20938275E+03</rscale>
<asrwt>0</asrwt>
<pdfrwt beam="1">  1       21 0.12964784E+00 0.20939471E+03</pdfrwt>
<pdfrwt beam="2">  1       21 0.10189288E-01 0.20939471E+03</pdfrwt>
<totfact> 0.33833624E+04</totfact>
</mgrwt>
</event>
<event>
12    2  0.4090627E-002  0.2058648E+03  0.7546771E-02  0.1145004E+00
         21   -1    0    0  501  502  0.00000000000E+00  0.00000000000E+00  0.78812664903E+03  0.78812664903E+03  0.00000000000E+00 0.  1.
         21   -1    0    0  502  503 -0.00000000000E+00 -0.00000000000E+00 -0.15329608882E+03  0.15329608882E+03  0.00000000000E+00 0.  1.
         -6    2    1    2    0  503  0.11198325828E+03  0.92479570382E+00 -0.62313563701E+02  0.21451816802E+03  0.17202894759E+03 0.  0.
        -24    2    3    3    0    0  0.36819286533E+02  0.13478182596E+02  0.29105672210E+02  0.95409911103E+02  0.81967003818E+02 0.  0.
          6    2    1    2  501    0 -0.11198325828E+03 -0.92479570382E+00  0.69714412391E+03  0.72690456983E+03  0.17274032174E+03 0.  0.
         24    2    5    5    0    0 -0.60257504062E+02 -0.38069208350E+01  0.64556753085E+03  0.65365093343E+03  0.82804869620E+02 0.  0.
          5    1    5    5  501    0 -0.51725754222E+02  0.28821251312E+01  0.51576593053E+02  0.73253636401E+02  0.47000000000E+01 0. -1.
        -15    1    6    6    0    0 -0.64542125416E+02 -0.14998813139E+02  0.27449887893E+03  0.28238881460E+03  0.17770000000E+01 0.  1.
         16    1    6    6    0    0  0.42846213534E+01  0.11191892304E+02  0.37106865192E+03  0.37126211883E+03  0.00000000000E+00 0. -1.
         -5    1    3    3    0  503  0.75163971751E+02 -0.12553386892E+02 -0.91419235911E+02  0.11910825692E+03  0.47000000000E+01 0.  1.
         15    1    4    4    0    0  0.19906100506E+02  0.39814883028E+02  0.42309717826E+02  0.61438975410E+02  0.17770000000E+01 0. -1.
        -16    1    4    4    0    0  0.16913186027E+02 -0.26336700432E+02 -0.13204045615E+02  0.33970935693E+02  0.00000000000E+00 0.  1.
<mgrwt>
<rscale>  2 0.20571552E+03</rscale>
<asrwt>0</asrwt>
<pdfrwt beam="1">  1       21 0.12125025E+00 0.20586482E+03</pdfrwt>
<pdfrwt beam="2">  1       21 0.23584014E-01 0.20586482E+03</pdfrwt>
<totfact> 0.86264142E+03</totfact>
</mgrwt>
</event>
<event>
12    2  0.4090627E-002  0.2250292E+03  0.7546771E-02  0.1131935E+00
         21   -1    0    0  501  502  0.00000000000E+00  0.00000000000E+00  0.54313881741E+02  0.54313881741E+02  0.00000000000E+00 0.  1.
         21   -1    0    0  502  503 -0.00000000000E+00 -0.00000000000E+00 -0.99139679379E+03  0.99139679379E+03  0.00000000000E+00 0.  1.
         -6    2    1    2    0  503  0.55598177497E+02 -0.11634522496E+03 -0.64170961087E+03  0.68002159343E+03  0.18442010231E+03 0.  0.
        -24    2    3    3    0    0  0.10157913641E+03 -0.62858896181E+02 -0.32330854305E+03  0.35386769427E+03  0.80152163137E+02 0.  0.
          6    2    1    2  501    0 -0.55598177497E+02  0.11634522496E+03 -0.29537330117E+03  0.36568908210E+03  0.17278816223E+03 0.  0.
         24    2    5    5    0    0 -0.66990608048E+01  0.13671812343E+03 -0.19167813611E+03  0.24915172386E+03  0.81236389340E+02 0.  0.
          5    1    5    5  501    0 -0.48899116692E+02 -0.20372898470E+02 -0.10369516507E+03  0.11653735823E+03  0.47000000000E+01 0. -1.
        -15    1    6    6    0    0 -0.36318313263E+02  0.99703359753E+02 -0.16049035271E+03  0.19240605725E+03  0.17770000000E+01 0.  1.
         16    1    6    6    0    0  0.29619252458E+02  0.37014763680E+02 -0.31187783397E+02  0.56745666616E+02  0.00000000000E+00 0. -1.
         -5    1    3    3    0  503 -0.45980958911E+02 -0.53486328782E+02 -0.31840106783E+03  0.32615389917E+03  0.47000000000E+01 0.  1.
         15    1    4    4    0    0  0.87962973516E+02 -0.92743245989E+01 -0.20526867440E+03  0.22352155203E+03  0.17770000000E+01 0. -1.
        -16    1    4    4    0    0  0.13616162892E+02 -0.53584571582E+02 -0.11803986865E+03  0.13034614223E+03  0.00000000000E+00 0.  1.
<mgrwt>
<rscale>  2 0.22263378E+03</rscale>
<asrwt>0</asrwt>
<pdfrwt beam="1">  1       21 0.83559820E-02 0.22502920E+03</pdfrwt>
<pdfrwt beam="2">  1       21 0.15252258E+00 0.22502920E+03</pdfrwt>
<totfact> 0.31203086E+04</totfact>
</mgrwt>
</event>
<event>
12    2  0.4090627E-002  0.1799986E+03  0.7546771E-02  0.1168620E+00
         21   -1    0    0  501  502  0.00000000000E+00  0.00000000000E+00  0.10808327145E+03  0.10808327145E+03  0.00000000000E+00 0. -1.
         21   -1    0    0  502  503 -0.00000000000E+00 -0.00000000000E+00 -0.12347019646E+04  0.12347019646E+04  0.00000000000E+00 0. -1.
         -6    2    1    2    0  503  0.23786221530E+02 -0.33597162898E+02 -0.11480071949E+04  0.11615203029E+04  0.17179738327E+03 0.  0.
        -24    2    3    3    0    0  0.60294640488E+02  0.23636233422E+02 -0.81069312806E+03  0.81741073318E+03  0.82114819800E+02 0.  0.
          6    2    1    2  501    0 -0.23786221530E+02  0.33597162898E+02  0.21388501708E+02  0.18126493316E+03  0.17522829194E+03 0.  0.
         24    2    5    5    0    0 -0.43351713978E+01 -0.46905098916E+02 -0.13783357687E+01  0.95245305182E+02  0.82770081155E+02 0.  0.
          5    1    5    5  501    0 -0.19451050132E+02  0.80502261813E+02  0.22766837477E+02  0.86019627975E+02  0.47000000000E+01 0. -1.
        -15    1    6    6    0    0 -0.38807725487E+02 -0.40718411262E+02 -0.14041504228E+02  0.58003018397E+02  0.17770000000E+01 0.  1.
         16    1    6    6    0    0  0.34472554089E+02 -0.61866876542E+01  0.12663168460E+02  0.37242286785E+02  0.00000000000E+00 0. -1.
         -5    1    3    3    0  503 -0.36508418958E+02 -0.57233396320E+02 -0.33731406680E+03  0.34410956972E+03  0.47000000000E+01 0.  1.
         15    1    4    4    0    0 -0.58403142194E+01 -0.17068623457E+02 -0.32889520073E+03  0.32939438060E+03  0.17770000000E+01 0. -1.
        -16    1    4    4    0    0  0.66134954708E+02  0.40704856879E+02 -0.48179792733E+03  0.48801635258E+03  0.00000000000E+00 0.  1.
<mgrwt>
<rscale>  2 0.17915821E+03</rscale>
<asrwt>0</asrwt>
<pdfrwt beam="1">  1       21 0.16628195E-01 0.17999863E+03</pdfrwt>
<pdfrwt beam="2">  1       21 0.18995415E+00 0.17999863E+03</pdfrwt>
<totfact> 0.51309275E+03</totfact>
</mgrwt>
</event>
<event>
12    2  0.4090627E-002  0.1941680E+03  0.7546771E-02  0.1154809E+00
         21   -1    0    0  503  502  0.00000000000E+00  0.00000000000E+00  0.31582834436E+03  0.31582834436E+03  0.00000000000E+00 0.  1.
         21   -1    0    0  501  503 -0.00000000000E+00 -0.00000000000E+00 -0.14147411654E+03  0.14147411654E+03  0.00000000000E+00 0.  1.
          6    2    1    2  501    0 -0.84952760529E+02  0.18730829373E+02 -0.35556602510E+01  0.19395258451E+03  0.17331228124E+03 0.  0.
         24    2    3    3    0    0 -0.48596741188E+02 -0.20191746408E+02 -0.62650363104E+02  0.11425941697E+03  0.79754601700E+02 0.  0.
         -6    2    1    2    0  502  0.84952760529E+02 -0.18730829373E+02  0.17790988807E+03  0.26334987639E+03  0.17358978551E+03 0.  0.
        -24    2    5    5    0    0 -0.26155336279E+02 -0.73468697517E+01  0.73615702307E+02  0.11046439344E+03  0.77749806953E+02 0.  0.
          5    1    3    3  501    0 -0.36356019341E+02  0.38922575781E+02  0.59094702853E+02  0.79693167543E+02  0.47000000000E+01 0. -1.
        -15    1    4    4    0    0 -0.59440604312E+02  0.55004770506E+01 -0.19390488070E+02  0.62790042565E+02  0.17770000000E+01 0.  1.
         16    1    4    4    0    0  0.10843863124E+02 -0.25692223459E+02 -0.43259875035E+02  0.51469374406E+02  0.00000000000E+00 0. -1.
         -5    1    5    5    0  502  0.11110809681E+03 -0.11383959621E+02  0.10429418576E+03  0.15288548295E+03  0.47000000000E+01 0.  1.
         15    1    6    6    0    0  0.77443518806E+00 -0.16107404283E+01 -0.16265923376E+02  0.16460019042E+02  0.17770000000E+01 0. -1.
        -16    1    6    6    0    0 -0.26929771467E+02 -0.57361293233E+01  0.89881625683E+02  0.94004374400E+02  0.00000000000E+00 0.  1.
<mgrwt>
<rscale>  2 0.19410600E+03</rscale>
<asrwt>0</asrwt>
<pdfrwt beam="1">  1       21 0.48588976E-01 0.19416804E+03</pdfrwt>
<pdfrwt beam="2">  1       21 0.21765249E-01 0.19416804E+03</pdfrwt>
<totfact> 0.79613840E+04</totfact>
</mgrwt>
</event>
<event>
12    2  0.4090627E-002  0.2778261E+03  0.7546771E-02  0.1096965E+00
         21   -1    0    0  503  502  0.00000000000E+00  0.00000000000E+00  0.11579289271E+04  0.11579289271E+04  0.00000000000E+00 0.  1.
         21   -1    0    0  501  503 -0.00000000000E+00 -0.00000000000E+00 -0.11442857397E+03  0.11442857397E+03  0.00000000000E+00 0.  1.
          6    2    1    2  501    0 -0.46634284038E+02 -0.21124428318E+03  0.11042147849E+03  0.29896524448E+03  0.17432272046E+03 0.  0.
         24    2    3    3    0    0 -0.63468433611E+02 -0.21957915790E+03  0.66883638190E+02  0.25131556173E+03  0.80267315024E+02 0.  0.
         -6    2    1    2    0  502  0.46634284038E+02  0.21124428318E+03  0.93307887463E+03  0.97339225658E+03  0.17337068747E+03 0.  0.
        -24    2    5    5    0    0 -0.33465574333E+02  0.76741451403E+02  0.49276018527E+03  0.50604908795E+03  0.79144704189E+02 0.  0.
          5    1    3    3  501    0  0.16834149573E+02  0.83348747164E+01  0.43537840295E+02  0.47649682748E+02  0.47000000000E+01 0. -1.
        -15    1    4    4    0    0  0.62151074048E+01 -0.12149924760E+03  0.27730869442E+02  0.12479123999E+03  0.17770000000E+01 0.  1.
         16    1    4    4    0    0 -0.69683541016E+02 -0.98079910298E+02  0.39152768748E+02  0.12652432175E+03  0.00000000000E+00 0. -1.
         -5    1    5    5    0  502  0.80099858371E+02  0.13450283178E+03  0.44031868936E+03  0.46734316863E+03  0.47000000000E+01 0.  1.
         15    1    6    6    0    0 -0.11146878184E+02  0.37585098299E+02  0.65049646773E+02  0.75970433603E+02  0.17770000000E+01 0. -1.
        -16    1    6    6    0    0 -0.22318696149E+02  0.39156353104E+02  0.42771053850E+03  0.43007865435E+03  0.00000000000E+00 0.  1.
<mgrwt>
<rscale>  2 0.27767684E+03</rscale>
<asrwt>0</asrwt>
<pdfrwt beam="1">  1       21 0.17814290E+00 0.27782605E+03</pdfrwt>
<pdfrwt beam="2">  1       21 0.17604397E-01 0.27782605E+03</pdfrwt>
<totfact> 0.51426057E+03</totfact>
</mgrwt>
</event>
<event>
12    2  0.4090627E-002  0.2351618E+03  0.7546771E-02  0.1124226E+00
         21   -1    0    0  501  502  0.00000000000E+00  0.00000000000E+00  0.42378267156E+03  0.42378267156E+03  0.00000000000E+00 0.  1.
         21   -1    0    0  502  503 -0.00000000000E+00 -0.00000000000E+00 -0.12696576997E+03  0.12696576997E+03  0.00000000000E+00 0. -1.
         -6    2    1    2    0  503  0.15724196217E+03 -0.93285524059E+01  0.16082535954E+03  0.28489626115E+03  0.17461107294E+03 0.  0.
        -24    2    3    3    0    0  0.59821760449E+02  0.36716322135E+02  0.19545263691E+02  0.10715211453E+03  0.78567340430E+02 0.  0.
          6    2    1    2  501    0 -0.15724196217E+03  0.93285524059E+01  0.13599154206E+03  0.26585218037E+03  0.16544372379E+03 0.  0.
         24    2    5    5    0    0 -0.31953504653E+02  0.20558413179E+02  0.18896763556E+02  0.93931895029E+02  0.83799990566E+02 0.  0.
          5    1    5    5  501    0 -0.12528845752E+03 -0.11229860773E+02  0.11709477850E+03  0.17192028534E+03  0.47000000000E+01 0. -1.
        -15    1    6    6    0    0 -0.35420638920E+02  0.40781588520E+02  0.37864422560E+02  0.65989634402E+02  0.17770000000E+01 0.  1.
         16    1    6    6    0    0  0.34671342673E+01 -0.20223175341E+02 -0.18967659004E+02  0.27942260627E+02  0.00000000000E+00 0. -1.
         -5    1    3    3    0  503  0.97420201722E+02 -0.46044874541E+02  0.14128009585E+03  0.17774414662E+03  0.47000000000E+01 0.  1.
         15    1    4    4    0    0  0.68104809186E+02  0.46845197992E+01 -0.83394304820E+00  0.68293945193E+02  0.17770000000E+01 0. -1.
        -16    1    4    4    0    0 -0.82830487373E+01  0.32031802336E+02  0.20379206739E+02  0.38858169342E+02  0.00000000000E+00 0.  1.
<mgrwt>
<rscale>  2 0.23346240E+03</rscale>
<asrwt>0</asrwt>
<pdfrwt beam="1">  1       21 0.65197333E-01 0.23516182E+03</pdfrwt>
<pdfrwt beam="2">  1       21 0.19533196E-01 0.23516182E+03</pdfrwt>
<totfact> 0.51216298E+04</totfact>
</mgrwt>
</event>
<event>
12    2  0.4090627E-002  0.1748618E+03  0.7546771E-02  0.1172921E+00
         21   -1    0    0  501  502  0.00000000000E+00  0.00000000000E+00  0.52953822483E+03  0.52953822483E+03  0.00000000000E+00 0.  1.
         21   -1    0    0  502  503 -0.00000000000E+00 -0.00000000000E+00 -0.19345047347E+03  0.19345047347E+03  0.00000000000E+00 0.  1.
         -6    2    1    2    0  503  0.27853413063E+01  0.26512183121E+02 -0.13483368973E+03  0.22065051717E+03  0.17261481066E+03 0.  0.
        -24    2    3    3    0    0 -0.89696466558E+01 -0.24076348667E+02 -0.12297274268E+02  0.87479039725E+02  0.82711754368E+02 0.  0.
          6    2    1    2  501    0 -0.27853413063E+01 -0.26512183121E+02  0.47092144109E+03  0.50233818113E+03  0.17281779583E+03 0.  0.
         24    2    5    5    0    0 -0.29169082837E+01 -0.50363584508E+02  0.46838281693E+03  0.47789556935E+03  0.80353674488E+02 0.  0.
          5    1    5    5  501    0  0.13156697747E+00  0.23851401387E+02  0.25386241588E+01  0.24442611780E+02  0.47000000000E+01 0. -1.
        -15    1    6    6    0    0 -0.12166324739E+02 -0.70662519011E+02  0.32790162775E+03  0.33565435534E+03  0.17770000000E+01 0.  1.
         16    1    6    6    0    0  0.92494164553E+01  0.20298934503E+02  0.14048118919E+03  0.14224121401E+03  0.00000000000E+00 0. -1.
         -5    1    3    3    0  503  0.11754987962E+02  0.50588531787E+02 -0.12253641546E+03  0.13317147744E+03  0.47000000000E+01 0.  1.
         15    1    4    4    0    0  0.36296330167E+02 -0.50526618303E+01  0.66670809784E+00  0.36695438461E+02  0.17770000000E+01 0. -1.
        -16    1    4    4    0    0 -0.45265976823E+02 -0.19023686836E+02 -0.12963982366E+02  0.50783601264E+02  0.00000000000E+00 0.  1.
<mgrwt>
<rscale>  2 0.17481161E+03</rscale>
<asrwt>0</asrwt>
<pdfrwt beam="1">  1       21 0.81467419E-01 0.17486179E+03</pdfrwt>
<pdfrwt beam="2">  1       21 0.29761611E-01 0.17486179E+03</pdfrwt>
<totfact> 0.14453573E+04</totfact>
</mgrwt>
</event>
<event>
12    2  0.4090627E-002  0.2802176E+03  0.7546771E-02  0.1095844E+00
         21   -1    0    0  501  502  0.00000000000E+00  0.00000000000E+00  0.32716633396E+03  0.32716633396E+03  0.00000000000E+00 0.  1.
         21   -1    0    0  502  503 -0.00000000000E+00 -0.00000000000E+00 -0.28356462406E+03  0.28356462406E+03  0.00000000000E+00 0. -1.
         -6    2    1    2    0  503  0.17370194963E+03  0.13185826065E+03 -0.10027673597E+03  0.29573424943E+03  0.17275518603E+03 0.  0.
        -24    2    3    3    0    0  0.67476748918E+02  0.17760436813E+01 -0.12734129666E+02  0.10628511547E+03  0.81105497575E+02 0.  0.
          6    2    1    2  501    0 -0.17370194963E+03 -0.13185826065E+03  0.14387844587E+03  0.31499670859E+03  0.17596292515E+03 0.  0.
         24    2    5    5    0    0 -0.14139523573E+03 -0.33932247800E+02  0.44069063409E+02  0.17140969461E+03  0.79342239240E+02 0.  0.
          5    1    5    5  501    0 -0.32306713897E+02 -0.97926012851E+02  0.99809382460E+02  0.14358701398E+03  0.47000000000E+01 0. -1.
        -15    1    6    6    0    0  0.29660181215E+01  0.28409696764E+01  0.20014704655E+02  0.20508888405E+02  0.17770000000E+01 0.  1.
         16    1    6    6    0    0 -0.14436125386E+03 -0.36773217476E+02  0.24054358755E+02  0.15090080621E+03  0.00000000000E+00 0. -1.
         -5    1    3    3    0  503  0.10622520071E+03  0.13008221697E+03 -0.87542606302E+02  0.18944913396E+03  0.47000000000E+01 0.  1.
         15    1    4    4    0    0  0.51582267795E+02 -0.13212771924E+00 -0.46147290329E+02  0.69234947406E+02  0.17770000000E+01 0. -1.
        -16    1    4    4    0    0  0.15894481123E+02  0.19081714006E+01  0.33413160663E+02  0.37050168066E+02  0.00000000000E+00 0.  1.
<mgrwt>
<rscale>  2 0.27971550E+03</rscale>
<asrwt>0</asrwt>
<pdfrwt beam="1">  1       21 0.50333282E-01 0.28021763E+03</pdfrwt>
<pdfrwt beam="2">  1       21 0.43625327E-01 0.28021763E+03</pdfrwt>
<totfact> 0.18128090E+04</totfact>
</mgrwt>
</event>
<event>
12    2  0.4090627E-002  0.1865537E+03  0.7546771E-02  0.1161865E+00
         21   -1    0    0  501  502  0.00000000000E+00  0.00000000000E+00  0.97690874643E+02  0.97690874643E+02  0.00000000000E+00 0.  1.
         21   -1    0    0  502  503 -0.00000000000E+00 -0.00000000000E+00 -0.56321681697E+03  0.56321681697E+03  0.00000000000E+00 0. -1.
         -6    2    1    2    0  503  0.24405346868E+02  0.65261214446E+02 -0.30979172694E+02  0.18800897920E+03  0.17185173857E+03 0.  0.
        -24    2    3    3    0    0  0.62052697044E+02  0.87586446033E+02  0.14717328350E+00  0.13409535982E+03  0.80371768208E+02 0.  0.
          6    2    1    2  501    0 -0.24405346868E+02 -0.65261214446E+02 -0.43454676963E+03  0.47289871242E+03  0.17305389375E+03 0.  0.
         24    2    5    5    0    0 -0.66497970148E+02  0.42705929160E+01 -0.25156042689E+03  0.27261752808E+03  0.81224689848E+02 0.  0.
          5    1    5    5  501    0  0.42092623280E+02 -0.69531807362E+02 -0.18298634274E+03  0.20028118434E+03  0.47000000000E+01 0. -1.
        -15    1    6    6    0    0 -0.50245583926E+02 -0.33313907298E+02 -0.11241960035E+03  0.12757648449E+03  0.17770000000E+01 0.  1.
         16    1    6    6    0    0 -0.16252386222E+02  0.37584500214E+02 -0.13914082654E+03  0.14504104359E+03  0.00000000000E+00 0. -1.
         -5    1    3    3    0  503 -0.37647350176E+02 -0.22325231588E+02 -0.31126345978E+02  0.53913619380E+02  0.47000000000E+01 0.  1.
         15    1    4    4    0    0  0.10245878185E+02  0.15354600609E+02 -0.34116250492E+02  0.38830632962E+02  0.17770000000E+01 0. -1.
        -16    1    4    4    0    0  0.51806818859E+02  0.72231845424E+02  0.34263423775E+02  0.95264726853E+02  0.00000000000E+00 0.  1.
<mgrwt>
<rscale>  2 0.18627446E+03</rscale>
<asrwt>0</asrwt>
<pdfrwt beam="1">  1       21 0.15029365E-01 0.18655374E+03</pdfrwt>
<pdfrwt beam="2">  1       21 0.86648741E-01 0.18655374E+03</pdfrwt>
<totfact> 0.44957302E+04</totfact>
</mgrwt>
</event>
<event>
12    2  0.4090627E-002  0.2009619E+03  0.7546771E-02  0.1148954E+00
         21   -1    0    0  501  502  0.00000000000E+00  0.00000000000E+00  0.31396909737E+03  0.31396909737E+03  0.00000000000E+00 0.  1.
         21   -1    0    0  502  503 -0.00000000000E+00 -0.00000000000E+00 -0.12911983416E+03  0.12911983416E+03  0.00000000000E+00 0.  1.
         -6    2    1    2    0  503  0.73946133462E+02 -0.71575896573E+02  0.77752077555E+02  0.21537090550E+03  0.17247638026E+03 0.  0.
        -24    2    3    3    0    0  0.36135130038E+02  0.18633572775E+02 -0.52256436205E+01  0.87016659165E+02  0.76756979903E+02 0.  0.
          6    2    1    2  501    0 -0.73946133462E+02  0.71575896573E+02  0.10709718566E+03  0.22771802603E+03  0.17261098627E+03 0.  0.
         24    2    5    5    0    0 -0.10139847297E+03  0.92456008056E+01  0.49374717301E+02  0.13831629189E+03  0.79538685170E+02 0.  0.
          5    1    5    5  501    0  0.27452339507E+02  0.62330295767E+02  0.57722468355E+02  0.89401734143E+02  0.47000000000E+01 0. -1.
        -15    1    6    6    0    0 -0.91209317086E+02  0.18666493114E+02  0.66039928010E+01  0.93350671869E+02  0.17770000000E+01 0.  1.
         16    1    6    6    0    0 -0.10189155883E+02 -0.94208923084E+01  0.42770724500E+02  0.44965620019E+02  0.00000000000E+00 0. -1.
         -5    1    3    3    0  503  0.37811003424E+02 -0.90209469347E+02  0.82977721175E+02  0.12835424633E+03  0.47000000000E+01 0.  1.
         15    1    4    4    0    0 -0.23662459638E+02  0.25970449637E+00 -0.59130176875E+01  0.24456102505E+02  0.17770000000E+01 0. -1.
        -16    1    4    4    0    0  0.59797589676E+02  0.18373868279E+02  0.68737406694E+00  0.62560556660E+02  0.00000000000E+00 0.  1.
<mgrwt>
<rscale>  2 0.20093301E+03</rscale>
<asrwt>0</asrwt>
<pdfrwt beam="1">  1       21 0.48302938E-01 0.20096192E+03</pdfrwt>
<pdfrwt beam="2">  1       21 0.19864590E-01 0.20096192E+03</pdfrwt>
<totfact> 0.95385881E+04</totfact>
</mgrwt>
</event>
<event>
12    2  0.4090627E-002  0.1739193E+03  0.7546771E-02  0.1174403E+00
         21   -1    0    0  501  502  0.00000000000E+00  0.00000000000E+00  0.14766323440E+03  0.14766323440E+03  0.00000000000E+00 0.  1.
         21   -1    0    0  502  503 -0.00000000000E+00 -0.00000000000E+00 -0.31233421796E+03  0.31233421796E+03  0.00000000000E+00 0.  1.
         -6    2    1    2    0  503 -0.73082449845E+01  0.19016073953E+02 -0.21858009132E+03  0.27791472698E+03  0.17042393505E+03 0.  0.
        -24    2    3    3    0    0 -0.31267655308E+02  0.45372448932E+02 -0.59219880210E+02  0.11455476025E+03  0.81113953751E+02 0.  0.
          6    2    1    2  501    0  0.73082449845E+01 -0.19016073953E+02  0.53909107767E+02  0.18208272538E+03  0.17272204685E+03 0.  0.
         24    2    5    5    0    0  0.57311025281E+02 -0.40114545120E+02  0.13618713771E+01  0.10639438034E+03  0.80150977073E+02 0.  0.
          5    1    5    5  501    0 -0.50002780297E+02  0.21098471167E+02  0.52547236390E+02  0.75688345042E+02  0.47000000000E+01 0. -1.
        -15    1    6    6    0    0  0.37241896350E+02 -0.23690547374E+00  0.34498880752E+02  0.50797101001E+02  0.17770000000E+01 0.  1.
         16    1    6    6    0    0  0.20069128931E+02 -0.39877639646E+02 -0.33137009375E+02  0.55597279341E+02  0.00000000000E+00 0. -1.
         -5    1    3    3    0  503  0.23959410324E+02 -0.26356374979E+02 -0.15936021111E+03  0.16335996673E+03  0.47000000000E+01 0.  1.
         15    1    4    4    0    0  0.25200660869E+02 -0.55795773972E+00 -0.14979745935E+02  0.29375757733E+02  0.17770000000E+01 0. -1.
        -16    1    4    4    0    0 -0.56468316178E+02  0.45930406672E+02 -0.44240134276E+02  0.85179002517E+02  0.00000000000E+00 0.  1.
<mgrwt>
<rscale>  2 0.17334596E+03</rscale>
<asrwt>0</asrwt>
<pdfrwt beam="1">  1       21 0.22717421E-01 0.17391931E+03</pdfrwt>
<pdfrwt beam="2">  1       21 0.48051418E-01 0.17391931E+03</pdfrwt>
<totfact> 0.75788754E+04</totfact>
</mgrwt>
</event>
<event>
12    2  0.4090627E-002  0.1869095E+03  0.7546771E-02  0.1165005E+00
         21   -1    0    0  501  502  0.00000000000E+00  0.00000000000E+00  0.63923160280E+02  0.63923160280E+02  0.00000000000E+00 0. -1.
         21   -1    0    0  502  503 -0.00000000000E+00 -0.00000000000E+00 -0.51934150417E+03  0.51934150417E+03  0.00000000000E+00 0. -1.
         -6    2    1    2    0  503 -0.25101119335E+02 -0.12674289805E+02 -0.27102963509E+03  0.32071114904E+03  0.16913862423E+03 0.  0.
        -24    2    3    3    0    0  0.44657973797E+02 -0.25738838279E+02 -0.19668435960E+03  0.21782128807E+03  0.78131644081E+02 0.  0.
          6    2    1    2  501    0  0.25101119335E+02  0.12674289805E+02 -0.18438870880E+03  0.26255351541E+03  0.18478216556E+03 0.  0.
         24    2    5    5    0    0 -0.43355832503E+02  0.47349990110E+02 -0.91840117740E+02  0.14223689082E+03  0.87606940980E+02 0.  0.
          5    1    5    5  501    0  0.68456951838E+02 -0.34675700305E+02 -0.92548591060E+02  0.12031662459E+03  0.47000000000E+01 0. -1.
        -15    1    6    6    0    0  0.28567794981E+01  0.95665585713E+01 -0.80920993742E+02  0.81553940366E+02  0.17770000000E+01 0.  1.
         16    1    6    6    0    0 -0.46212612001E+02  0.37783431539E+02 -0.10919123998E+02  0.60682950453E+02  0.00000000000E+00 0. -1.
         -5    1    3    3    0  503 -0.69759093132E+02  0.13064548474E+02 -0.74345275489E+02  0.10288986096E+03  0.47000000000E+01 0.  1.
         15    1    4    4    0    0  0.29528610993E+02  0.25600110679E+02 -0.67999996047E+02  0.78450377471E+02  0.17770000000E+01 0. -1.
        -16    1    4    4    0    0  0.15129362804E+02 -0.51338948958E+02 -0.12868436356E+03  0.13937091060E+03  0.00000000000E+00 0.  1.
<mgrwt>
<rscale>  2 0.18292130E+03</rscale>
<asrwt>0</asrwt>
<pdfrwt beam="1">  1       21 0.98343325E-02 0.18690948E+03</pdfrwt>
<pdfrwt beam="2">  1       21 0.79898692E-01 0.18690948E+03</pdfrwt>
<totfact> 0.11552203E+05</totfact>
</mgrwt>
</event>
<event>
12    2  0.4090627E-002  0.2332749E+03  0.7546771E-02  0.1124417E+00
         21   -1    0    0  501  502  0.00000000000E+00  0.00000000000E+00  0.21295878623E+03  0.21295878623E+03  0.00000000000E+00 0. -1.
         21   -1    0    0  502  503 -0.00000000000E+00 -0.00000000000E+00 -0.99641440363E+03  0.99641440363E+03  0.00000000000E+00 0. -1.
         -6    2    1    2    0  503 -0.41036116299E+02 -0.15052142315E+03 -0.91320533544E+03  0.94244219301E+03  0.17295271270E+03 0.  0.
        -24    2    3    3    0    0 -0.73773842943E+02 -0.89194992651E+02 -0.77537369483E+03  0.78800016189E+03  0.79633924258E+02 0.  0.
          6    2    1    2  501    0  0.41036116299E+02  0.15052142315E+03  0.12974971804E+03  0.26693099685E+03  0.17342579416E+03 0.  0.
         24    2    5    5    0    0  0.29451996192E+02  0.18155177299E+03  0.82731369566E+02  0.20922580174E+03  0.55700002216E+02 0.  0.
          5    1    5    5  501    0  0.11584120108E+02 -0.31030349839E+02  0.47018348474E+02  0.57705195113E+02  0.47000000000E+01 0. -1.
        -15    1    6    6    0    0 -0.63152734917E+01  0.20711372998E+02 -0.53729655529E+01  0.22380128207E+02  0.17770000000E+01 0.  1.
         16    1    6    6    0    0  0.35767269683E+02  0.16084039999E+03  0.88104335119E+02  0.18684567353E+03  0.00000000000E+00 0. -1.
         -5    1    3    3    0  503  0.32737726644E+02 -0.61326430502E+02 -0.13783164061E+03  0.15444203112E+03  0.47000000000E+01 0.  1.
         15    1    4    4    0    0  0.49920864995E+01 -0.53031500053E+02 -0.32921759781E+03  0.33350359123E+03  0.17770000000E+01 0. -1.
        -16    1    4    4    0    0 -0.78765929443E+02 -0.36163492598E+02 -0.44615609702E+03  0.45449657066E+03  0.00000000000E+00 0.  1.
<mgrwt>
<rscale>  2 0.23318695E+03</rscale>
<asrwt>0</asrwt>
<pdfrwt beam="1">  1       21 0.32762889E-01 0.23327488E+03</pdfrwt>
<pdfrwt beam="2">  1       21 0.15329453E+00 0.23327488E+03</pdfrwt>
<totfact> 0.24425985E+03</totfact>
</mgrwt>
</event>
<event>
12    2  0.4090627E-002  0.1923228E+03  0.7546771E-02  0.1157829E+00
         21   -1    0    0  501  502  0.00000000000E+00  0.00000000000E+00  0.44854555701E+03  0.44854555701E+03  0.00000000000E+00 0. -1.
         21   -1    0    0  502  503 -0.00000000000E+00 -0.00000000000E+00 -0.24006475085E+03  0.24006475085E+03  0.00000000000E+00 0. -1.
         -6    2    1    2    0  503 -0.39584561151E+01  0.69794219225E+02 -0.17653046856E+03  0.26105756546E+03  0.17916792052E+03 0.  0.
        -24    2    3    3    0    0  0.27943820598E+02 -0.16685604780E+02 -0.13428615159E+03  0.15955294717E+03  0.79781613946E+02 0.  0.
          6    2    1    2  501    0  0.39584561151E+01 -0.69794219225E+02  0.38501127472E+03  0.42755274241E+03  0.17228105951E+03 0.  0.
         24    2    5    5    0    0  0.51993156324E+02 -0.73130262543E+02  0.18101214256E+03  0.21789540881E+03  0.81619175580E+02 0.  0.
          5    1    5    5  501    0 -0.48034700209E+02  0.33360433183E+01  0.20399913216E+03  0.20965733359E+03  0.47000000000E+01 0. -1.
        -15    1    6    6    0    0 -0.42948800142E+01 -0.25157351745E+01 -0.73222458538E+01  0.90303893132E+01  0.17770000000E+01 0.  1.
         16    1    6    6    0    0  0.56288036338E+02 -0.70614527369E+02  0.18833438842E+03  0.20886501950E+03  0.00000000000E+00 0. -1.
         -5    1    3    3    0  503 -0.31902276714E+02  0.86479824004E+02 -0.42244316968E+02  0.10150461830E+03  0.47000000000E+01 0.  1.
         15    1    4    4    0    0  0.35501609101E+02 -0.99557602637E+01 -0.14206904121E+03  0.14678641494E+03  0.17770000000E+01 0. -1.
        -16    1    4    4    0    0 -0.75577885031E+01 -0.67298445159E+01  0.77828896198E+01  0.12766532227E+02  0.00000000000E+00 0.  1.
<mgrwt>
<rscale>  2 0.19070267E+03</rscale>
<asrwt>0</asrwt>
<pdfrwt beam="1">  1       21 0.69007009E-01 0.19232277E+03</pdfrwt>
<pdfrwt beam="2">  1       21 0.36933039E-01 0.19232277E+03</pdfrwt>
<totfact> 0.13523253E+04</totfact>
</mgrwt>
</event>
<event>
12    2  0.4090627E-002  0.1862195E+03  0.7546771E-02  0.1163201E+00
         21   -1    0    0  503  502  0.00000000000E+00  0.00000000000E+00  0.13837763585E+03  0.13837763585E+03  0.00000000000E+00 0. -1.
         21   -1    0    0  501  503 -0.00000000000E+00 -0.00000000000E+00 -0.28060412236E+03  0.28060412236E+03  0.00000000000E+00 0. -1.
          6    2    1    2  501    0  0.43763297486E+02 -0.47930895068E+01 -0.14840114886E+03  0.23811887215E+03  0.18094058798E+03 0.  0.
         24    2    3    3    0    0  0.16833957334E+02  0.13325765432E+02 -0.18071832174E+03  0.19207571927E+03  0.61424848192E+02 0.  0.
         -6    2    1    2    0  502 -0.43763297486E+02  0.47930895068E+01  0.61746623531E+01  0.18086288605E+03  0.17531416708E+03 0.  0.
        -24    2    5    5    0    0 -0.63117185846E+02 -0.50454414858E+02  0.27295052047E+02  0.11845278595E+03  0.82198634450E+02 0.  0.
          5    1    3    3  501    0  0.26929340152E+02 -0.18118854939E+02  0.32317172875E+02  0.46043152889E+02  0.47000000000E+01 0. -1.
        -15    1    4    4    0    0  0.13899791897E+02  0.27501757873E+01 -0.37459844139E+01  0.14763394253E+02  0.17770000000E+01 0.  1.
         16    1    4    4    0    0  0.29341654376E+01  0.10575589645E+02 -0.17697233733E+03  0.17731232501E+03  0.00000000000E+00 0. -1.
         -5    1    5    5    0  502  0.19353888360E+02  0.55247504365E+02 -0.21120389694E+02  0.62410100096E+02  0.47000000000E+01 0.  1.
         15    1    6    6    0    0  0.11771818539E+02  0.91393642024E+01 -0.72942725199E+01  0.16687355403E+02  0.17770000000E+01 0. -1.
        -16    1    6    6    0    0 -0.74889004385E+02 -0.59593779061E+02  0.34589324567E+02  0.10176543055E+03  0.00000000000E+00 0.  1.
<mgrwt>
<rscale>  2 0.18483869E+03</rscale>
<asrwt>0</asrwt>
<pdfrwt beam="1">  1       21 0.21288867E-01 0.18621948E+03</pdfrwt>
<pdfrwt beam="2">  1       21 0.43169864E-01 0.18621948E+03</pdfrwt>
<totfact> 0.10619103E+05</totfact>
</mgrwt>
</event>
<event>
12    2  0.4090627E-002  0.2041475E+03  0.7546771E-02  0.1146688E+00
         21   -1    0    0  503  502  0.00000000000E+00  0.00000000000E+00  0.50606751749E+03  0.50606751749E+03  0.00000000000E+00 0.  1.
         21   -1    0    0  501  503 -0.00000000000E+00 -0.00000000000E+00 -0.17655689962E+03  0.17655689962E+03  0.00000000000E+00 0.  1.
          6    2    1    2  501    0 -0.10149683258E+03 -0.16433084762E+02 -0.85956457127E+02  0.21971071253E+03  0.17410523077E+03 0.  0.
         24    2    3    3    0    0 -0.50453842218E+02 -0.45216184101E+02  0.14022399660E+02  0.10372918177E+03  0.77285328232E+02 0.  0.
         -6    2    1    2    0  502  0.10149683258E+03  0.16433084762E+02  0.41546707499E+03  0.46291370457E+03  0.17636483260E+03 0.  0.
        -24    2    5    5    0    0  0.51088397317E+02  0.80065641349E+02  0.19989039080E+03  0.23251077626E+03  0.71306111110E+02 0.  0.
          5    1    3    3  501    0 -0.51042990363E+02  0.28783099339E+02 -0.99978856787E+02  0.11598153076E+03  0.47000000000E+01 0. -1.
        -15    1    4    4    0    0 -0.15335675758E+02 -0.61580740421E+02  0.35046286144E+01  0.63583100683E+02  0.17770000000E+01 0.  1.
         16    1    4    4    0    0 -0.35118166460E+02  0.16364556321E+02  0.10517771045E+02  0.40146081090E+02  0.00000000000E+00 0. -1.
         -5    1    5    5    0  502  0.50408435264E+02 -0.63632556587E+02  0.21557668420E+03  0.23040292831E+03  0.47000000000E+01 0.  1.
         15    1    6    6    0    0 -0.17899420018E+02  0.21665592938E+02  0.53673216827E+02  0.60611542530E+02  0.17770000000E+01 0. -1.
        -16    1    6    6    0    0  0.68987817335E+02  0.58400048411E+02  0.14621717397E+03  0.17189923373E+03  0.00000000000E+00 0.  1.
<mgrwt>
<rscale>  2 0.20365854E+03</rscale>
<asrwt>0</asrwt>
<pdfrwt beam="1">  1       21 0.77856541E-01 0.20414751E+03</pdfrwt>
<pdfrwt beam="2">  1       21 0.27162600E-01 0.20414751E+03</pdfrwt>
<totfact> 0.18756991E+04</totfact>
</mgrwt>
</event>
<event>
12    2  0.4090627E-002  0.1991956E+03  0.7546771E-02  0.1150460E+00
         21   -1    0    0  501  502  0.00000000000E+00  0.00000000000E+00  0.51407425754E+02  0.51407425754E+02  0.00000000000E+00 0. -1.
         21   -1    0    0  502  503 -0.00000000000E+00 -0.00000000000E+00 -0.81911799919E+03  0.81911799919E+03  0.00000000000E+00 0. -1.
         -6    2    1    2    0  503  0.84242850250E+02 -0.52890638252E+02 -0.48905540644E+03  0.52799427630E+03  0.17236150325E+03 0.  0.
        -24    2    3    3    0    0  0.40419562095E+02 -0.82389419681E+02 -0.43498263343E+03  0.45225384145E+03  0.83077603740E+02 0.  0.
          6    2    1    2  501    0 -0.84242850250E+02  0.52890638252E+02 -0.27865516699E+03  0.34253114864E+03  0.17258217829E+03 0.  0.
         24    2    5    5    0    0 -0.11177342104E+03  0.76432811917E+02 -0.25606125579E+03  0.29958069937E+03  0.76458853837E+02 0.  0.
          5    1    5    5  501    0  0.27530570793E+02 -0.23542173666E+02 -0.22593911206E+02  0.42950449272E+02  0.47000000000E+01 0. -1.
        -15    1    6    6    0    0 -0.33776330190E+02  0.24495879588E+02 -0.16009382925E+03  0.16545114231E+03  0.17770000000E+01 0.  1.
         16    1    6    6    0    0 -0.77997090853E+02  0.51936932330E+02 -0.95967426536E+02  0.13412955706E+03  0.00000000000E+00 0. -1.
         -5    1    3    3    0  503  0.43823288155E+02  0.29498781429E+02 -0.54072773010E+02  0.75740434852E+02  0.47000000000E+01 0.  1.
         15    1    4    4    0    0  0.58112061069E+02 -0.57974024817E+02 -0.21375879732E+03  0.22898467275E+03  0.17770000000E+01 0. -1.
        -16    1    4    4    0    0 -0.17692498974E+02 -0.24415394864E+02 -0.22122383611E+03  0.22326916870E+03  0.00000000000E+00 0.  1.
<mgrwt>
<rscale>  2 0.19914779E+03</rscale>
<asrwt>0</asrwt>
<pdfrwt beam="1">  1       21 0.79088348E-02 0.19919560E+03</pdfrwt>
<pdfrwt beam="2">  1       21 0.12601815E+00 0.19919560E+03</pdfrwt>
<totfact> 0.57026874E+04</totfact>
</mgrwt>
</event>
<event>
12    2  0.4090627E-002  0.1945417E+03  0.7546771E-02  0.1155088E+00
         21   -1    0    0  503  502  0.00000000000E+00  0.00000000000E+00  0.24755890041E+03  0.24755890041E+03  0.00000000000E+00 0. -1.
         21   -1    0    0  501  503 -0.00000000000E+00 -0.00000000000E+00 -0.19725034028E+03  0.19725034028E+03  0.00000000000E+00 0. -1.
          6    2    1    2  501    0  0.70053793925E+02  0.54713777093E+02 -0.83227857540E+02  0.20884640610E+03  0.16967266611E+03 0.  0.
         24    2    3    3    0    0  0.85091783033E+02  0.90354967096E+02 -0.80768151833E+02  0.16980059079E+03  0.83091002307E+02 0.  0.
         -6    2    1    2    0  502 -0.70053793925E+02 -0.54713777093E+02  0.13353641767E+03  0.23596283458E+03  0.17304725659E+03 0.  0.
        -24    2    5    5    0    0 -0.91921558208E+02 -0.88708645593E+02  0.10958027059E+03  0.18874168274E+03  0.85421252813E+02 0.  0.
          5    1    3    3  501    0 -0.15037989108E+02 -0.35641190003E+02 -0.24597057073E+01  0.39045815312E+02  0.47000000000E+01 0. -1.
        -15    1    4    4    0    0  0.70738128920E+01 -0.14904795456E+02 -0.14864530677E+01  0.16660102885E+02  0.17770000000E+01 0.  1.
         16    1    4    4    0    0  0.78017970141E+02  0.10525976255E+03 -0.79281698765E+02  0.15314048791E+03  0.00000000000E+00 0. -1.
         -5    1    5    5    0  502  0.21867764283E+02  0.33994868500E+02  0.23956147076E+02  0.47221151848E+02  0.47000000000E+01 0.  1.
         15    1    6    6    0    0  0.16489501525E+02 -0.16323690233E+02  0.14939114537E+02  0.27653234811E+02  0.17770000000E+01 0. -1.
        -16    1    6    6    0    0 -0.10841105973E+03 -0.72384955360E+02  0.94641156058E+02  0.16108844793E+03  0.00000000000E+00 0.  1.
<mgrwt>
<rscale>  2 0.19378848E+03</rscale>
<asrwt>0</asrwt>
<pdfrwt beam="1">  1       21 0.38085985E-01 0.19454173E+03</pdfrwt>
<pdfrwt beam="2">  1       21 0.30346206E-01 0.19454173E+03</pdfrwt>
<totfact> 0.69224140E+04</totfact>
</mgrwt>
</event>
<event>
12    2  0.4090627E-002  0.2309058E+03  0.7546771E-02  0.1126230E+00
         21   -1    0    0  501  502  0.00000000000E+00  0.00000000000E+00  0.72900516004E+02  0.72900516004E+02  0.00000000000E+00 0.  1.
         21   -1    0    0  502  503 -0.00000000000E+00 -0.00000000000E+00 -0.87517471304E+03  0.87517471304E+03  0.00000000000E+00 0.  1.
         -6    2    1    2    0  503 -0.11333148704E+03  0.99402661569E+02 -0.59506191570E+03  0.63782628608E+03  0.17320153756E+03 0.  0.
        -24    2    3    3    0    0 -0.60222199867E+02  0.12189327914E+03 -0.31974446552E+03  0.35649336473E+03  0.79789165972E+02 0.  0.
          6    2    1    2  501    0  0.11333148704E+03 -0.99402661569E+02 -0.20721228133E+03  0.31024894296E+03  0.17490729542E+03 0.  0.
         24    2    5    5    0    0  0.92079108943E+02 -0.28534862661E+02 -0.49373654978E+02  0.13586709051E+03  0.82032358163E+02 0.  0.
          5    1    5    5  501    0  0.21252378096E+02 -0.70867798907E+02 -0.15783862635E+03  0.17438185245E+03  0.47000000000E+01 0. -1.
        -15    1    6    6    0    0  0.22144561639E+02 -0.72212779705E+01 -0.57733566131E+02  0.62280421104E+02  0.17770000000E+01 0.  1.
         16    1    6    6    0    0  0.69934547304E+02 -0.21313584691E+02  0.83599111538E+01  0.73586669401E+02  0.00000000000E+00 0. -1.
         -5    1    3    3    0  503 -0.53109287171E+02 -0.22490617573E+02 -0.27531745018E+03  0.28133292135E+03  0.47000000000E+01 0.  1.
         15    1    4    4    0    0 -0.50219185507E+02  0.84815636877E+02 -0.13138259323E+03  0.16425651398E+03  0.17770000000E+01 0. -1.
        -16    1    4    4    0    0 -0.10003014360E+02  0.37077642264E+02 -0.18836187229E+03  0.19223685075E+03  0.00000000000E+00 0.  1.
<mgrwt>
<rscale>  2 0.23058275E+03</rscale>
<asrwt>0</asrwt>
<pdfrwt beam="1">  1       21 0.11215464E-01 0.23090578E+03</pdfrwt>
<pdfrwt beam="2">  1       21 0.13464226E+00 0.23090578E+03</pdfrwt>
<totfact> 0.25597542E+04</totfact>
</mgrwt>
</event>
<event>
12    2  0.4090627E-002  0.1732409E+03  0.7546771E-02  0.1174907E+00
         21   -1    0    0  501  502  0.00000000000E+00  0.00000000000E+00  0.35138794770E+03  0.35138794770E+03  0.00000000000E+00 0.  1.
         21   -1    0    0  502  503 -0.00000000000E+00 -0.00000000000E+00 -0.44169471488E+03  0.44169471488E+03  0.00000000000E+00 0.  1.
         -6    2    1    2    0  503 -0.65695918615E+01  0.96650752715E+01 -0.40171794795E+03  0.43748110361E+03  0.17284627011E+03 0.  0.
        -24    2    3    3    0    0 -0.50878714972E+02 -0.20084234441E+01 -0.36877727459E+03  0.38085295756E+03  0.80371758916E+02 0.  0.
          6    2    1    2  501    0  0.65695918615E+01 -0.96650752715E+01  0.31141118078E+03  0.35560155897E+03  0.17128622832E+03 0.  0.
         24    2    5    5    0    0 -0.62523966124E+02  0.46287526960E-01  0.18888270801E+03  0.21452162786E+03  0.80209743508E+02 0.  0.
          5    1    5    5  501    0  0.69093557985E+02 -0.97113627985E+01  0.12252847277E+03  0.14107993111E+03  0.47000000000E+01 0. -1.
        -15    1    6    6    0    0 -0.31946935380E+02 -0.32544122900E+02  0.14450909673E+03  0.15154459205E+03  0.17770000000E+01 0.  1.
         16    1    6    6    0    0 -0.30577030744E+02  0.32590410427E+02  0.44373611285E+02  0.62977035810E+02  0.00000000000E+00 0. -1.
         -5    1    3    3    0  503  0.44309123110E+02  0.11673498716E+02 -0.32940673368E+02  0.56628146049E+02  0.47000000000E+01 0.  1.
         15    1    4    4    0    0  0.61256544792E+01  0.99653226738E+00  0.11414931327E+01  0.65557192535E+01  0.17770000000E+01 0. -1.
        -16    1    4    4    0    0 -0.57004369451E+02 -0.30049557114E+01 -0.36991876772E+03  0.37429723831E+03  0.00000000000E+00 0.  1.
<mgrwt>
<rscale>  2 0.17285046E+03</rscale>
<asrwt>0</asrwt>
<pdfrwt beam="1">  1       21 0.54059684E-01 0.17324089E+03</pdfrwt>
<pdfrwt beam="2">  1       21 0.67953033E-01 0.17324089E+03</pdfrwt>
<totfact> 0.64943328E+03</totfact>
</mgrwt>
</event>
<event>
12    2  0.4090627E-002  0.2450491E+03  0.7546771E-02  0.1116661E+00
         21   -1    0    0  501  502  0.00000000000E+00  0.00000000000E+00  0.75816163493E+03  0.75816163493E+03  0.00000000000E+00 0. -1.
         21   -1    0    0  502  503 -0.00000000000E+00 -0.00000000000E+00 -0.12216062765E+03  0.12216062765E+03  0.00000000000E+00 0.  1.
         -6    2    1    2    0  503 -0.21285651720E+02 -0.17129929798E+03  0.55377567526E+02  0.25010593021E+03  0.17230720498E+03 0.  0.
        -24    2    3    3    0    0  0.51602879007E+02 -0.73155398054E+02  0.38410284923E+02  0.12659503319E+03  0.80847900749E+02 0.  0.
          6    2    1    2  501    0  0.21285651720E+02  0.17129929798E+03  0.58062343976E+03  0.63021633237E+03  0.17393251086E+03 0.  0.
         24    2    5    5    0    0  0.30954922953E+02  0.35219773081E+02  0.13026165535E+03  0.15962207109E+03  0.79451035559E+02 0.  0.
          5    1    5    5  501    0 -0.96692712328E+01  0.13607952490E+03  0.45036178440E+03  0.47059426128E+03  0.47000000000E+01 0. -1.
        -15    1    6    6    0    0 -0.38614734534E+01 -0.23375448543E+02  0.27914044529E+02  0.36656161594E+02  0.17770000000E+01 0.  1.
         16    1    6    6    0    0  0.34816396406E+02  0.58595221623E+02  0.10234761082E+03  0.12296590949E+03  0.00000000000E+00 0. -1.
         -5    1    3    3    0  503 -0.72888530727E+02 -0.98143899922E+02  0.16967282603E+02  0.12351089702E+03  0.47000000000E+01 0.  1.
         15    1    4    4    0    0  0.15899189938E+02 -0.53168002022E+02  0.58805974577E+02  0.80875960919E+02  0.17770000000E+01 0. -1.
        -16    1    4    4    0    0  0.35703689069E+02 -0.19987396032E+02 -0.20395689654E+02  0.45719072275E+02  0.00000000000E+00 0.  1.
<mgrwt>
<rscale>  2 0.24476083E+03</rscale>
<asrwt>0</asrwt>
<pdfrwt beam="1">  1       21 0.11664025E+00 0.24504907E+03</pdfrwt>
<pdfrwt beam="2">  1       21 0.18793943E-01 0.24504907E+03</pdfrwt>
<totfact> 0.14209942E+04</totfact>
</mgrwt>
</event>
<event>
12    2  0.4090627E-002  0.2608770E+03  0.7546771E-02  0.1106717E+00
         21   -1    0    0  503  502  0.00000000000E+00  0.00000000000E+00  0.75237833621E+03  0.75237833621E+03  0.00000000000E+00 0. -1.
         21   -1    0    0  501  503 -0.00000000000E+00 -0.00000000000E+00 -0.13382994684E+03  0.13382994684E+03  0.00000000000E+00 0. -1.
          6    2    1    2  501    0 -0.19029228819E+03 -0.39664082305E+02  0.56080892754E+02  0.26618690260E+03  0.17299134722E+03 0.  0.
         24    2    3    3    0    0 -0.20275447148E+02  0.86517061459E+01  0.14869960895E+02  0.84636434253E+02  0.80350883566E+02 0.  0.
         -6    2    1    2    0  502  0.19029228819E+03  0.39664082305E+02  0.56246749661E+03  0.62002138045E+03  0.17398974999E+03 0.  0.
        -24    2    5    5    0    0  0.14888944994E+03  0.73263465176E+02  0.30560124752E+03  0.35763717082E+03  0.83526162544E+02 0.  0.
          5    1    3    3  501    0 -0.17001684104E+03 -0.48315788451E+02  0.41210931858E+02  0.18155046834E+03  0.47000000000E+01 0. -1.
        -15    1    4    4    0    0 -0.24841224795E+02  0.38641737446E+02 -0.79779367885E+01  0.46659141940E+02  0.17770000000E+01 0.  1.
         16    1    4    4    0    0  0.45657776476E+01 -0.29990031300E+02  0.22847897684E+02  0.37977292314E+02  0.00000000000E+00 0. -1.
         -5    1    5    5    0  502  0.41402838250E+02 -0.33599382871E+02  0.25686624909E+03  0.26238420964E+03  0.47000000000E+01 0.  1.
         15    1    6    6    0    0  0.14159150610E+03  0.46273475998E+02  0.28895898112E+03  0.32509973805E+03  0.17770000000E+01 0. -1.
        -16    1    6    6    0    0  0.72979438416E+01  0.26989989178E+02  0.16642266403E+02  0.32537432768E+02  0.00000000000E+00 0.  1.
<mgrwt>
<rscale>  2 0.26071067E+03</rscale>
<asrwt>0</asrwt>
<pdfrwt beam="1">  1       21 0.11575051E+00 0.26087704E+03</pdfrwt>
<pdfrwt beam="2">  1       21 0.20589223E-01 0.26087704E+03</pdfrwt>
<totfact> 0.12097836E+04</totfact>
</mgrwt>
</event>
<event>
12    2  0.4090627E-002  0.2182730E+03  0.7546771E-02  0.1135221E+00
         21   -1    0    0  503  502  0.00000000000E+00  0.00000000000E+00  0.22918665767E+03  0.22918665767E+03  0.00000000000E+00 0.  1.
         21   -1    0    0  501  503 -0.00000000000E+00 -0.00000000000E+00 -0.21059047337E+03  0.21059047337E+03  0.00000000000E+00 0.  1.
          6    2    1    2  501    0 -0.12901155579E+03  0.41162497169E+02 -0.16651746393E+02  0.21890728129E+03  0.17118640262E+03 0.  0.
         24    2    3    3    0    0 -0.11121434169E+03 -0.31872642591E+02 -0.23874120440E+02  0.14324272448E+03  0.81018574094E+02 0.  0.
         -6    2    1    2    0  502  0.12901155579E+03 -0.41162497169E+02  0.35247930692E+02  0.22086984976E+03  0.17088809558E+03 0.  0.
        -24    2    5    5    0    0  0.77076423630E+02  0.38946760080E+02  0.40517458326E+02  0.12513788555E+03  0.80995066328E+02 0.  0.
          5    1    3    3  501    0 -0.17797214104E+02  0.73035139760E+02  0.72223740471E+01  0.75664556805E+02  0.47000000000E+01 0. -1.
        -15    1    4    4    0    0 -0.68395181795E+02  0.40129272261E+01 -0.46654756849E+02  0.82908555308E+02  0.17770000000E+01 0.  1.
         16    1    4    4    0    0 -0.42819159893E+02 -0.35885569817E+02  0.22780636409E+02  0.60334169176E+02  0.00000000000E+00 0. -1.
         -5    1    5    5    0  502  0.51935132163E+02 -0.80109257249E+02 -0.52695276339E+01  0.95731964209E+02  0.47000000000E+01 0.  1.
         15    1    6    6    0    0  0.33183658972E+02 -0.18057631960E+02 -0.76114872999E+01  0.38578825315E+02  0.17770000000E+01 0. -1.
        -16    1    6    6    0    0  0.43892764658E+02  0.57004392040E+02  0.48128945626E+02  0.86559060232E+02  0.00000000000E+00 0.  1.
<mgrwt>
<rscale>  2 0.21821454E+03</rscale>
<asrwt>0</asrwt>
<pdfrwt beam="1">  1       21 0.35259486E-01 0.21827303E+03</pdfrwt>
<pdfrwt beam="2">  1       21 0.32398534E-01 0.21827303E+03</pdfrwt>
<totfact> 0.70298402E+04</totfact>
</mgrwt>
</event>
<event>
12    2  0.4090627E-002  0.2120322E+03  0.7546771E-02  0.1140192E+00
         21   -1    0    0  501  502  0.00000000000E+00  0.00000000000E+00  0.12703469339E+04  0.12703469339E+04  0.00000000000E+00 0.  1.
         21   -1    0    0  502  503 -0.00000000000E+00 -0.00000000000E+00 -0.16196842811E+03  0.16196842811E+03  0.00000000000E+00 0. -1.
         -6    2    1    2    0  503 -0.11920599979E+03 -0.29399117776E+02 -0.79062884036E+02  0.22629316906E+03  0.17286781141E+03 0.  0.
        -24    2    3    3    0    0 -0.12633433842E+03 -0.78598977105E+01 -0.11079643013E+03  0.18700119583E+03  0.81678976848E+02 0.  0.
          6    2    1    2  501    0  0.11920599979E+03  0.29399117776E+02  0.11874413899E+04  0.12060221930E+04  0.17145873290E+03 0.  0.
         24    2    5    5    0    0  0.34713983669E+02 -0.44468584034E+02  0.51476584107E+03  0.52403258741E+03  0.80273070878E+02 0.  0.
          5    1    5    5  501    0  0.84492016117E+02  0.73867701811E+02  0.67267554879E+03  0.68198960556E+03  0.47000000000E+01 0. -1.
        -15    1    6    6    0    0  0.39438325385E+02 -0.40425386388E+02  0.16870861831E+03  0.17791950144E+03  0.17770000000E+01 0.  1.
         16    1    6    6    0    0 -0.47243417162E+01 -0.40431976465E+01  0.34605722276E+03  0.34611308597E+03  0.00000000000E+00 0. -1.
         -5    1    3    3    0  503  0.71283386320E+01 -0.21539220066E+02  0.31733546092E+02  0.39291973229E+02  0.47000000000E+01 0.  1.
         15    1    4    4    0    0 -0.12539985615E+03 -0.94209305068E+01 -0.12225757119E+03  0.17539654870E+03  0.17770000000E+01 0. -1.
        -16    1    4    4    0    0 -0.93448226967E+00  0.15610327962E+01  0.11461141066E+02  0.11604647131E+02  0.00000000000E+00 0.  1.
<mgrwt>
<rscale>  2 0.21174482E+03</rscale>
<asrwt>0</asrwt>
<pdfrwt beam="1">  1       21 0.19543798E+00 0.21203221E+03</pdfrwt>
<pdfrwt beam="2">  1       21 0.24918221E-01 0.21203221E+03</pdfrwt>
<totfact> 0.21484729E+03</totfact>
</mgrwt>
</event>
<event>
12    2  0.4090627E-002  0.2405571E+03  0.7546771E-02  0.1119800E+00
         21   -1    0    0  501  502  0.00000000000E+00  0.00000000000E+00  0.84631433898E+02  0.84631433898E+02  0.00000000000E+00 0.  1.
         21   -1    0    0  502  503 -0.00000000000E+00 -0.00000000000E+00 -0.93969435047E+03  0.93969435047E+03  0.00000000000E+00 0. -1.
         -6    2    1    2    0  503  0.16420682868E+03 -0.76538985188E+01 -0.69669186770E+03  0.73631688395E+03  0.17251240629E+03 0.  0.
        -24    2    3    3    0    0  0.32824646119E+02 -0.47775500831E+02 -0.33093368359E+03  0.34558403390E+03  0.80939889296E+02 0.  0.
          6    2    1    2  501    0 -0.16420682868E+03  0.76538985188E+01 -0.15837104887E+03  0.28800890042E+03  0.17562822339E+03 0.  0.
         24    2    5    5    0    0 -0.41504391055E+02  0.43546353930E+01 -0.61906246559E+00  0.88072529162E+02  0.77555205037E+02 0.  0.
          5    1    5    5  501    0 -0.12270243762E+03  0.32992631259E+01 -0.15775198641E+03  0.19993637126E+03  0.47000000000E+01 0. -1.
        -15    1    6    6    0    0 -0.63046628639E+01 -0.28219427139E+02  0.20682863678E+02  0.35595272450E+02  0.17770000000E+01 0.  1.
         16    1    6    6    0    0 -0.35199728191E+02  0.32574062532E+02 -0.21301926144E+02  0.52477256712E+02  0.00000000000E+00 0. -1.
         -5    1    3    3    0  503  0.13138218256E+03  0.40121602312E+02 -0.36575818412E+03  0.39073285006E+03  0.47000000000E+01 0.  1.
         15    1    4    4    0    0  0.58052299683E+02 -0.32162403364E+02 -0.26654974725E+03  0.27469331113E+03  0.17770000000E+01 0. -1.
        -16    1    4    4    0    0 -0.25227653564E+02 -0.15613097467E+02 -0.64383936334E+02  0.70890722769E+02  0.00000000000E+00 0.  1.
<mgrwt>
<rscale>  2 0.23998880E+03</rscale>
<asrwt>0</asrwt>
<pdfrwt beam="1">  1       21 0.13020221E-01 0.24055714E+03</pdfrwt>
<pdfrwt beam="2">  1       21 0.14456835E+00 0.24055714E+03</pdfrwt>
<totfact> 0.16183538E+04</totfact>
</mgrwt>
</event>
<event>
12    2  0.4090627E-002  0.2278271E+03  0.7546771E-02  0.1128195E+00
         21   -1    0    0  503  502  0.00000000000E+00  0.00000000000E+00  0.30089785204E+03  0.30089785204E+03  0.00000000000E+00 0. -1.
         21   -1    0    0  501  503 -0.00000000000E+00 -0.00000000000E+00 -0.17956631982E+03  0.17956631982E+03  0.00000000000E+00 0. -1.
          6    2    1    2  501    0  0.14832762327E+03  0.10516069457E+01  0.10853473866E+03  0.25227792334E+03  0.17280674584E+03 0.  0.
         24    2    3    3    0    0  0.61107849154E+01 -0.22862306906E+01  0.60570654634E+02  0.10208000848E+03  0.81908213176E+02 0.  0.
         -6    2    1    2    0  502 -0.14832762327E+03 -0.10516069457E+01  0.12796793551E+02  0.22818624852E+03  0.17292488655E+03 0.  0.
        -24    2    5    5    0    0 -0.13594975597E+03 -0.35932366269E+02  0.53160211077E+02  0.17322103730E+03  0.86058402428E+02 0.  0.
          5    1    3    3  501    0  0.14221683835E+03  0.33378376363E+01  0.47964084028E+02  0.15019791486E+03  0.47000000000E+01 0. -1.
        -15    1    4    4    0    0  0.64940241190E+01  0.24187291151E+01  0.80897001680E+02  0.81212715812E+02  0.17770000000E+01 0.  1.
         16    1    4    4    0    0 -0.38323920368E+00 -0.47049598057E+01 -0.20326347046E+02  0.20867292668E+02  0.00000000000E+00 0. -1.
         -5    1    5    5    0  502 -0.12377867299E+02  0.34880759323E+02 -0.40363417526E+02  0.54965211218E+02  0.47000000000E+01 0.  1.
         15    1    6    6    0    0 -0.89629986168E+02 -0.67614743160E+01 -0.90496123034E+01  0.90356544684E+02  0.17770000000E+01 0. -1.
        -16    1    6    6    0    0 -0.46319769801E+02 -0.29170891953E+02  0.62209823380E+02  0.82864492618E+02  0.00000000000E+00 0.  1.
<mgrwt>
<rscale>  2 0.22780472E+03</rscale>
<asrwt>0</asrwt>
<pdfrwt beam="1">  1       21 0.46291977E-01 0.22782714E+03</pdfrwt>
<pdfrwt beam="2">  1       21 0.27625588E-01 0.22782714E+03</pdfrwt>
<totfact> 0.55014472E+04</totfact>
</mgrwt>
</event>
<event>
12    2  0.4090627E-002  0.2040146E+03  0.7546771E-02  0.1146623E+00
         21   -1    0    0  503  502  0.00000000000E+00  0.00000000000E+00  0.56726975637E+03  0.56726975637E+03  0.00000000000E+00 0.  1.
         21   -1    0    0  501  503 -0.00000000000E+00 -0.00000000000E+00 -0.24758055561E+03  0.24758055561E+03  0.00000000000E+00 0.  1.
          6    2    1    2  501    0  0.10229434690E+03 -0.26107430744E+02 -0.18243391761E+03  0.27286361230E+03  0.17328209739E+03 0.  0.
         24    2    3    3    0    0  0.56405394794E+02 -0.78035950690E+02 -0.15261143621E+03  0.19727368238E+03  0.79721246458E+02 0.  0.
         -6    2    1    2    0  502 -0.10229434690E+03  0.26107430744E+02  0.50212311837E+03  0.54198669967E+03  0.17457441184E+03 0.  0.
        -24    2    5    5    0    0 -0.13876840571E+03  0.37702746575E+02  0.38669748944E+03  0.42029046255E+03  0.80193248130E+02 0.  0.
          5    1    3    3  501    0  0.45888952101E+02  0.51928519946E+02 -0.29822481407E+02  0.75589929925E+02  0.47000000000E+01 0. -1.
        -15    1    4    4    0    0  0.19618395465E+02  0.10976986747E+02 -0.88383857039E+01  0.24220868471E+02  0.17770000000E+01 0.  1.
         16    1    4    4    0    0  0.36786999329E+02 -0.89012937437E+02 -0.14377305050E+03  0.17305281391E+03  0.00000000000E+00 0. -1.
         -5    1    5    5    0  502  0.36474058815E+02 -0.11595315831E+02  0.11542562893E+03  0.12169623713E+03  0.47000000000E+01 0.  1.
         15    1    6    6    0    0 -0.35301375485E+02 -0.23822708983E+02  0.76828081106E+02  0.87860231902E+02  0.17770000000E+01 0. -1.
        -16    1    6    6    0    0 -0.10346703022E+03  0.61525455557E+02  0.30986940833E+03  0.33243023064E+03  0.00000000000E+00 0.  1.
<mgrwt>
<rscale>  2 0.20373785E+03</rscale>
<asrwt>0</asrwt>
<pdfrwt beam="1">  1       21 0.87272270E-01 0.20401460E+03</pdfrwt>
<pdfrwt beam="2">  1       21 0.38089316E-01 0.20401460E+03</pdfrwt>
<totfact> 0.74352320E+03</totfact>
</mgrwt>
</event>
<event>
12    2  0.4090627E-002  0.1927481E+03  0.7546771E-02  0.1156035E+00
         21   -1    0    0  503  502  0.00000000000E+00  0.00000000000E+00  0.39563151147E+02  0.39563151147E+02  0.00000000000E+00 0. -1.
         21   -1    0    0  501  503 -0.00000000000E+00 -0.00000000000E+00 -0.17734611366E+04  0.17734611366E+04  0.00000000000E+00 0.  1.
          6    2    1    2  501    0  0.16803124841E+01  0.88998356304E+02 -0.14888339515E+04  0.15012419604E+04  0.17081381006E+03 0.  0.
         24    2    3    3    0    0  0.21889871112E+02  0.12314075701E+03 -0.11093540128E+04  0.11196646503E+04  0.85672578652E+02 0.  0.
         -6    2    1    2    0  502 -0.16803124841E+01 -0.88998356304E+02 -0.24506403390E+03  0.31178232728E+03  0.17096288491E+03 0.  0.
        -24    2    5    5    0    0 -0.57900478237E+02 -0.65658813349E+02 -0.20167246542E+03  0.23687999408E+03  0.88186184514E+02 0.  0.
          5    1    3    3  501    0 -0.20209558627E+02 -0.34142400704E+02 -0.37947993867E+03  0.38157731018E+03  0.47000000000E+01 0. -1.
        -15    1    4    4    0    0  0.49412478552E+02  0.51453874512E+02 -0.65396877836E+03  0.65785060237E+03  0.17770000000E+01 0.  1.
         16    1    4    4    0    0 -0.27522607441E+02  0.71686882495E+02 -0.45538523448E+03  0.46181404789E+03  0.00000000000E+00 0. -1.
         -5    1    5    5    0  502  0.56220165753E+02 -0.23339542955E+02 -0.43391568487E+02  0.74902333197E+02  0.47000000000E+01 0.  1.
         15    1    6    6    0    0  0.16115639737E+02 -0.42675779197E+02 -0.90453398079E+02  0.10132083165E+03  0.17770000000E+01 0. -1.
        -16    1    6    6    0    0 -0.74016117974E+02 -0.22983034152E+02 -0.11121906734E+03  0.13555916243E+03  0.00000000000E+00 0.  1.
<mgrwt>
<rscale>  2 0.19271506E+03</rscale>
<asrwt>0</asrwt>
<pdfrwt beam="1">  1       21 0.60866391E-02 0.19274812E+03</pdfrwt>
<pdfrwt beam="2">  1       21 0.27284015E+00 0.19274812E+03</pdfrwt>
<totfact> 0.94160370E+03</totfact>
</mgrwt>
</event>
<event>
12    2  0.4090627E-002  0.1846792E+03  0.7546771E-02  0.1163500E+00
         21   -1    0    0  501  502  0.00000000000E+00  0.00000000000E+00  0.65079189913E+02  0.65079189913E+02  0.00000000000E+00 0.  1.
         21   -1    0    0  502  503 -0.00000000000E+00 -0.00000000000E+00 -0.57546524828E+03  0.57546524828E+03  0.00000000000E+00 0.  1.
         -6    2    1    2    0  503 -0.57789926491E+02  0.29387791116E+02 -0.15740765561E+03  0.24217255773E+03  0.17224128368E+03 0.  0.
        -24    2    3    3    0    0  0.90612099795E+01 -0.30449998128E+02 -0.10145832266E+03  0.13633280468E+03  0.85343625900E+02 0.  0.
          6    2    1    2  501    0  0.57789926491E+02 -0.29387791116E+02 -0.35297840276E+03  0.39837188046E+03  0.17292508337E+03 0.  0.
         24    2    5    5    0    0  0.23426152047E+02 -0.84549185839E+02 -0.23976375588E+03  0.26774533366E+03  0.80644625592E+02 0.  0.
          5    1    5    5  501    0  0.34363774444E+02  0.55161394724E+02 -0.11321464688E+03  0.13062654681E+03  0.47000000000E+01 0. -1.
        -15    1    6    6    0    0  0.16227534226E+02 -0.47571443389E+02 -0.21905919764E+03  0.22475868146E+03  0.17770000000E+01 0.  1.
         16    1    6    6    0    0  0.71986178208E+01 -0.36977742450E+02 -0.20704558242E+02  0.42986652199E+02  0.00000000000E+00 0. -1.
         -5    1    3    3    0  503 -0.66851136470E+02  0.59837789243E+02 -0.55949332942E+02  0.10583975305E+03  0.47000000000E+01 0.  1.
         15    1    4    4    0    0  0.15218986192E+02 -0.21908496195E+02 -0.11562829386E+03  0.11867880947E+03  0.17770000000E+01 0. -1.
        -16    1    4    4    0    0 -0.61577762130E+01 -0.85415019323E+01  0.14169971199E+02  0.17653995211E+02  0.00000000000E+00 0.  1.
<mgrwt>
<rscale>  2 0.18451895E+03</rscale>
<asrwt>0</asrwt>
<pdfrwt beam="1">  1       21 0.10012183E-01 0.18467919E+03</pdfrwt>
<pdfrwt beam="2">  1       21 0.88533114E-01 0.18467919E+03</pdfrwt>
<totfact> 0.88650649E+04</totfact>
</mgrwt>
</event>
<event>
12    2  0.4090627E-002  0.1850978E+03  0.7546771E-02  0.1163101E+00
         21   -1    0    0  501  502  0.00000000000E+00  0.00000000000E+00  0.15640153160E+03  0.15640153160E+03  0.00000000000E+00 0.  1.
         21   -1    0    0  502  503 -0.00000000000E+00 -0.00000000000E+00 -0.24870648573E+03  0.24870648573E+03  0.00000000000E+00 0.  1.
         -6    2    1    2    0  503  0.48425814604E+02  0.40779392197E+02 -0.11699803073E+03  0.21897425519E+03  0.17393437525E+03 0.  0.
        -24    2    3    3    0    0  0.44639032429E+01  0.88278009262E+02 -0.84084631041E+02  0.14621334431E+03  0.80592701435E+02 0.  0.
          6    2    1    2  501    0 -0.48425814604E+02 -0.40779392197E+02  0.24693076603E+02  0.18613376213E+03  0.17328592276E+03 0.  0.
         24    2    5    5    0    0  0.20134148738E+02 -0.76465998252E+01 -0.33166472192E+02  0.90383733984E+02  0.81273304700E+02 0.  0.
          5    1    5    5  501    0 -0.68559963342E+02 -0.33132792372E+02  0.57859548795E+02  0.95750028149E+02  0.47000000000E+01 0. -1.
        -15    1    6    6    0    0  0.42226437828E+01 -0.36757023213E+02  0.76114730784E+01  0.37815363643E+02  0.17770000000E+01 0.  1.
         16    1    6    6    0    0  0.15911504955E+02  0.29110423388E+02 -0.40777945271E+02  0.52568370341E+02  0.00000000000E+00 0. -1.
         -5    1    3    3    0  503  0.43961911361E+02 -0.47498617065E+02 -0.32913399692E+02  0.72760910886E+02  0.47000000000E+01 0.  1.
         15    1    4    4    0    0 -0.34015664443E+02  0.16054621386E+02 -0.29648281125E+02  0.47926971509E+02  0.17770000000E+01 0. -1.
        -16    1    4    4    0    0  0.38479567686E+02  0.72223387877E+02 -0.54436349916E+02  0.98286372798E+02  0.00000000000E+00 0.  1.
<mgrwt>
<rscale>  2 0.18494528E+03</rscale>
<asrwt>0</asrwt>
<pdfrwt beam="1">  1       21 0.24061774E-01 0.18509777E+03</pdfrwt>
<pdfrwt beam="2">  1       21 0.38262536E-01 0.18509777E+03</pdfrwt>
<totfact> 0.10761040E+05</totfact>
</mgrwt>
</event>
<event>
12    2  0.4090627E-002  0.2011156E+03  0.7546771E-02  0.1149236E+00
         21   -1    0    0  503  502  0.00000000000E+00  0.00000000000E+00  0.70249124150E+03  0.70249124150E+03  0.00000000000E+00 0.  1.
         21   -1    0    0  501  503 -0.00000000000E+00 -0.00000000000E+00 -0.68845915899E+02  0.68845915899E+02  0.00000000000E+00 0.  1.
          6    2    1    2  501    0  0.76336848336E+02  0.69621296368E+02  0.15811755505E+03  0.25582936866E+03  0.17254873321E+03 0.  0.
         24    2    3    3    0    0 -0.25095221033E+01  0.69362831370E+02  0.39932003653E+02  0.11367898529E+03  0.80689817840E+02 0.  0.
         -6    2    1    2    0  502 -0.76336848336E+02 -0.69621296368E+02  0.47552777056E+03  0.51550778874E+03  0.17013870918E+03 0.  0.
        -24    2    5    5    0    0 -0.36405870937E+01  0.17816545280E+02  0.15944871492E+03  0.17956407029E+03  0.80552340073E+02 0.  0.
          5    1    3    3  501    0  0.78846370439E+02  0.25846499856E+00  0.11818555139E+03  0.14215038337E+03  0.47000000000E+01 0. -1.
        -15    1    4    4    0    0 -0.31021401201E+02  0.66083424330E+02  0.43116609273E+02  0.84802983603E+02  0.17770000000E+01 0.  1.
         16    1    4    4    0    0  0.28511879098E+02  0.32794070390E+01 -0.31846056197E+01  0.28876001683E+02  0.00000000000E+00 0. -1.
         -5    1    5    5    0  502 -0.72696261242E+02 -0.87437841648E+02  0.31607905564E+03  0.33594371845E+03  0.47000000000E+01 0.  1.
         15    1    6    6    0    0 -0.97612670895E+01 -0.12811063679E+01 -0.68088782618E+01  0.12101327237E+02  0.17770000000E+01 0. -1.
        -16    1    6    6    0    0  0.61206799957E+01  0.19097651648E+02  0.16625759318E+03  0.16746274306E+03  0.00000000000E+00 0.  1.
<mgrwt>
<rscale>  2 0.20059769E+03</rscale>
<asrwt>0</asrwt>
<pdfrwt beam="1">  1       21 0.10807557E+00 0.20111565E+03</pdfrwt>
<pdfrwt beam="2">  1       21 0.10591680E-01 0.20111565E+03</pdfrwt>
<totfact> 0.49735026E+04</totfact>
</mgrwt>
</event>
<event>
12    2  0.4090627E-002  0.2408245E+03  0.7546771E-02  0.1119622E+00
         21   -1    0    0  501  502  0.00000000000E+00  0.00000000000E+00  0.86503043873E+02  0.86503043873E+02  0.00000000000E+00 0.  1.
         21   -1    0    0  502  503 -0.00000000000E+00 -0.00000000000E+00 -0.76896018604E+03  0.76896018604E+03  0.00000000000E+00 0. -1.
         -6    2    1    2    0  503 -0.14324662985E+03  0.87246716384E+02 -0.18194123788E+03  0.30002411782E+03  0.16964748967E+03 0.  0.
        -24    2    3    3    0    0 -0.99942792162E+02 -0.56851331552E+01 -0.13503152882E+03  0.18717837434E+03  0.82348938076E+02 0.  0.
          6    2    1    2  501    0  0.14324662985E+03 -0.87246716384E+02 -0.50051590428E+03  0.55543911209E+03  0.17281449682E+03 0.  0.
         24    2    5    5    0    0  0.15480138639E+03 -0.30559525917E+02 -0.42080402106E+03  0.45683371523E+03  0.81997959614E+02 0.  0.
          5    1    5    5  501    0 -0.11554756537E+02 -0.56687190468E+02 -0.79711883229E+02  0.98605396858E+02  0.47000000000E+01 0. -1.
        -15    1    6    6    0    0  0.19344615551E+02 -0.33056084778E+02 -0.57693174792E+02  0.69271776635E+02  0.17770000000E+01 0.  1.
         16    1    6    6    0    0  0.13545677084E+03  0.24965588610E+01 -0.36311084626E+03  0.38756193859E+03  0.00000000000E+00 0. -1.
         -5    1    3    3    0  503 -0.43303837691E+02  0.92931849539E+02 -0.46909709062E+02  0.11284574348E+03  0.47000000000E+01 0.  1.
         15    1    4    4    0    0 -0.51289481500E+02 -0.43674837301E+02 -0.62195897745E+02  0.91703815358E+02  0.17770000000E+01 0. -1.
        -16    1    4    4    0    0 -0.48653310662E+02  0.37989704146E+02 -0.72835631074E+02  0.95474558985E+02  0.00000000000E+00 0.  1.
<mgrwt>
<rscale>  2 0.24025688E+03</rscale>
<asrwt>0</asrwt>
<pdfrwt beam="1">  1       21 0.13308160E-01 0.24082449E+03</pdfrwt>
<pdfrwt beam="2">  1       21 0.11830157E+00 0.24082449E+03</pdfrwt>
<totfact> 0.25946595E+04</totfact>
</mgrwt>
</event>
<event>
12    2  0.4090627E-002  0.1904900E+03  0.7546771E-02  0.1158458E+00
         21   -1    0    0  503  502  0.00000000000E+00  0.00000000000E+00  0.12899961201E+04  0.12899961201E+04  0.00000000000E+00 0.  1.
         21   -1    0    0  501  503 -0.00000000000E+00 -0.00000000000E+00 -0.10622735564E+03  0.10622735564E+03  0.00000000000E+00 0.  1.
          6    2    1    2  501    0 -0.46169790313E+02  0.57428890232E+02 -0.70005924661E+01  0.19061861757E+03  0.17566081549E+03 0.  0.
         24    2    3    3    0    0 -0.77170185168E+02 -0.13389892856E+02 -0.18853936359E+01  0.11300045103E+03  0.81431078303E+02 0.  0.
         -6    2    1    2    0  502  0.46169790313E+02 -0.57428890232E+02  0.11907693569E+04  0.12056048581E+04  0.17355600146E+03 0.  0.
        -24    2    5    5    0    0  0.90026004123E+02 -0.48082944090E+02  0.70031334896E+03  0.71308084864E+03  0.87343339961E+02 0.  0.
          5    1    3    3  501    0  0.31000394854E+02  0.70818783088E+02 -0.51151988302E+01  0.77618166548E+02  0.47000000000E+01 0. -1.
        -15    1    4    4    0    0 -0.24878285037E+02 -0.10963203417E+02 -0.39893620332E+02  0.48309207898E+02  0.17770000000E+01 0.  1.
         16    1    4    4    0    0 -0.52291900131E+02 -0.24266894392E+01  0.38008226696E+02  0.64691243129E+02  0.00000000000E+00 0. -1.
         -5    1    5    5    0  502 -0.43856213809E+02 -0.93459461422E+01  0.49045600794E+03  0.49252400949E+03  0.47000000000E+01 0.  1.
         15    1    6    6    0    0  0.28253891870E+02 -0.46174198815E+02  0.15328337374E+03  0.16257087512E+03  0.17770000000E+01 0. -1.
        -16    1    6    6    0    0  0.61772112253E+02 -0.19087452752E+01  0.54702997521E+03  0.55050997352E+03  0.00000000000E+00 0.  1.
<mgrwt>
<rscale>  2 0.19000336E+03</rscale>
<asrwt>0</asrwt>
<pdfrwt beam="1">  1       21 0.19846093E+00 0.19049002E+03</pdfrwt>
<pdfrwt beam="2">  1       21 0.16342671E-01 0.19049002E+03</pdfrwt>
<totfact> 0.46167141E+03</totfact>
</mgrwt>
</event>
<event>
12    2  0.4090627E-002  0.2530200E+03  0.7546771E-02  0.1111635E+00
         21   -1    0    0  503  502  0.00000000000E+00  0.00000000000E+00  0.12631994996E+04  0.12631994996E+04  0.00000000000E+00 0.  1.
         21   -1    0    0  501  503 -0.00000000000E+00 -0.00000000000E+00 -0.86115452086E+02  0.86115452086E+02  0.00000000000E+00 0.  1.
          6    2    1    2  501    0  0.16112709890E+03  0.87166649968E+02  0.15304310440E+03  0.29447895177E+03  0.17244040815E+03 0.  0.
         24    2    3    3    0    0  0.13607468097E+03  0.12592307187E+03  0.14148237208E+03  0.24667283904E+03  0.80357259041E+02 0.  0.
         -6    2    1    2    0  502 -0.16112709890E+03 -0.87166649968E+02  0.10240409431E+04  0.10548359999E+04  0.17452554735E+03 0.  0.
        -24    2    5    5    0    0 -0.10438227643E+02 -0.24389332367E+01  0.33693397186E+03  0.34629947873E+03  0.79271196445E+02 0.  0.
          5    1    3    3  501    0  0.25052417937E+02 -0.38756421899E+02  0.11560732319E+02  0.47806112733E+02  0.47000000000E+01 0. -1.
        -15    1    4    4    0    0  0.56104816577E+02  0.30557364335E+02  0.83979940302E+01  0.64460739920E+02  0.17770000000E+01 0.  1.
         16    1    4    4    0    0  0.79969864389E+02  0.95365707532E+02  0.13308437805E+03  0.18221209912E+03  0.00000000000E+00 0. -1.
         -5    1    5    5    0  502 -0.15068887126E+03 -0.84727716731E+02  0.68710697124E+03  0.70853652117E+03  0.47000000000E+01 0.  1.
         15    1    6    6    0    0 -0.15158892577E+02 -0.33927901805E+02  0.26545603670E+03  0.26805029322E+03  0.17770000000E+01 0. -1.
        -16    1    6    6    0    0  0.47206649337E+01  0.31488968569E+02  0.71477935157E+02  0.78249185511E+02  0.00000000000E+00 0.  1.
<mgrwt>
<rscale>  2 0.25266083E+03</rscale>
<asrwt>0</asrwt>
<pdfrwt beam="1">  1       21 0.19433837E+00 0.25302003E+03</pdfrwt>
<pdfrwt beam="2">  1       21 0.13248532E-01 0.25302003E+03</pdfrwt>
<totfact> 0.68460101E+03</totfact>
</mgrwt>
</event>
<event>
12    2  0.4090627E-002  0.2713365E+03  0.7546771E-02  0.1100671E+00
         21   -1    0    0  503  502  0.00000000000E+00  0.00000000000E+00  0.22785533616E+03  0.22785533616E+03  0.00000000000E+00 0. -1.
         21   -1    0    0  501  503 -0.00000000000E+00 -0.00000000000E+00 -0.13640670642E+04  0.13640670642E+04  0.00000000000E+00 0.  1.
          6    2    1    2  501    0  0.20217854869E+03 -0.51151853573E+02  0.12738291903E+03  0.29974973653E+03  0.17358231135E+03 0.  0.
         24    2    3    3    0    0  0.31533876451E+02 -0.13604171299E+02  0.80643194817E+02  0.11881846663E+03  0.80218727868E+02 0.  0.
         -6    2    1    2    0  502 -0.20217854869E+03  0.51151853573E+02 -0.12635946471E+04  0.12921726638E+04  0.17188974192E+03 0.  0.
        -24    2    5    5    0    0 -0.38898809115E+02 -0.13591148318E+02 -0.54623678968E+03  0.55360897991E+03  0.80065195777E+02 0.  0.
          5    1    3    3  501    0  0.17064467224E+03 -0.37547682274E+02  0.46739724216E+02  0.18093126990E+03  0.47000000000E+01 0. -1.
        -15    1    4    4    0    0 -0.46428569448E+01 -0.75810199985E+01 -0.14359951973E+02  0.16982165189E+02  0.17770000000E+01 0.  1.
         16    1    4    4    0    0  0.36176733396E+02 -0.60231513002E+01  0.95003146790E+02  0.10183630144E+03  0.00000000000E+00 0. -1.
         -5    1    5    5    0  502 -0.16327973958E+03  0.64743001891E+02 -0.71735785740E+03  0.73856368393E+03  0.47000000000E+01 0.  1.
         15    1    6    6    0    0 -0.22446807311E+02 -0.56643532966E+01 -0.34731135553E+02  0.41777428864E+02  0.17770000000E+01 0. -1.
        -16    1    6    6    0    0 -0.16452001804E+02 -0.79267950217E+01 -0.51150565413E+03  0.51183155105E+03  0.00000000000E+00 0.  1.
<mgrwt>
<rscale>  2 0.27106618E+03</rscale>
<asrwt>0</asrwt>
<pdfrwt beam="1">  1       21 0.35054667E-01 0.27133650E+03</pdfrwt>
<pdfrwt beam="2">  1       21 0.20985647E+00 0.27133650E+03</pdfrwt>
<totfact> 0.84395450E+02</totfact>
</mgrwt>
</event>
<event>
12    2  0.4090627E-002  0.2145610E+03  0.7546771E-02  0.1138867E+00
         21   -1    0    0  501  502  0.00000000000E+00  0.00000000000E+00  0.12899281248E+03  0.12899281248E+03  0.00000000000E+00 0.  1.
         21   -1    0    0  502  503 -0.00000000000E+00 -0.00000000000E+00 -0.36512434098E+03  0.36512434098E+03  0.00000000000E+00 0.  1.
         -6    2    1    2    0  503 -0.12082584147E+03  0.12652631152E+02 -0.16789214637E+03  0.26896604317E+03  0.17145257805E+03 0.  0.
        -24    2    3    3    0    0 -0.13203409635E+02 -0.14989492962E+02 -0.30243098111E+02  0.92002698524E+02  0.84562619562E+02 0.  0.
          6    2    1    2  501    0  0.12082584147E+03 -0.12652631152E+02 -0.68239382128E+02  0.22515111030E+03  0.17685427943E+03 0.  0.
         24    2    5    5    0    0  0.16598547398E+02 -0.52086744413E+01 -0.87276479480E+02  0.11883440231E+03  0.78751439586E+02 0.  0.
          5    1    5    5  501    0  0.10422729407E+03 -0.74439567106E+01  0.19037097352E+02  0.10631670799E+03  0.47000000000E+01 0. -1.
        -15    1    6    6    0    0  0.10281271741E+02 -0.13630006156E+02  0.10743975525E+02  0.20250243344E+02  0.17770000000E+01 0.  1.
         16    1    6    6    0    0  0.63172756566E+01  0.84213317146E+01 -0.98020455005E+02  0.98584158966E+02  0.00000000000E+00 0. -1.
         -5    1    3    3    0  503 -0.10762243184E+03  0.27642124114E+02 -0.13764904826E+03  0.17696334464E+03  0.47000000000E+01 0.  1.
         15    1    4    4    0    0  0.19732469091E+02 -0.62684188128E+01 -0.48918426904E+02  0.53149163970E+02  0.17770000000E+01 0. -1.
        -16    1    4    4    0    0 -0.32935878727E+02 -0.87210741497E+01  0.18675328794E+02  0.38853534554E+02  0.00000000000E+00 0.  1.
<mgrwt>
<rscale>  2 0.21344475E+03</rscale>
<asrwt>0</asrwt>
<pdfrwt beam="1">  1       21 0.19845049E-01 0.21456097E+03</pdfrwt>
<pdfrwt beam="2">  1       21 0.56172974E-01 0.21456097E+03</pdfrwt>
<totfact> 0.69183575E+04</totfact>
</mgrwt>
</event>
<event>
12    2  0.4090627E-002  0.1816802E+03  0.7546771E-02  0.1166371E+00
         21   -1    0    0  503  502  0.00000000000E+00  0.00000000000E+00  0.39042620366E+03  0.39042620366E+03  0.00000000000E+00 0. -1.
         21   -1    0    0  501  503 -0.00000000000E+00 -0.00000000000E+00 -0.84468800588E+02  0.84468800588E+02  0.00000000000E+00 0. -1.
          6    2    1    2  501    0  0.48886257181E+02  0.21625212292E+02  0.13890190703E+03  0.22808489202E+03  0.17283362591E+03 0.  0.
         24    2    3    3    0    0 -0.23947545813E+02 -0.31790338198E+02  0.52498875209E+02  0.10300268785E+03  0.79178982393E+02 0.  0.
         -6    2    1    2    0  502 -0.48886257181E+02 -0.21625212292E+02  0.16705549604E+03  0.24681011223E+03  0.17363806262E+03 0.  0.
        -24    2    5    5    0    0 -0.55065253110E+02  0.12339271639E+02  0.25935490521E+02  0.10145292418E+03  0.80222231526E+02 0.  0.
          5    1    3    3  501    0  0.72833802994E+02  0.53415550489E+02  0.86403031824E+02  0.12508220417E+03  0.47000000000E+01 0. -1.
        -15    1    4    4    0    0 -0.28197309218E+02 -0.20671480350E+02  0.72054771578E+02  0.80108964437E+02  0.17770000000E+01 0.  1.
         16    1    4    4    0    0  0.42497634052E+01 -0.11118857848E+02 -0.19555896370E+02  0.22893723412E+02  0.00000000000E+00 0. -1.
         -5    1    5    5    0  502  0.61789959291E+01 -0.33964483931E+02  0.14112000552E+03  0.14535718805E+03  0.47000000000E+01 0.  1.
         15    1    6    6    0    0 -0.39153566036E+02 -0.21156076424E+02  0.41834818234E+02  0.61105572975E+02  0.17770000000E+01 0. -1.
        -16    1    6    6    0    0 -0.15911687074E+02  0.33495348062E+02 -0.15899327713E+02  0.40347351203E+02  0.00000000000E+00 0.  1.
<mgrwt>
<rscale>  2 0.18148772E+03</rscale>
<asrwt>0</asrwt>
<pdfrwt beam="1">  1       21 0.60065569E-01 0.18168019E+03</pdfrwt>
<pdfrwt beam="2">  1       21 0.12995200E-01 0.18168019E+03</pdfrwt>
<totfact> 0.13199203E+05</totfact>
</mgrwt>
</event>
<event>
12    2  0.4090627E-002  0.2090705E+03  0.7546771E-02  0.1142704E+00
         21   -1    0    0  501  502  0.00000000000E+00  0.00000000000E+00  0.25650686177E+03  0.25650686177E+03  0.00000000000E+00 0.  1.
         21   -1    0    0  502  503 -0.00000000000E+00 -0.00000000000E+00 -0.19026023416E+03  0.19026023416E+03  0.00000000000E+00 0. -1.
         -6    2    1    2    0  503 -0.10128929290E+03  0.53861356225E+02  0.10803356567E+03  0.23356152063E+03  0.17239247680E+03 0.  0.
        -24    2    3    3    0    0 -0.21040076287E+02  0.14330625482E+02 -0.10628386534E+02  0.84882792023E+02  0.80274990778E+02 0.  0.
          6    2    1    2  501    0  0.10128929290E+03 -0.53861356225E+02 -0.41786938069E+02  0.21320557530E+03  0.17478530429E+03 0.  0.
         24    2    5    5    0    0  0.32244358710E+02 -0.93875210625E+02 -0.48252504586E+02  0.13300454643E+03  0.74227025630E+02 0.  0.
          5    1    5    5  501    0  0.69044934188E+02  0.40013854400E+02  0.64655665173E+01  0.80201028867E+02  0.47000000000E+01 0. -1.
        -15    1    6    6    0    0 -0.12142856043E+02 -0.56446945758E+01  0.11353259587E+02  0.17645559271E+02  0.17770000000E+01 0.  1.
         16    1    6    6    0    0  0.44387214753E+02 -0.88230516049E+02 -0.59605764173E+02  0.11535898716E+03  0.00000000000E+00 0. -1.
         -5    1    3    3    0  503 -0.80249216610E+02  0.39530730743E+02  0.11866195221E+03  0.14867872861E+03  0.47000000000E+01 0.  1.
         15    1    4    4    0    0  0.19025207912E+02  0.34215591760E+02 -0.14142471944E+01  0.39215087399E+02  0.17770000000E+01 0. -1.
        -16    1    4    4    0    0 -0.40065284199E+02 -0.19884966278E+02 -0.92141393400E+01  0.45667704624E+02  0.00000000000E+00 0.  1.
<mgrwt>
<rscale>  2 0.20856962E+03</rscale>
<asrwt>0</asrwt>
<pdfrwt beam="1">  1       21 0.39462594E-01 0.20907049E+03</pdfrwt>
<pdfrwt beam="2">  1       21 0.29270805E-01 0.20907049E+03</pdfrwt>
<totfact> 0.68697039E+04</totfact>
</mgrwt>
</event>
<event>
12    2  0.4090627E-002  0.1794030E+03  0.7546771E-02  0.1168699E+00
         21   -1    0    0  501  502  0.00000000000E+00  0.00000000000E+00  0.79814044518E+02  0.79814044518E+02  0.00000000000E+00 0. -1.
         21   -1    0    0  502  503 -0.00000000000E+00 -0.00000000000E+00 -0.44032724115E+03  0.44032724115E+03  0.00000000000E+00 0. -1.
         -6    2    1    2    0  503 -0.38448843188E+02  0.24851268137E+02 -0.25922810834E+03  0.31525333571E+03  0.17346340956E+03 0.  0.
        -24    2    3    3    0    0 -0.91584728669E+02  0.26183762260E+02 -0.19421600086E+03  0.23114708158E+03  0.81460213592E+02 0.  0.
          6    2    1    2  501    0  0.38448843188E+02 -0.24851268137E+02 -0.10128508830E+03  0.20488794996E+03  0.17211770350E+03 0.  0.
         24    2    5    5    0    0  0.79446717975E+02 -0.55284677692E+02 -0.71079286907E+02  0.14537745852E+03  0.81940001423E+02 0.  0.
          5    1    5    5  501    0 -0.40997874787E+02  0.30433409555E+02 -0.30205801393E+02  0.59510491444E+02  0.47000000000E+01 0. -1.
        -15    1    6    6    0    0  0.23255429348E+02 -0.43884729967E+02  0.51817847252E+01  0.49966920461E+02  0.17770000000E+01 0.  1.
         16    1    6    6    0    0  0.56191288627E+02 -0.11399947725E+02 -0.76261071632E+02  0.95410538056E+02  0.00000000000E+00 0. -1.
         -5    1    3    3    0  503  0.53135885481E+02 -0.13324941227E+01 -0.65012107473E+02  0.84106254134E+02  0.47000000000E+01 0.  1.
         15    1    4    4    0    0 -0.73707202496E+01 -0.24865509104E+02 -0.52373069575E+02  0.58469797380E+02  0.17770000000E+01 0. -1.
        -16    1    4    4    0    0 -0.84214008420E+02  0.51049271364E+02 -0.14184293129E+03  0.17267728420E+03  0.00000000000E+00 0.  1.
<mgrwt>
<rscale>  2 0.17907695E+03</rscale>
<asrwt>0</asrwt>
<pdfrwt beam="1">  1       21 0.12279084E-01 0.17940305E+03</pdfrwt>
<pdfrwt beam="2">  1       21 0.67742651E-01 0.17940305E+03</pdfrwt>
<totfact> 0.11269799E+05</totfact>
</mgrwt>
</event>
<event>
12    2  0.4090627E-002  0.2292958E+03  0.7546771E-02  0.1128017E+00
         21   -1    0    0  503  502  0.00000000000E+00  0.00000000000E+00  0.69242066085E+02  0.69242066085E+02  0.00000000000E+00 0.  1.
         21   -1    0    0  501  503 -0.00000000000E+00 -0.00000000000E+00 -0.13852183017E+04  0.13852183017E+04  0.00000000000E+00 0.  1.
          6    2    1    2  501    0 -0.15098534462E+03 -0.25092794151E+01 -0.11492749534E+04  0.11709715907E+04  0.16594781351E+03 0.  0.
         24    2    3    3    0    0 -0.16687027799E+03  0.27534724955E+02 -0.88305596299E+03  0.90255099873E+03  0.78782109549E+02 0.  0.
         -6    2    1    2    0  502  0.15098534462E+03  0.25092794151E+01 -0.16670128221E+03  0.28348877713E+03  0.17255056794E+03 0.  0.
        -24    2    5    5    0    0  0.12890584134E+03  0.37646966280E+02 -0.54842165584E+02  0.16408729693E+03  0.76700507728E+02 0.  0.
          5    1    3    3  501    0  0.15884933374E+02 -0.30044004370E+02 -0.26621899043E+03  0.26842059193E+03  0.47000000000E+01 0. -1.
        -15    1    4    4    0    0 -0.10663638111E+03 -0.18827145440E+01 -0.68981710479E+03  0.69801551429E+03  0.17770000000E+01 0.  1.
         16    1    4    4    0    0 -0.60233896882E+02  0.29417439499E+02 -0.19323885819E+03  0.20453548444E+03  0.00000000000E+00 0. -1.
         -5    1    5    5    0  502  0.22079503278E+02 -0.35137686865E+02 -0.11185911662E+03  0.11940148020E+03  0.47000000000E+01 0.  1.
         15    1    6    6    0    0 -0.39413638140E+01 -0.55973748259E+01  0.81871616928E+01  0.10819071090E+02  0.17770000000E+01 0. -1.
        -16    1    6    6    0    0  0.13284720516E+03  0.43244341106E+02 -0.63029327277E+02  0.15326822584E+03  0.00000000000E+00 0.  1.
<mgrwt>
<rscale>  2 0.22805411E+03</rscale>
<asrwt>0</asrwt>
<pdfrwt beam="1">  1       21 0.10652626E-01 0.22929581E+03</pdfrwt>
<pdfrwt beam="2">  1       21 0.21311049E+00 0.22929581E+03</pdfrwt>
<totfact> 0.78047480E+03</totfact>
</mgrwt>
</event>
<event>
12    2  0.4090627E-002  0.1859179E+03  0.7546771E-02  0.1162469E+00
         21   -1    0    0  503  502  0.00000000000E+00  0.00000000000E+00  0.12070651028E+04  0.12070651028E+04  0.00000000000E+00 0.  1.
         21   -1    0    0  501  503 -0.00000000000E+00 -0.00000000000E+00 -0.36958325374E+02  0.36958325374E+02  0.00000000000E+00 0.  1.
          6    2    1    2  501    0 -0.66705492905E+02 -0.35383018812E+01  0.28812978383E+03  0.34290555480E+03  0.17350303981E+03 0.  0.
         24    2    3    3    0    0 -0.46183495126E+01  0.27229785883E+02  0.56683954065E+02  0.10126377300E+03  0.79236927513E+02 0.  0.
         -6    2    1    2    0  502  0.66705492905E+02  0.35383018812E+01  0.88197699355E+03  0.90111787332E+03  0.17224361268E+03 0.  0.
        -24    2    5    5    0    0  0.43384407164E+02 -0.28829654189E+02  0.82978624503E+03  0.83525800807E+03  0.79983572427E+02 0.  0.
          5    1    3    3  501    0 -0.62087143392E+02 -0.30768087764E+02  0.23144582977E+03  0.24164178181E+03  0.47000000000E+01 0. -1.
        -15    1    4    4    0    0 -0.26072045692E+02 -0.19253041324E+02  0.18162801582E+02  0.37195110661E+02  0.17770000000E+01 0.  1.
         16    1    4    4    0    0  0.21453696179E+02  0.46482827207E+02  0.38521152483E+02  0.64068662336E+02  0.00000000000E+00 0. -1.
         -5    1    5    5    0  502  0.23321085741E+02  0.32367956070E+02  0.52190748524E+02  0.65859865258E+02  0.47000000000E+01 0.  1.
         15    1    6    6    0    0 -0.54461192072E+01 -0.39579574857E+02  0.23544446413E+03  0.23881678412E+03  0.17770000000E+01 0. -1.
        -16    1    6    6    0    0  0.48830526371E+02  0.10749920668E+02  0.59434178090E+03  0.59644122394E+03  0.00000000000E+00 0.  1.
<mgrwt>
<rscale>  2 0.18562346E+03</rscale>
<asrwt>0</asrwt>
<pdfrwt beam="1">  1       21 0.18570229E+00 0.18591785E+03</pdfrwt>
<pdfrwt beam="2">  1       21 0.56858971E-02 0.18591785E+03</pdfrwt>
<totfact> 0.36161710E+04</totfact>
</mgrwt>
</event>
<event>
12    2  0.4090627E-002  0.1788388E+03  0.7546771E-02  0.1169652E+00
         21   -1    0    0  501  502  0.00000000000E+00  0.00000000000E+00  0.16492095984E+03  0.16492095984E+03  0.00000000000E+00 0.  1.
         21   -1    0    0  502  503 -0.00000000000E+00 -0.00000000000E+00 -0.21410341251E+03  0.21410341251E+03  0.00000000000E+00 0.  1.
         -6    2    1    2    0  503  0.31682592771E+02  0.33094255777E+02 -0.86972446550E+02  0.19623646822E+03  0.16983971429E+03 0.  0.
        -24    2    3    3    0    0 -0.26166303636E+02  0.81911090628E+00  0.65316853383E+01  0.81548663842E+02  0.76955670827E+02 0.  0.
          6    2    1    2  501    0 -0.31682592771E+02 -0.33094255777E+02  0.37789993879E+02  0.18278790413E+03  0.17287081248E+03 0.  0.
         24    2    5    5    0    0  0.27345859508E+00 -0.70446502170E+02  0.65911707929E+02  0.12596097098E+03  0.80987829462E+02 0.  0.
          5    1    5    5  501    0 -0.31956051366E+02  0.37352246393E+02 -0.28121714051E+02  0.56826933145E+02  0.47000000000E+01 0. -1.
        -15    1    6    6    0    0 -0.38948976197E+02 -0.44065647099E+02  0.45927909763E+02  0.74641373415E+02  0.17770000000E+01 0.  1.
         16    1    6    6    0    0  0.39222434792E+02 -0.26380855071E+02  0.19983798167E+02  0.51319597567E+02  0.00000000000E+00 0. -1.
         -5    1    3    3    0  503  0.57848896408E+02  0.32275144871E+02 -0.93504131888E+02  0.11468780437E+03  0.47000000000E+01 0.  1.
         15    1    4    4    0    0  0.16873047326E+02 -0.25394898650E+02  0.61448580038E+01  0.31153131663E+02  0.17770000000E+01 0. -1.
        -16    1    4    4    0    0 -0.43039350963E+02  0.26214009556E+02  0.38682733443E+00  0.50395532180E+02  0.00000000000E+00 0.  1.
<mgrwt>
<rscale>  2 0.17810225E+03</rscale>
<asrwt>0</asrwt>
<pdfrwt beam="1">  1       21 0.25372456E-01 0.17883885E+03</pdfrwt>
<pdfrwt beam="2">  1       21 0.32938986E-01 0.17883885E+03</pdfrwt>
<totfact> 0.13126534E+05</totfact>
</mgrwt>
</event>
<event>
12    2  0.4090627E-002  0.2297973E+03  0.7546771E-02  0.1128800E+00
         21   -1    0    0  501  502  0.00000000000E+00  0.00000000000E+00  0.16245313348E+03  0.16245313348E+03  0.00000000000E+00 0.  1.
         21   -1    0    0  502  503 -0.00000000000E+00 -0.00000000000E+00 -0.32048547243E+03  0.32048547243E+03  0.00000000000E+00 0.  1.
         -6    2    1    2    0  503 -0.90593564136E+02  0.97797062228E+02 -0.12566081885E+03  0.26191115129E+03  0.18717732376E+03 0.  0.
        -24    2    3    3    0    0 -0.11871177292E+03  0.97246612061E+02 -0.14656683338E+03  0.22655456627E+03  0.79345738801E+02 0.  0.
          6    2    1    2  501    0  0.90593564136E+02 -0.97797062228E+02 -0.32371520092E+02  0.22102745463E+03  0.17330251338E+03 0.  0.
         24    2    5    5    0    0  0.78430564090E+02 -0.63952731974E+01  0.15087883499E+02  0.11721651784E+03  0.85555916934E+02 0.  0.
          5    1    5    5  501    0  0.12163000046E+02 -0.91401789030E+02 -0.47459403591E+02  0.10381093679E+03  0.47000000000E+01 0. -1.
        -15    1    6    6    0    0  0.93177519767E+02 -0.10180069729E+02 -0.27190414288E+01  0.93788245132E+02  0.17770000000E+01 0.  1.
         16    1    6    6    0    0 -0.14746955677E+02  0.37847965315E+01  0.17806924928E+02  0.23428272704E+02  0.00000000000E+00 0. -1.
         -5    1    3    3    0  503  0.28118208779E+02  0.55045016635E+00  0.20906014527E+02  0.35356585012E+02  0.47000000000E+01 0.  1.
         15    1    4    4    0    0 -0.35209128700E+02 -0.84622529351E+01 -0.18583038692E+02  0.40740391807E+02  0.17770000000E+01 0. -1.
        -16    1    4    4    0    0 -0.83502644216E+02  0.10570886500E+03 -0.12798379469E+03  0.18581417447E+03  0.00000000000E+00 0.  1.
<mgrwt>
<rscale>  2 0.22695677E+03</rscale>
<asrwt>0</asrwt>
<pdfrwt beam="1">  1       21 0.24992790E-01 0.22979732E+03</pdfrwt>
<pdfrwt beam="2">  1       21 0.49305457E-01 0.22979732E+03</pdfrwt>
<totfact> 0.58475837E+04</totfact>
</mgrwt>
</event>
<event>
12    2  0.4090627E-002  0.2282478E+03  0.7546771E-02  0.1129529E+00
         21   -1    0    0  501  502  0.00000000000E+00  0.00000000000E+00  0.48019710951E+03  0.48019710951E+03  0.00000000000E+00 0. -1.
         21   -1    0    0  502  503 -0.00000000000E+00 -0.00000000000E+00 -0.11801189700E+03  0.11801189700E+03  0.00000000000E+00 0. -1.
         -6    2    1    2    0  503 -0.28781162004E+02 -0.13085493447E+03  0.75599637694E+02  0.23183715066E+03  0.17344102758E+03 0.  0.
        -24    2    3    3    0    0 -0.27236955383E+02 -0.12708719207E+03 -0.35062291663E+01  0.15248723807E+03  0.79668425389E+02 0.  0.
          6    2    1    2  501    0  0.28781162004E+02  0.13085493447E+03  0.28658557482E+03  0.36637185584E+03  0.18478548618E+03 0.  0.
         24    2    5    5    0    0 -0.80316623717E+01  0.79217922684E+02  0.28039882544E+03  0.30248186530E+03  0.80819494235E+02 0.  0.
          5    1    5    5  501    0  0.36812824376E+02  0.51637011781E+02  0.61867493729E+01  0.63889990547E+02  0.47000000000E+01 0. -1.
        -15    1    6    6    0    0 -0.95582233887E+00  0.29644492374E+02  0.16728576027E+02  0.34098570488E+02  0.17770000000E+01 0.  1.
         16    1    6    6    0    0 -0.70758400328E+01  0.49573430310E+02  0.26367024942E+03  0.26838329481E+03  0.00000000000E+00 0. -1.
         -5    1    3    3    0  503 -0.15442066215E+01 -0.37677423931E+01  0.79105866860E+02  0.79349912593E+02  0.47000000000E+01 0.  1.
         15    1    4    4    0    0 -0.44994300328E+02 -0.79366214933E+02 -0.28727136418E+02  0.95665507005E+02  0.17770000000E+01 0. -1.
        -16    1    4    4    0    0  0.17757344945E+02 -0.47720977139E+02  0.25220907252E+02  0.56821731065E+02  0.00000000000E+00 0.  1.
<mgrwt>
<rscale>  2 0.22594230E+03</rscale>
<asrwt>0</asrwt>
<pdfrwt beam="1">  1       21 0.73876478E-01 0.22824777E+03</pdfrwt>
<pdfrwt beam="2">  1       21 0.18155677E-01 0.22824777E+03</pdfrwt>
<totfact> 0.44655852E+04</totfact>
</mgrwt>
</event>
<event>
12    2  0.4090627E-002  0.1926562E+03  0.7546771E-02  0.1156334E+00
         21   -1    0    0  501  502  0.00000000000E+00  0.00000000000E+00  0.12265207247E+04  0.12265207247E+04  0.00000000000E+00 0.  1.
         21   -1    0    0  502  503 -0.00000000000E+00 -0.00000000000E+00 -0.39686350177E+02  0.39686350177E+02  0.00000000000E+00 0.  1.
         -6    2    1    2    0  503  0.79662405702E+02  0.14484100704E+02  0.28335764404E+03  0.34264847581E+03  0.17481571864E+03 0.  0.
        -24    2    3    3    0    0  0.90762205451E+02 -0.11741433963E+02  0.28879118306E+03  0.31327846442E+03  0.79796050295E+02 0.  0.
          6    2    1    2  501    0 -0.79662405702E+02 -0.14484100704E+02  0.90347673046E+03  0.92355859905E+03  0.17359261312E+03 0.  0.
         24    2    5    5    0    0 -0.75207908632E+02 -0.16271590476E+02  0.90848126057E+03  0.91518166731E+03  0.79361761496E+02 0.  0.
          5    1    5    5  501    0 -0.44544970701E+01  0.17874897711E+01 -0.50045301066E+01  0.83769317424E+01  0.47000000000E+01 0. -1.
        -15    1    6    6    0    0 -0.74151797054E+02 -0.27247679606E+02  0.47257064542E+03  0.47913160790E+03  0.17770000000E+01 0.  1.
         16    1    6    6    0    0 -0.10561115779E+01  0.10976089130E+02  0.43591061515E+03  0.43605005940E+03  0.00000000000E+00 0. -1.
         -5    1    3    3    0  503 -0.11099799749E+02  0.26225534667E+02 -0.54335390212E+01  0.29370011395E+02  0.47000000000E+01 0.  1.
         15    1    4    4    0    0  0.45661842049E+02  0.22323589298E+02  0.21148777284E+03  0.21751685509E+03  0.17770000000E+01 0. -1.
        -16    1    4    4    0    0  0.45100363402E+02 -0.34065023261E+02  0.77303410221E+02  0.95761609325E+02  0.00000000000E+00 0.  1.
<mgrwt>
<rscale>  2 0.19237834E+03</rscale>
<asrwt>0</asrwt>
<pdfrwt beam="1">  1       21 0.18869547E+00 0.19265623E+03</pdfrwt>
<pdfrwt beam="2">  1       21 0.61055933E-02 0.19265623E+03</pdfrwt>
<totfact> 0.30447366E+04</totfact>
</mgrwt>
</event>
<event>
12    2  0.4090627E-002  0.1903565E+03  0.7546771E-02  0.1158397E+00
         21   -1    0    0  501  502  0.00000000000E+00  0.00000000000E+00  0.38901635326E+02  0.38901635326E+02  0.00000000000E+00 0. -1.
         21   -1    0    0  502  503 -0.00000000000E+00 -0.00000000000E+00 -0.10981496256E+04  0.10981496256E+04  0.00000000000E+00 0.  1.
         -6    2    1    2    0  503 -0.52006876363E+02  0.56869487074E+02 -0.75612386043E+03  0.77971718168E+03  0.17405957989E+03 0.  0.
        -24    2    3    3    0    0 -0.48112571038E+02  0.10579699334E+03 -0.53550364991E+03  0.55365428386E+03  0.79127009767E+02 0.  0.
          6    2    1    2  501    0  0.52006876363E+02 -0.56869487074E+02 -0.30312412981E+03  0.35733407921E+03  0.17281363471E+03 0.  0.
         24    2    5    5    0    0  0.71653978688E+02 -0.96448968759E+02 -0.22800291531E+03  0.27005389321E+03  0.80666471422E+02 0.  0.
          5    1    5    5  501    0 -0.19647102325E+02  0.39579481685E+02 -0.75121214505E+02  0.87280186004E+02  0.47000000000E+01 0. -1.
        -15    1    6    6    0    0  0.18567442383E+02 -0.82868430995E+02 -0.17128400599E+03  0.19118916081E+03  0.17770000000E+01 0.  1.
         16    1    6    6    0    0  0.53086536305E+02 -0.13580537764E+02 -0.56718909315E+02  0.78864732401E+02  0.00000000000E+00 0. -1.
         -5    1    3    3    0  503 -0.38943053256E+01 -0.48927506265E+02 -0.22062021052E+03  0.22606289782E+03  0.47000000000E+01 0.  1.
         15    1    4    4    0    0 -0.41960412322E+02  0.36255062231E+02 -0.11847952923E+03  0.13082684096E+03  0.17770000000E+01 0. -1.
        -16    1    4    4    0    0 -0.61521587160E+01  0.69541931108E+02 -0.41702412068E+03  0.42282744290E+03  0.00000000000E+00 0.  1.
<mgrwt>
<rscale>  2 0.19007119E+03</rscale>
<asrwt>0</asrwt>
<pdfrwt beam="1">  1       21 0.59848659E-02 0.19035648E+03</pdfrwt>
<pdfrwt beam="2">  1       21 0.16894613E+00 0.19035648E+03</pdfrwt>
<totfact> 0.43045364E+04</totfact>
</mgrwt>
</event>
<event>
12    2  0.4090627E-002  0.1878022E+03  0.7546771E-02  0.1160695E+00
         21   -1    0    0  503  502  0.00000000000E+00  0.00000000000E+00  0.60806929146E+02  0.60806929146E+02  0.00000000000E+00 0.  1.
         21   -1    0    0  501  503 -0.00000000000E+00 -0.00000000000E+00 -0.62695005276E+03  0.62695005276E+03  0.00000000000E+00 0.  1.
          6    2    1    2  501    0 -0.20892837909E+01  0.72860424883E+02 -0.18657618523E+03  0.26472694065E+03  0.17307996299E+03 0.  0.
         24    2    3    3    0    0  0.48904100341E+02  0.27350646453E+01 -0.60744050767E+02  0.11184231932E+03  0.80123486439E+02 0.  0.
         -6    2    1    2    0  502  0.20892837909E+01 -0.72860424883E+02 -0.37956693838E+03  0.42303004126E+03  0.17196031075E+03 0.  0.
        -24    2    5    5    0    0  0.15771583484E+02 -0.11323741601E+03 -0.29865158124E+03  0.33145006660E+03  0.87148863665E+02 0.  0.
          5    1    3    3  501    0 -0.50993384132E+02  0.70125360238E+02 -0.12583213446E+03  0.15288462132E+03  0.47000000000E+01 0. -1.
        -15    1    4    4    0    0  0.39883192592E+02  0.39291818371E+02 -0.32372590594E+02  0.64696664466E+02  0.17770000000E+01 0.  1.
         16    1    4    4    0    0  0.90209077487E+01 -0.36556753726E+02 -0.28371460173E+02  0.47145654857E+02  0.00000000000E+00 0. -1.
         -5    1    5    5    0  502 -0.13682299693E+02  0.40376991132E+02 -0.80915357140E+02  0.91579974661E+02  0.47000000000E+01 0.  1.
         15    1    6    6    0    0  0.14292386288E+02 -0.82032712439E+02 -0.99024385523E+02  0.12939329532E+03  0.17770000000E+01 0. -1.
        -16    1    6    6    0    0  0.14791971964E+01 -0.31204703576E+02 -0.19962719572E+03  0.20205677128E+03  0.00000000000E+00 0.  1.
<mgrwt>
<rscale>  2 0.18754386E+03</rscale>
<asrwt>0</asrwt>
<pdfrwt beam="1">  1       21 0.93549120E-02 0.18780224E+03</pdfrwt>
<pdfrwt beam="2">  1       21 0.96453856E-01 0.18780224E+03</pdfrwt>
<totfact> 0.81757434E+04</totfact>
</mgrwt>
</event>
<event>
12    2  0.4090627E-002  0.2921949E+03  0.7546771E-02  0.1089245E+00
         21   -1    0    0  501  502  0.00000000000E+00  0.00000000000E+00  0.19899345956E+03  0.19899345956E+03  0.00000000000E+00 0. -1.
         21   -1    0    0  502  503 -0.00000000000E+00 -0.00000000000E+00 -0.13225415321E+04  0.13225415321E+04  0.00000000000E+00 0.  1.
         -6    2    1    2    0  503  0.23034339091E+03 -0.48839134551E+02 -0.11873108672E+04  0.12227366567E+04  0.17301588818E+03 0.  0.
        -24    2    3    3    0    0  0.87801592570E+02 -0.83559374945E+02 -0.61292599371E+03  0.62989288958E+03  0.79971806136E+02 0.  0.
          6    2    1    2  501    0 -0.23034339091E+03  0.48839134551E+02  0.63762794612E+02  0.29879833498E+03  0.17254394283E+03 0.  0.
         24    2    5    5    0    0 -0.24878476106E+03  0.37713275035E+02  0.40986049721E+02  0.26710071692E+03  0.79666732435E+02 0.  0.
          5    1    5    5  501    0  0.18441370148E+02  0.11125859516E+02  0.22776744891E+02  0.31697618061E+02  0.47000000000E+01 0. -1.
        -15    1    6    6    0    0 -0.21136093079E+03  0.60744182715E+02  0.31846836570E+02  0.22221763550E+03  0.17770000000E+01 0.  1.
         16    1    6    6    0    0 -0.37423830270E+02 -0.23030907681E+02  0.91392131509E+01  0.44883081419E+02  0.00000000000E+00 0. -1.
         -5    1    3    3    0  503  0.14254179834E+03  0.34720240394E+02 -0.57438487347E+03  0.59284376714E+03  0.47000000000E+01 0.  1.
         15    1    4    4    0    0  0.94494157106E+01 -0.60696294631E+02 -0.31787782696E+03  0.32376349739E+03  0.17770000000E+01 0. -1.
        -16    1    4    4    0    0  0.78352176860E+02 -0.22863080314E+02 -0.29504816675E+03  0.30612939219E+03  0.00000000000E+00 0.  1.
<mgrwt>
<rscale>  2 0.29212503E+03</rscale>
<asrwt>0</asrwt>
<pdfrwt beam="1">  1       21 0.30614379E-01 0.29219486E+03</pdfrwt>
<pdfrwt beam="2">  1       21 0.20346792E+00 0.29219486E+03</pdfrwt>
<totfact> 0.11945927E+03</totfact>
</mgrwt>
</event>
<event>
12    2  0.4090627E-002  0.1981321E+03  0.7546771E-02  0.1151372E+00
         21   -1    0    0  501  502  0.00000000000E+00  0.00000000000E+00  0.91173588737E+03  0.91173588737E+03  0.00000000000E+00 0. -1.
         21   -1    0    0  502  503 -0.00000000000E+00 -0.00000000000E+00 -0.15002742744E+03  0.15002742744E+03  0.00000000000E+00 0. -1.
         -6    2    1    2    0  503  0.85646962994E+02  0.41638744113E+02 -0.67584956708E+02  0.20912981114E+03  0.17348880152E+03 0.  0.
        -24    2    3    3    0    0  0.21772340054E+02  0.95047460603E+01 -0.10046123859E+03  0.13029136115E+03  0.79492158998E+02 0.  0.
          6    2    1    2  501    0 -0.85646962994E+02 -0.41638744113E+02  0.82929341664E+03  0.85263350367E+03  0.17374444859E+03 0.  0.
         24    2    5    5    0    0 -0.11108190118E+03 -0.34653607984E+02  0.46144252126E+03  0.48380820703E+03  0.87184399125E+02 0.  0.
          5    1    5    5  501    0  0.25434938184E+02 -0.69851361300E+01  0.36785089538E+03  0.36882529664E+03  0.47000000000E+01 0. -1.
        -15    1    6    6    0    0 -0.46469217058E+01  0.21634767984E+02  0.43062239570E+02  0.48447613696E+02  0.17770000000E+01 0.  1.
         16    1    6    6    0    0 -0.10643497947E+03 -0.56288375967E+02  0.41838028169E+03  0.43536059334E+03  0.00000000000E+00 0. -1.
         -5    1    3    3    0  503  0.63874622940E+02  0.32133998053E+02  0.32876281883E+02  0.78838449991E+02  0.47000000000E+01 0.  1.
         15    1    4    4    0    0  0.28997872876E+02  0.14517494239E+02 -0.11152534138E+03  0.11615805512E+03  0.17770000000E+01 0. -1.
        -16    1    4    4    0    0 -0.72255328223E+01 -0.50127481787E+01  0.11064102788E+02  0.14133306031E+02  0.00000000000E+00 0.  1.
<mgrwt>
<rscale>  2 0.19807602E+03</rscale>
<asrwt>0</asrwt>
<pdfrwt beam="1">  1       21 0.14026706E+00 0.19813208E+03</pdfrwt>
<pdfrwt beam="2">  1       21 0.23081143E-01 0.19813208E+03</pdfrwt>
<totfact> 0.62501776E+03</totfact>
</mgrwt>
</event>
<event>
12    2  0.4090627E-002  0.1867224E+03  0.7546771E-02  0.1162291E+00
         21   -1    0    0  501  502  0.00000000000E+00  0.00000000000E+00  0.38049331395E+03  0.38049331395E+03  0.00000000000E+00 0. -1.
         21   -1    0    0  502  503 -0.00000000000E+00 -0.00000000000E+00 -0.13026270780E+03  0.13026270780E+03  0.00000000000E+00 0. -1.
         -6    2    1    2    0  503 -0.17377873995E+02  0.56983110446E+02 -0.17924812683E+02  0.18399525859E+03  0.17315857153E+03 0.  0.
        -24    2    3    3    0    0  0.36591611405E+02  0.26095981978E+02 -0.59438615064E+02  0.10908060150E+03  0.79659791378E+02 0.  0.
          6    2    1    2  501    0  0.17377873995E+02 -0.56983110446E+02  0.26815541884E+03  0.32676076316E+03  0.17696384463E+03 0.  0.
         24    2    5    5    0    0  0.74936661413E+02 -0.35397287083E+01  0.17631236704E+03  0.20582092181E+03  0.75154295829E+02 0.  0.
          5    1    5    5  501    0 -0.57558787418E+02 -0.53443381738E+02  0.91843051800E+02  0.12093984135E+03  0.47000000000E+01 0. -1.
        -15    1    6    6    0    0  0.29222896748E+02 -0.41165629241E+01  0.69149665950E+01  0.30362777815E+02  0.17770000000E+01 0.  1.
         16    1    6    6    0    0  0.45713764665E+02  0.57683421578E+00  0.16939740044E+03  0.17545814400E+03  0.00000000000E+00 0. -1.
         -5    1    3    3    0  503 -0.53969485400E+02  0.30887128468E+02  0.41513802381E+02  0.74914657093E+02  0.47000000000E+01 0.  1.
         15    1    4    4    0    0 -0.21737689694E+02 -0.63449144519E+01 -0.25683165064E+02  0.34286554060E+02  0.17770000000E+01 0. -1.
        -16    1    4    4    0    0  0.58329301099E+02  0.32440896430E+02 -0.33755450000E+02  0.74794047441E+02  0.00000000000E+00 0.  1.
<mgrwt>
<rscale>  2 0.18581525E+03</rscale>
<asrwt>0</asrwt>
<pdfrwt beam="1">  1       21 0.58537432E-01 0.18672243E+03</pdfrwt>
<pdfrwt beam="2">  1       21 0.20040417E-01 0.18672243E+03</pdfrwt>
<totfact> 0.62988168E+04</totfact>
</mgrwt>
</event>
<event>
12    2  0.4090627E-002  0.2401527E+03  0.7546771E-02  0.1119838E+00
         21   -1    0    0  503  502  0.00000000000E+00  0.00000000000E+00  0.51320485752E+03  0.51320485752E+03  0.00000000000E+00 0.  1.
         21   -1    0    0  501  503 -0.00000000000E+00 -0.00000000000E+00 -0.11270831463E+03  0.11270831463E+03  0.00000000000E+00 0.  1.
          6    2    1    2  501    0  0.24928082915E+02 -0.16414254902E+03  0.17449350312E+03  0.29613946668E+03  0.17229746190E+03 0.  0.
         24    2    3    3    0    0  0.29347627055E+01 -0.17232899428E+03  0.18913448037E+03  0.26808287682E+03  0.79941741766E+02 0.  0.
         -6    2    1    2    0  502 -0.24928082915E+02  0.16414254902E+03  0.22600303977E+03  0.32977370547E+03  0.17351984646E+03 0.  0.
        -24    2    5    5    0    0 -0.53962381985E+02  0.26938885751E+02  0.90346038795E+02  0.13460007085E+03  0.79480375634E+02 0.  0.
          5    1    3    3  501    0  0.21993320210E+02  0.81864452595E+01 -0.14640977251E+02  0.28056589862E+02  0.47000000000E+01 0. -1.
        -15    1    4    4    0    0 -0.22702977490E+02 -0.15952643634E+03  0.15614132794E+03  0.22438222100E+03  0.17770000000E+01 0.  1.
         16    1    4    4    0    0  0.25637740195E+02 -0.12802557937E+02  0.32993152427E+02  0.43700655820E+02  0.00000000000E+00 0. -1.
         -5    1    5    5    0  502  0.29034299070E+02  0.13720366327E+03  0.13565700098E+03  0.19517363462E+03  0.47000000000E+01 0.  1.
         15    1    6    6    0    0  0.64299185292E+01 -0.21044815117E+02  0.26338647652E+02  0.34367283639E+02  0.17770000000E+01 0. -1.
        -16    1    6    6    0    0 -0.60392300514E+02  0.47983700868E+02  0.64007391144E+02  0.10023278721E+03  0.00000000000E+00 0.  1.
<mgrwt>
<rscale>  2 0.23993197E+03</rscale>
<asrwt>0</asrwt>
<pdfrwt beam="1">  1       21 0.78954592E-01 0.24015271E+03</pdfrwt>
<pdfrwt beam="2">  1       21 0.17339741E-01 0.24015271E+03</pdfrwt>
<totfact> 0.41649438E+04</totfact>
</mgrwt>
</event>
<event>
12    2  0.4090627E-002  0.2228985E+03  0.7546771E-02  0.1132002E+00
         21   -1    0    0  503  502  0.00000000000E+00  0.00000000000E+00  0.11690369208E+03  0.11690369208E+03  0.00000000000E+00 0.  1.
         21   -1    0    0  501  503 -0.00000000000E+00 -0.00000000000E+00 -0.75610843600E+03  0.75610843600E+03  0.00000000000E+00 0.  1.
          6    2    1    2  501    0 -0.14022242655E+03 -0.16473827231E+02 -0.61020766508E+03  0.64964386660E+03  0.17248200776E+03 0.  0.
         24    2    3    3    0    0 -0.11169277581E+02  0.20617358298E+02 -0.16949687406E+03  0.18890688890E+03  0.80042452063E+02 0.  0.
         -6    2    1    2    0  502  0.14022242655E+03  0.16473827231E+02 -0.28997078836E+02  0.22336826148E+03  0.17064241490E+03 0.  0.
        -24    2    5    5    0    0  0.43926282039E+02  0.65938383933E+02 -0.28803754189E+02  0.11500859559E+03  0.78229994728E+02 0.  0.
          5    1    3    3  501    0 -0.12905314896E+03 -0.37091185529E+02 -0.44071079102E+03  0.46073697770E+03  0.47000000000E+01 0. -1.
        -15    1    4    4    0    0 -0.21913721577E+02  0.17284032432E+02 -0.17440514462E+03  0.17663312591E+03  0.17770000000E+01 0.  1.
         16    1    4    4    0    0  0.10744443996E+02  0.33333258658E+01  0.49082705555E+01  0.12273762991E+02  0.00000000000E+00 0. -1.
         -5    1    5    5    0  502  0.96296144506E+02 -0.49464556702E+02 -0.19332464635E+00  0.10835966589E+03  0.47000000000E+01 0.  1.
         15    1    6    6    0    0  0.72157210072E+01  0.29254710147E+01  0.23790373160E+02  0.25095110967E+02  0.17770000000E+01 0. -1.
        -16    1    6    6    0    0  0.36710561032E+02  0.63012912918E+02 -0.52594127350E+02  0.89913484625E+02  0.00000000000E+00 0.  1.
<mgrwt>
<rscale>  2 0.22254258E+03</rscale>
<asrwt>0</asrwt>
<pdfrwt beam="1">  1       21 0.17985184E-01 0.22289854E+03</pdfrwt>
<pdfrwt beam="2">  1       21 0.11632437E+00 0.22289854E+03</pdfrwt>
<totfact> 0.15723638E+04</totfact>
</mgrwt>
</event>
<event>
12    2  0.4090627E-002  0.2159191E+03  0.7546771E-02  0.1137386E+00
         21   -1    0    0  501  502  0.00000000000E+00  0.00000000000E+00  0.28603845844E+02  0.28603845844E+02  0.00000000000E+00 0.  1.
         21   -1    0    0  502  503 -0.00000000000E+00 -0.00000000000E+00 -0.17838544284E+04  0.17838544284E+04  0.00000000000E+00 0.  1.
         -6    2    1    2    0  503  0.37686324452E+02 -0.12051653726E+03 -0.11537756951E+04  0.11734018558E+04  0.17242118736E+03 0.  0.
        -24    2    3    3    0    0  0.13190330909E+02 -0.73234503947E+01 -0.22569730846E+03  0.23811349903E+03  0.74371672150E+02 0.  0.
          6    2    1    2  501    0 -0.37686324452E+02  0.12051653726E+03 -0.60147488747E+03  0.63905641843E+03  0.17514728339E+03 0.  0.
         24    2    5    5    0    0 -0.58253535061E+02  0.85460141541E+02 -0.57633353978E+03  0.59103414864E+03  0.80399661937E+02 0.  0.
          5    1    5    5  501    0  0.20567210609E+02  0.35056395715E+02 -0.25141347690E+02  0.48022269797E+02  0.47000000000E+01 0. -1.
        -15    1    6    6    0    0 -0.23312282425E+00  0.39665860829E+02 -0.36487787692E+03  0.36703195727E+03  0.17770000000E+01 0.  1.
         16    1    6    6    0    0 -0.58020412237E+02  0.45794280713E+02 -0.21145566286E+03  0.22400219137E+03  0.00000000000E+00 0. -1.
         -5    1    3    3    0  503  0.24495993543E+02 -0.11319308686E+03 -0.92807838665E+03  0.93528835681E+03  0.47000000000E+01 0.  1.
         15    1    4    4    0    0 -0.75181982856E+01 -0.34857881933E+02 -0.69189672010E+02  0.77858613397E+02  0.17770000000E+01 0. -1.
        -16    1    4    4    0    0  0.20708529195E+02  0.27534431538E+02 -0.15650763645E+03  0.16025488563E+03  0.00000000000E+00 0.  1.
<mgrwt>
<rscale>  2 0.21536565E+03</rscale>
<asrwt>0</asrwt>
<pdfrwt beam="1">  1       21 0.44005916E-02 0.21591912E+03</pdfrwt>
<pdfrwt beam="2">  1       21 0.27443915E+00 0.21591912E+03</pdfrwt>
<totfact> 0.15653103E+04</totfact>
</mgrwt>
</event>
<event>
12    2  0.4090627E-002  0.2837892E+03  0.7546771E-02  0.1094178E+00
         21   -1    0    0  503  502  0.00000000000E+00  0.00000000000E+00  0.19516514888E+03  0.19516514888E+03  0.00000000000E+00 0.  1.
         21   -1    0    0  501  503 -0.00000000000E+00 -0.00000000000E+00 -0.48876001592E+03  0.48876001592E+03  0.00000000000E+00 0.  1.
          6    2    1    2  501    0 -0.28717895250E+01  0.22198823472E+03 -0.28590629540E+03  0.40003181033E+03  0.17028216583E+03 0.  0.
         24    2    3    3    0    0  0.35832714337E+02  0.21403456424E+03 -0.20327025239E+03  0.30831428148E+03  0.81511487270E+02 0.  0.
         -6    2    1    2    0  502  0.28717895250E+01 -0.22198823472E+03 -0.76885716415E+01  0.28389335447E+03  0.17677471269E+03 0.  0.
        -24    2    5    5    0    0 -0.85173466486E+01 -0.23986428211E+03 -0.25651709630E+02  0.25571481974E+03  0.84407581399E+02 0.  0.
          5    1    3    3  501    0 -0.38704503862E+02  0.79536704841E+01 -0.82636043010E+02  0.91717528846E+02  0.47000000000E+01 0. -1.
        -15    1    4    4    0    0  0.72347547282E+01  0.13492569352E+03 -0.17162619621E+03  0.21843990799E+03  0.17770000000E+01 0.  1.
         16    1    4    4    0    0  0.28597959609E+02  0.79108870717E+02 -0.31644056178E+02  0.89874373496E+02  0.00000000000E+00 0. -1.
         -5    1    5    5    0  502  0.11389136174E+02  0.17876047393E+02  0.17963137988E+02  0.28178534731E+02  0.47000000000E+01 0.  1.
         15    1    6    6    0    0 -0.41681898971E+02 -0.17818894750E+03 -0.65293708223E+01  0.18312419864E+03  0.17770000000E+01 0. -1.
        -16    1    6    6    0    0  0.33164552322E+02 -0.61675334611E+02 -0.19122338807E+02  0.72590621099E+02  0.00000000000E+00 0.  1.
<mgrwt>
<rscale>  2 0.28278436E+03</rscale>
<asrwt>0</asrwt>
<pdfrwt beam="1">  1       21 0.30025408E-01 0.28378922E+03</pdfrwt>
<pdfrwt beam="2">  1       21 0.75193848E-01 0.28378922E+03</pdfrwt>
<totfact> 0.16015154E+04</totfact>
</mgrwt>
</event>
<event>
12    2  0.4090627E-002  0.1803577E+03  0.7546771E-02  0.1168206E+00
         21   -1    0    0  501  502  0.00000000000E+00  0.00000000000E+00  0.22703497308E+03  0.22703497308E+03  0.00000000000E+00 0.  1.
         21   -1    0    0  502  503 -0.00000000000E+00 -0.00000000000E+00 -0.15305289643E+03  0.15305289643E+03  0.00000000000E+00 0.  1.
         -6    2    1    2    0  503 -0.23973879367E+02  0.41179149635E+02 -0.16388551534E+02  0.18110073325E+03  0.17394948033E+03 0.  0.
        -24    2    3    3    0    0 -0.28998443650E+02 -0.11806969027E+02  0.46785109397E+02  0.98361525784E+02  0.80658719562E+02 0.  0.
          6    2    1    2  501    0  0.23973879367E+02 -0.41179149635E+02  0.90370628189E+02  0.19898713626E+03  0.17075877928E+03 0.  0.
         24    2    5    5    0    0  0.17938046282E+02  0.96485441000E+01 -0.12503959616E+02  0.83986455618E+02  0.80514022465E+02 0.  0.
          5    1    5    5  501    0  0.60358330848E+01 -0.50827693735E+02  0.10287458781E+03  0.11500068064E+03  0.47000000000E+01 0. -1.
        -15    1    6    6    0    0  0.22639838826E+02 -0.69220637397E+01  0.29922510314E+02  0.38196748827E+02  0.17770000000E+01 0.  1.
         16    1    6    6    0    0 -0.47017925439E+01  0.16570607840E+02 -0.42426469930E+02  0.45789706791E+02  0.00000000000E+00 0. -1.
         -5    1    3    3    0  503  0.50245642834E+01  0.52986118661E+02 -0.63173660931E+02  0.82739207468E+02  0.47000000000E+01 0.  1.
         15    1    4    4    0    0  0.11367011426E+02 -0.23143033678E+02 -0.10054033069E+02  0.27731755562E+02  0.17770000000E+01 0. -1.
        -16    1    4    4    0    0 -0.40365455077E+02  0.11336064651E+02  0.56839142466E+02  0.70629770222E+02  0.00000000000E+00 0.  1.
<mgrwt>
<rscale>  2 0.17958388E+03</rscale>
<asrwt>0</asrwt>
<pdfrwt beam="1">  1       21 0.34928457E-01 0.18035768E+03</pdfrwt>
<pdfrwt beam="2">  1       21 0.23546599E-01 0.18035768E+03</pdfrwt>
<totfact> 0.13468616E+05</totfact>
</mgrwt>
</event>
<event>
12    2  0.4090627E-002  0.2207647E+03  0.7546771E-02  0.1133443E+00
         21   -1    0    0  501  502  0.00000000000E+00  0.00000000000E+00  0.41719203943E+03  0.41719203943E+03  0.00000000000E+00 0. -1.
         21   -1    0    0  502  503 -0.00000000000E+00 -0.00000000000E+00 -0.13605713418E+03  0.13605713418E+03  0.00000000000E+00 0. -1.
         -6    2    1    2    0  503 -0.13298222605E+03 -0.35752832610E+02  0.24575372514E+03  0.33035125981E+03  0.17255295986E+03 0.  0.
        -24    2    3    3    0    0 -0.89719180712E+02  0.22330805288E+02  0.22060797066E+03  0.25354111041E+03  0.84065579740E+02 0.  0.
          6    2    1    2  501    0  0.13298222605E+03  0.35752832610E+02  0.35381180109E+02  0.22289791380E+03  0.17166570591E+03 0.  0.
         24    2    5    5    0    0  0.62251535956E+02 -0.16218551457E+02 -0.38789773629E+02  0.10788802004E+03  0.77439545393E+02 0.  0.
          5    1    5    5  501    0  0.70730690090E+02  0.51971384067E+02  0.74170953737E+02  0.11500989375E+03  0.47000000000E+01 0. -1.
        -15    1    6    6    0    0 -0.12153358562E+02 -0.21906849689E+02 -0.35544174112E+01  0.25365444995E+02  0.17770000000E+01 0.  1.
         16    1    6    6    0    0  0.74404894518E+02  0.56882982325E+01 -0.35235356218E+02  0.82522575049E+02  0.00000000000E+00 0. -1.
         -5    1    3    3    0  503 -0.43263045335E+02 -0.58083637898E+02  0.25145754482E+02  0.76810149405E+02  0.47000000000E+01 0.  1.
         15    1    4    4    0    0 -0.20392809110E+02 -0.12495896312E+02  0.51346081644E+01  0.24526231224E+02  0.17770000000E+01 0. -1.
        -16    1    4    4    0    0 -0.69326371601E+02  0.34826701600E+02  0.21547336249E+03  0.22901487919E+03  0.00000000000E+00 0.  1.
<mgrwt>
<rscale>  2 0.22059132E+03</rscale>
<asrwt>0</asrwt>
<pdfrwt beam="1">  1       21 0.64183390E-01 0.22076472E+03</pdfrwt>
<pdfrwt beam="2">  1       21 0.20931867E-01 0.22076472E+03</pdfrwt>
<totfact> 0.46842630E+04</totfact>
</mgrwt>
</event>
<event>
12    2  0.4090627E-002  0.1892036E+03  0.7546771E-02  0.1159250E+00
         21   -1    0    0  501  502  0.00000000000E+00  0.00000000000E+00  0.63021296493E+03  0.63021296493E+03  0.00000000000E+00 0. -1.
         21   -1    0    0  502  503 -0.00000000000E+00 -0.00000000000E+00 -0.62356124454E+03  0.62356124454E+03  0.00000000000E+00 0. -1.
         -6    2    1    2    0  503  0.30212942010E+02  0.70050889949E+02 -0.59437383583E+03  0.62376137602E+03  0.17314170052E+03 0.  0.
        -24    2    3    3    0    0 -0.40601923083E+02  0.18652504351E+02 -0.39971798041E+03  0.41029116450E+03  0.81042851181E+02 0.  0.
          6    2    1    2  501    0 -0.30212942010E+02 -0.70050889949E+02  0.60102555621E+03  0.63001283344E+03  0.17281348917E+03 0.  0.
         24    2    5    5    0    0 -0.29691611246E+02  0.14279746476E+02  0.43437261290E+03  0.44317808951E+03  0.81496927847E+02 0.  0.
          5    1    5    5  501    0 -0.52133076440E+00 -0.84330636425E+02  0.16665294331E+03  0.18683474393E+03  0.47000000000E+01 0. -1.
        -15    1    6    6    0    0 -0.25594987287E+02  0.13409326176E+02  0.43318043514E+02  0.52101094284E+02  0.17770000000E+01 0.  1.
         16    1    6    6    0    0 -0.40966239589E+01  0.87042030080E+00  0.39105456938E+03  0.39107699523E+03  0.00000000000E+00 0. -1.
         -5    1    3    3    0  503  0.70814865093E+02  0.51398385598E+02 -0.19465585542E+03  0.21347021152E+03  0.47000000000E+01 0.  1.
         15    1    4    4    0    0 -0.47537594973E+02  0.38013490322E+02 -0.18889460326E+03  0.19846706843E+03  0.17770000000E+01 0. -1.
        -16    1    4    4    0    0  0.69356718900E+01 -0.19360985971E+02 -0.21082337715E+03  0.21182409607E+03  0.00000000000E+00 0.  1.
<mgrwt>
<rscale>  2 0.18912847E+03</rscale>
<asrwt>0</asrwt>
<pdfrwt beam="1">  1       21 0.96955841E-01 0.18920359E+03</pdfrwt>
<pdfrwt beam="2">  1       21 0.95932499E-01 0.18920359E+03</pdfrwt>
<totfact> 0.80246981E+02</totfact>
</mgrwt>
</event>
<event>
12    2  0.4090627E-002  0.1786049E+03  0.7546771E-02  0.1170023E+00
         21   -1    0    0  501  502  0.00000000000E+00  0.00000000000E+00  0.90132338644E+02  0.90132338644E+02  0.00000000000E+00 0.  1.
         21   -1    0    0  502  503 -0.00000000000E+00 -0.00000000000E+00 -0.55276245650E+03  0.55276245650E+03  0.00000000000E+00 0.  1.
         -6    2    1    2    0  503  0.29219798772E+02 -0.27250466104E+02 -0.42885066514E+03  0.46455636579E+03  0.17407854395E+03 0.  0.
        -24    2    3    3    0    0 -0.22403099672E+02 -0.40916950516E+02 -0.38206789023E+03  0.39340571950E+03  0.81339361159E+02 0.  0.
          6    2    1    2  501    0 -0.29219798772E+02  0.27250466104E+02 -0.33779452719E+02  0.17833842935E+03  0.17049093646E+03 0.  0.
         24    2    5    5    0    0 -0.71463391638E+02  0.16896929303E+02  0.18877225169E+02  0.10988017500E+03  0.79528489641E+02 0.  0.
          5    1    5    5  501    0  0.42243592866E+02  0.10353536801E+02 -0.52656677887E+02  0.68458254350E+02  0.47000000000E+01 0. -1.
        -15    1    6    6    0    0 -0.11359129194E+02  0.41413454579E+02  0.11883648852E+02  0.44592408269E+02  0.17770000000E+01 0.  1.
         16    1    6    6    0    0 -0.60104262444E+02 -0.24516525276E+02  0.69935763167E+01  0.65287766735E+02  0.00000000000E+00 0. -1.
         -5    1    3    3    0  503  0.51622898444E+02  0.13666484412E+02 -0.46782774912E+02  0.71150646297E+02  0.47000000000E+01 0.  1.
         15    1    4    4    0    0 -0.31439533128E+02 -0.35129503562E+02 -0.94346988180E+02  0.10548477697E+03  0.17770000000E+01 0. -1.
        -16    1    4    4    0    0  0.90364334561E+01 -0.57874469542E+01 -0.28772090205E+03  0.28792094253E+03  0.00000000000E+00 0.  1.
<mgrwt>
<rscale>  2 0.17772474E+03</rscale>
<asrwt>0</asrwt>
<pdfrwt beam="1">  1       21 0.13866514E-01 0.17860494E+03</pdfrwt>
<pdfrwt beam="2">  1       21 0.85040378E-01 0.17860494E+03</pdfrwt>
<totfact> 0.54516941E+04</totfact>
</mgrwt>
</event>
<event>
12    2  0.4090627E-002  0.1839732E+03  0.7546771E-02  0.1167180E+00
         21   -1    0    0  503  502  0.00000000000E+00  0.00000000000E+00  0.94954444687E+02  0.94954444687E+02  0.00000000000E+00 0.  1.
         21   -1    0    0  501  503 -0.00000000000E+00 -0.00000000000E+00 -0.13716258327E+04  0.13716258327E+04  0.00000000000E+00 0.  1.
          6    2    1    2  501    0  0.61620477355E+02 -0.71510498990E+01 -0.12823366825E+04  0.12954665228E+04  0.17319908744E+03 0.  0.
         24    2    3    3    0    0  0.38756702381E+02  0.52431826565E+02 -0.52418948103E+03  0.53462347700E+03  0.82440716413E+02 0.  0.
         -6    2    1    2    0  502 -0.61620477355E+02  0.71510498990E+01  0.56652944830E+01  0.17111375450E+03  0.15937252171E+03 0.  0.
        -24    2    5    5    0    0 -0.76541280560E+02  0.47326500311E+02 -0.16914886489E+02  0.12244495796E+03  0.81291383824E+02 0.  0.
          5    1    3    3  501    0  0.22863774973E+02 -0.59582876464E+02 -0.75814720142E+03  0.76084304584E+03  0.47000000000E+01 0. -1.
        -15    1    4    4    0    0  0.50377062520E+02  0.56312876077E+02 -0.51124229595E+03  0.51679863712E+03  0.17770000000E+01 0.  1.
         16    1    4    4    0    0 -0.11620360139E+02 -0.38810495114E+01 -0.12947185083E+02  0.17824839877E+02  0.00000000000E+00 0. -1.
         -5    1    5    5    0  502  0.14920803206E+02 -0.40175450412E+02  0.22580180972E+02  0.48668796542E+02  0.47000000000E+01 0.  1.
         15    1    6    6    0    0 -0.87033707317E+00  0.15544671705E+02 -0.35047906196E+02  0.38391506388E+02  0.17770000000E+01 0. -1.
        -16    1    6    6    0    0 -0.75670943487E+02  0.31781828607E+02  0.18133019707E+02  0.84053451574E+02  0.00000000000E+00 0.  1.
<mgrwt>
<rscale>  2 0.18064571E+03</rscale>
<asrwt>0</asrwt>
<pdfrwt beam="1">  1       21 0.14608378E-01 0.18397322E+03</pdfrwt>
<pdfrwt beam="2">  1       21 0.21101934E+00 0.18397322E+03</pdfrwt>
<totfact> 0.47467099E+03</totfact>
</mgrwt>
</event>
<event>
12    2  0.4090627E-002  0.2146824E+03  0.7546771E-02  0.1137930E+00
         21   -1    0    0  503  502  0.00000000000E+00  0.00000000000E+00  0.10077206785E+03  0.10077206785E+03  0.00000000000E+00 0.  1.
         21   -1    0    0  501  503 -0.00000000000E+00 -0.00000000000E+00 -0.56788694720E+03  0.56788694720E+03  0.00000000000E+00 0.  1.
          6    2    1    2  501    0  0.87956252436E+02 -0.92572479309E+02 -0.38115362008E+03  0.43740621145E+03  0.17245331382E+03 0.  0.
         24    2    3    3    0    0  0.10211910361E+03 -0.25356737628E+02 -0.17192700505E+03  0.21714180507E+03  0.80748950312E+02 0.  0.
         -6    2    1    2    0  502 -0.87956252436E+02  0.92572479309E+02 -0.85961259275E+02  0.23125280360E+03  0.17257622898E+03 0.  0.
        -24    2    5    5    0    0 -0.86301809997E+02  0.44000662667E+02 -0.11867624902E+03  0.17247934781E+03  0.79252839801E+02 0.  0.
          5    1    3    3  501    0 -0.14162851177E+02 -0.67215741681E+02 -0.20922661503E+03  0.22026440638E+03  0.47000000000E+01 0. -1.
        -15    1    4    4    0    0  0.96340962222E+02 -0.49129694840E+02 -0.13922020311E+03  0.17629727905E+03  0.17770000000E+01 0.  1.
         16    1    4    4    0    0  0.57781413909E+01  0.23772957212E+02 -0.32706801940E+02  0.40844526018E+02  0.00000000000E+00 0. -1.
         -5    1    5    5    0  502 -0.16544424390E+01  0.48571816641E+02  0.32714989740E+02  0.58773455788E+02  0.47000000000E+01 0.  1.
         15    1    6    6    0    0 -0.93433741651E+01 -0.20777656083E+01 -0.69512805397E+02  0.70191193136E+02  0.17770000000E+01 0. -1.
        -16    1    6    6    0    0 -0.76958435832E+02  0.46078428276E+02 -0.49163443618E+02  0.10228815467E+03  0.00000000000E+00 0.  1.
<mgrwt>
<rscale>  2 0.21465767E+03</rscale>
<asrwt>0</asrwt>
<pdfrwt beam="1">  1       21 0.15503395E-01 0.21468237E+03</pdfrwt>
<pdfrwt beam="2">  1       21 0.87367223E-01 0.21468237E+03</pdfrwt>
<totfact> 0.41086064E+04</totfact>
</mgrwt>
</event>
<event>
12    2  0.4090627E-002  0.1962800E+03  0.7546771E-02  0.1152966E+00
         21   -1    0    0  501  502  0.00000000000E+00  0.00000000000E+00  0.12941373984E+03  0.12941373984E+03  0.00000000000E+00 0.  1.
         21   -1    0    0  502  503 -0.00000000000E+00 -0.00000000000E+00 -0.35647052919E+03  0.35647052919E+03  0.00000000000E+00 0. -1.
         -6    2    1    2    0  503  0.38683128743E+02  0.84459954399E+02 -0.21252752916E+03  0.28929878365E+03  0.17290450319E+03 0.  0.
        -24    2    3    3    0    0 -0.35582913320E+02  0.85859992001E+02 -0.73447882422E+02  0.13155645184E+03  0.57222606027E+02 0.  0.
          6    2    1    2  501    0 -0.38683128743E+02 -0.84459954399E+02 -0.14529260189E+02  0.19658548538E+03  0.17264091437E+03 0.  0.
         24    2    5    5    0    0 -0.89294652895E+02 -0.72494758340E+02  0.10781957122E+02  0.13855583765E+03  0.76501271400E+02 0.  0.
          5    1    5    5  501    0  0.50611524152E+02 -0.11965196059E+02 -0.25311217311E+02  0.58029647728E+02  0.47000000000E+01 0. -1.
        -15    1    6    6    0    0 -0.94360816375E+02 -0.44272409050E+02 -0.75571012860E+01  0.10451926798E+03  0.17770000000E+01 0.  1.
         16    1    6    6    0    0  0.50661634803E+01 -0.28222349290E+02  0.18339058408E+02  0.34036569673E+02  0.00000000000E+00 0. -1.
         -5    1    3    3    0  503  0.74266042063E+02 -0.14000376029E+01 -0.13907964674E+03  0.15774233182E+03  0.47000000000E+01 0.  1.
         15    1    4    4    0    0 -0.47477439781E+02  0.70597965376E+02 -0.73133115831E+02  0.11220423505E+03  0.17770000000E+01 0. -1.
        -16    1    4    4    0    0  0.11894526461E+02  0.15262026626E+02 -0.31476659032E+00  0.19352216784E+02  0.00000000000E+00 0.  1.
<mgrwt>
<rscale>  2 0.19622193E+03</rscale>
<asrwt>0</asrwt>
<pdfrwt beam="1">  1       21 0.19909806E-01 0.19627999E+03</pdfrwt>
<pdfrwt beam="2">  1       21 0.54841619E-01 0.19627999E+03</pdfrwt>
<totfact> 0.72939330E+04</totfact>
</mgrwt>
</event>
<event>
12    2  0.4090627E-002  0.1733153E+03  0.7546771E-02  0.1176863E+00
         21   -1    0    0  503  502  0.00000000000E+00  0.00000000000E+00  0.38630283013E+03  0.38630283013E+03  0.00000000000E+00 0.  1.
         21   -1    0    0  501  503 -0.00000000000E+00 -0.00000000000E+00 -0.23625262353E+03  0.23625262353E+03  0.00000000000E+00 0.  1.
          6    2    1    2  501    0 -0.88254877302E+01  0.77418510450E+01 -0.18382667952E+03  0.24637469685E+03  0.16361667902E+03 0.  0.
         24    2    3    3    0    0  0.38148489134E+02 -0.31443500756E+02 -0.14479632841E+03  0.17365946732E+03  0.82143976677E+02 0.  0.
         -6    2    1    2    0  502  0.88254877302E+01 -0.77418510450E+01  0.33387688613E+03  0.37618075681E+03  0.17291720912E+03 0.  0.
        -24    2    5    5    0    0  0.24827391351E+02 -0.61762877209E+02  0.13988535068E+03  0.17411854358E+03  0.79487757055E+02 0.  0.
          5    1    3    3  501    0 -0.46973976864E+02  0.39185351801E+02 -0.39030351113E+02  0.72715229534E+02  0.47000000000E+01 0. -1.
        -15    1    4    4    0    0  0.46694048341E+02 -0.39558362997E+02 -0.52609523164E+02  0.80722474504E+02  0.17770000000E+01 0.  1.
         16    1    4    4    0    0 -0.85455592069E+01  0.81148622413E+01 -0.92186805247E+02  0.92936992813E+02  0.00000000000E+00 0. -1.
         -5    1    5    5    0  502 -0.16001903620E+02  0.54021026164E+02  0.19399153545E+03  0.20206221322E+03  0.47000000000E+01 0.  1.
         15    1    6    6    0    0  0.15962987218E+02 -0.42196533764E+02  0.15265387526E+02  0.47660824667E+02  0.17770000000E+01 0. -1.
        -16    1    6    6    0    0  0.88644041325E+01 -0.19566343445E+02  0.12461996316E+03  0.12645771892E+03  0.00000000000E+00 0.  1.
<mgrwt>
<rscale>  2 0.17094772E+03</rscale>
<asrwt>0</asrwt>
<pdfrwt beam="1">  1       21 0.59431205E-01 0.17331528E+03</pdfrwt>
<pdfrwt beam="2">  1       21 0.36346557E-01 0.17331528E+03</pdfrwt>
<totfact> 0.19535468E+04</totfact>
</mgrwt>
</event>
<event>
12    2  0.4090627E-002  0.1769469E+03  0.7546771E-02  0.1171363E+00
         21   -1    0    0  503  502  0.00000000000E+00  0.00000000000E+00  0.72910059855E+03  0.72910059855E+03  0.00000000000E+00 0. -1.
         21   -1    0    0  501  503 -0.00000000000E+00 -0.00000000000E+00 -0.10102980247E+03  0.10102980247E+03  0.00000000000E+00 0. -1.
          6    2    1    2  501    0 -0.19975066905E+02 -0.14870876048E+02 -0.13245931027E+01  0.17695181087E+03  0.17518573735E+03 0.  0.
         24    2    3    3    0    0  0.30404069502E+02  0.41480783143E+01  0.48845670966E+02  0.10320275388E+03  0.85576251620E+02 0.  0.
         -6    2    1    2    0  502  0.19975066905E+02  0.14870876048E+02  0.62939538918E+03  0.65317859014E+03  0.17286864506E+03 0.  0.
        -24    2    5    5    0    0  0.66267530103E+02 -0.12501947529E+02  0.52243593052E+03  0.53336757472E+03  0.83630042603E+02 0.  0.
          5    1    3    3  501    0 -0.50379136407E+02 -0.19018954362E+02 -0.50170264069E+02  0.73749056990E+02  0.47000000000E+01 0. -1.
        -15    1    4    4    0    0 -0.30102731652E+02 -0.10383279694E+01  0.16931036658E+02  0.34598703865E+02  0.17770000000E+01 0.  1.
         16    1    4    4    0    0  0.60506801154E+02  0.51864062837E+01  0.31914634308E+02  0.68604050019E+02  0.00000000000E+00 0. -1.
         -5    1    5    5    0  502 -0.46292463198E+02  0.27372823577E+02  0.10695945866E+03  0.11981101542E+03  0.47000000000E+01 0.  1.
         15    1    6    6    0    0 -0.16416042120E+02  0.12878957778E+02  0.10208840673E+03  0.10421398423E+03  0.17770000000E+01 0. -1.
        -16    1    6    6    0    0  0.82683572223E+02 -0.25380905307E+02  0.42034752379E+03  0.42915359049E+03  0.00000000000E+00 0.  1.
<mgrwt>
<rscale>  2 0.17637061E+03</rscale>
<asrwt>0</asrwt>
<pdfrwt beam="1">  1       21 0.11216932E+00 0.17694685E+03</pdfrwt>
<pdfrwt beam="2">  1       21 0.15543047E-01 0.17694685E+03</pdfrwt>
<totfact> 0.23123655E+04</totfact>
</mgrwt>
</event>
<event>
12    2  0.4090627E-002  0.2322851E+03  0.7546771E-02  0.1126098E+00
         21   -1    0    0  501  502  0.00000000000E+00  0.00000000000E+00  0.10534920752E+03  0.10534920752E+03  0.00000000000E+00 0. -1.
         21   -1    0    0  502  503 -0.00000000000E+00 -0.00000000000E+00 -0.58837780656E+03  0.58837780656E+03  0.00000000000E+00 0. -1.
         -6    2    1    2    0  503  0.11104426036E+03  0.10098492176E+03 -0.37399373147E+03  0.43712423972E+03  0.16934434621E+03 0.  0.
        -24    2    3    3    0    0 -0.68298125372E+01  0.57534579137E+02 -0.19140832216E+03  0.21544485180E+03  0.80140278520E+02 0.  0.
          6    2    1    2  501    0 -0.11104426036E+03 -0.10098492176E+03 -0.10903486757E+03  0.25660277435E+03  0.17727831022E+03 0.  0.
         24    2    5    5    0    0  0.20829503718E+01 -0.82096585514E+02 -0.72923703861E+02  0.13626723845E+03  0.80664153475E+02 0.  0.
          5    1    5    5  501    0 -0.11312721073E+03 -0.18888336242E+02 -0.36111163710E+02  0.12033553589E+03  0.47000000000E+01 0. -1.
        -15    1    6    6    0    0 -0.21555374270E+02 -0.76971322917E+02 -0.77838946952E+02  0.11158529519E+03  0.17770000000E+01 0.  1.
         16    1    6    6    0    0  0.23638324642E+02 -0.51252625964E+01  0.49152430908E+01  0.24681943262E+02  0.00000000000E+00 0. -1.
         -5    1    3    3    0  503  0.11787407290E+03  0.43450342619E+02 -0.18258540931E+03  0.22167938792E+03  0.47000000000E+01 0.  1.
         15    1    4    4    0    0  0.36206028476E+02  0.29622965070E+02 -0.77897132433E+02  0.90881887787E+02  0.17770000000E+01 0. -1.
        -16    1    4    4    0    0 -0.43035841013E+02  0.27911614066E+02 -0.11351118973E+03  0.12456296402E+03  0.00000000000E+00 0.  1.
<mgrwt>
<rscale>  2 0.23077113E+03</rscale>
<asrwt>0</asrwt>
<pdfrwt beam="1">  1       21 0.16207570E-01 0.23228513E+03</pdfrwt>
<pdfrwt beam="2">  1       21 0.90519662E-01 0.23228513E+03</pdfrwt>
<totfact> 0.34583013E+04</totfact>
</mgrwt>
</event>
<event>
12    2  0.4090627E-002  0.3991272E+03  0.7546771E-02  0.1044249E+00
         21   -1    0    0  503  502  0.00000000000E+00  0.00000000000E+00  0.46138022110E+03  0.46138022110E+03  0.00000000000E+00 0.  1.
         21   -1    0    0  501  503 -0.00000000000E+00 -0.00000000000E+00 -0.56403733267E+03  0.56403733267E+03  0.00000000000E+00 0. -1.
          6    2    1    2  501    0  0.24415758374E+03 -0.26119655656E+03 -0.37190900584E+03  0.54554456250E+03  0.17738656713E+03 0.  0.
         24    2    3    3    0    0  0.55706456441E+02 -0.61180160530E+02 -0.16748021574E+03  0.20300462866E+03  0.79467196119E+02 0.  0.
         -6    2    1    2    0  502 -0.24415758374E+03  0.26119655656E+03  0.26925189427E+03  0.47987299127E+03  0.17304605841E+03 0.  0.
        -24    2    5    5    0    0 -0.16794918946E+03  0.89694465587E+02  0.11211164979E+03  0.23505503237E+03  0.80186151089E+02 0.  0.
          5    1    3    3  501    0  0.18845112730E+03 -0.20001639603E+03 -0.20442879010E+03  0.34253993385E+03  0.47000000000E+01 0. -1.
        -15    1    4    4    0    0 -0.12975460323E+02 -0.29511792561E+02 -0.85861697367E+02  0.91731659064E+02  0.17770000000E+01 0.  1.
         16    1    4    4    0    0  0.68681916764E+02 -0.31668367969E+02 -0.81618518375E+02  0.11127296959E+03  0.00000000000E+00 0. -1.
         -5    1    5    5    0  502 -0.76208394277E+02  0.17150209097E+03  0.15714024448E+03  0.24481795890E+03  0.47000000000E+01 0.  1.
         15    1    6    6    0    0 -0.61915752218E+02  0.62198835500E+02  0.15791119277E+02  0.89189532386E+02  0.17770000000E+01 0. -1.
        -16    1    6    6    0    0 -0.10603343725E+03  0.27495630087E+02  0.96320530508E+02  0.14586549998E+03  0.00000000000E+00 0.  1.
<mgrwt>
<rscale>  2 0.39864888E+03</rscale>
<asrwt>0</asrwt>
<pdfrwt beam="1">  1       21 0.70981573E-01 0.39912725E+03</pdfrwt>
<pdfrwt beam="2">  1       21 0.86774974E-01 0.39912725E+03</pdfrwt>
<totfact> 0.18049532E+03</totfact>
</mgrwt>
</event>
<event>
12    2  0.4090627E-002  0.3346427E+03  0.7546771E-02  0.1069119E+00
         21   -1    0    0  503  502  0.00000000000E+00  0.00000000000E+00  0.17077564466E+03  0.17077564466E+03  0.00000000000E+00 0. -1.
         21   -1    0    0  501  503 -0.00000000000E+00 -0.00000000000E+00 -0.13677205868E+04  0.13677205868E+04  0.00000000000E+00 0. -1.
          6    2    1    2  501    0 -0.28353075925E+03 -0.40560755232E+02 -0.43408940100E+02  0.33744635706E+03  0.17306311423E+03 0.  0.
         24    2    3    3    0    0 -0.20029047010E+03 -0.87681629556E+02 -0.54238307841E+02  0.24106851863E+03  0.85836449498E+02 0.  0.
         -6    2    1    2    0  502  0.28353075925E+03  0.40560755232E+02 -0.11535360021E+04  0.12010498744E+04  0.17274439640E+03 0.  0.
        -24    2    5    5    0    0  0.16438689079E+03  0.78033359715E+02 -0.53418851962E+03  0.56921694438E+03  0.74419756663E+02 0.  0.
          5    1    3    3  501    0 -0.83240289152E+02  0.47120874324E+02  0.10829367741E+02  0.96377838431E+02  0.47000000000E+01 0. -1.
        -15    1    4    4    0    0 -0.71093593395E+02 -0.85345255353E+01 -0.53756986242E+02  0.89555058186E+02  0.17770000000E+01 0.  1.
         16    1    4    4    0    0 -0.12919687670E+03 -0.79147104021E+02 -0.48132159942E+00  0.15151346044E+03  0.00000000000E+00 0. -1.
         -5    1    5    5    0  502  0.11914386846E+03 -0.37472604482E+02 -0.61934748245E+03  0.63183293005E+03  0.47000000000E+01 0.  1.
         15    1    6    6    0    0  0.79910591344E+02  0.32159970803E+02 -0.36100034640E+03  0.37113929212E+03  0.17770000000E+01 0. -1.
        -16    1    6    6    0    0  0.84476299443E+02  0.45873388912E+02 -0.17318817322E+03  0.19807765225E+03  0.00000000000E+00 0.  1.
<mgrwt>
<rscale>  2 0.33460147E+03</rscale>
<asrwt>0</asrwt>
<pdfrwt beam="1">  1       21 0.26273177E-01 0.33464266E+03</pdfrwt>
<pdfrwt beam="2">  1       21 0.21041854E+00 0.33464266E+03</pdfrwt>
<totfact> 0.14124611E+03</totfact>
</mgrwt>
</event>
<event>
12    2  0.4090627E-002  0.2045566E+03  0.7546771E-02  0.1147676E+00
         21   -1    0    0  501  502  0.00000000000E+00  0.00000000000E+00  0.48665653297E+03  0.48665653297E+03  0.00000000000E+00 0. -1.
         21   -1    0    0  502  503 -0.00000000000E+00 -0.00000000000E+00 -0.12296944025E+03  0.12296944025E+03  0.00000000000E+00 0. -1.
         -6    2    1    2    0  503  0.36260156260E+02 -0.86796292730E+02  0.46071586853E+01  0.19636840383E+03  0.17231055901E+03 0.  0.
        -24    2    3    3    0    0  0.86952456059E+02 -0.48502187117E+02  0.23305170700E+02  0.12997673690E+03  0.80234838971E+02 0.  0.
          6    2    1    2  501    0 -0.36260156260E+02  0.86796292730E+02  0.35907993404E+03  0.41325756940E+03  0.18164532549E+03 0.  0.
         24    2    5    5    0    0  0.32995813004E+02  0.52026121837E+02  0.29722563832E+03  0.31399328598E+03  0.80332201134E+02 0.  0.
          5    1    5    5  501    0 -0.69255969264E+02  0.34770170893E+02  0.61854295716E+02  0.99264283411E+02  0.47000000000E+01 0. -1.
        -15    1    6    6    0    0  0.33220439611E+02 -0.39891366993E+01  0.47920269092E+02  0.58472392959E+02  0.17770000000E+01 0.  1.
         16    1    6    6    0    0 -0.22462660721E+00  0.56015258536E+02  0.24930536923E+03  0.25552089302E+03  0.00000000000E+00 0. -1.
         -5    1    3    3    0  503 -0.50692299799E+02 -0.38294105613E+02 -0.18698012015E+02  0.66391666924E+02  0.47000000000E+01 0.  1.
         15    1    4    4    0    0  0.23504703193E+02 -0.93251494051E+01 -0.29282311211E+02  0.38730362282E+02  0.17770000000E+01 0. -1.
        -16    1    4    4    0    0  0.63447752866E+02 -0.39177037712E+02  0.52587481912E+02  0.91246374621E+02  0.00000000000E+00 0.  1.
<mgrwt>
<rscale>  2 0.20246418E+03</rscale>
<asrwt>0</asrwt>
<pdfrwt beam="1">  1       21 0.74870235E-01 0.20455664E+03</pdfrwt>
<pdfrwt beam="2">  1       21 0.18918376E-01 0.20455664E+03</pdfrwt>
<totfact> 0.40610790E+04</totfact>
</mgrwt>
</event>
<event>
12    2  0.4090627E-002  0.1812411E+03  0.7546771E-02  0.1166648E+00
         21   -1    0    0  503  502  0.00000000000E+00  0.00000000000E+00  0.21231856536E+04  0.21231856536E+04  0.00000000000E+00 0.  1.
         21   -1    0    0  501  503 -0.00000000000E+00 -0.00000000000E+00 -0.20734780777E+02  0.20734780777E+02  0.00000000000E+00 0.  1.
          6    2    1    2  501    0 -0.29496526699E+02 -0.45232076027E+02  0.51076146363E+03  0.54196459348E+03  0.17300971669E+03 0.  0.
         24    2    3    3    0    0  0.15491147503E+02 -0.78309930753E+02  0.24299607723E+03  0.26839846353E+03  0.81352447839E+02 0.  0.
         -6    2    1    2    0  502  0.29496526699E+02  0.45232076027E+02  0.15916894091E+04  0.16019558409E+04  0.17283331583E+03 0.  0.
        -24    2    5    5    0    0 -0.18872785034E+02 -0.35993463140E+01  0.12834309357E+04  0.12860927779E+04  0.80439599583E+02 0.  0.
          5    1    3    3  501    0 -0.44987674202E+02  0.33077854726E+02  0.26776538640E+03  0.27356612995E+03  0.47000000000E+01 0. -1.
        -15    1    4    4    0    0 -0.62482695146E+01 -0.59255013919E+02  0.65501824256E+02  0.88565480049E+02  0.17770000000E+01 0.  1.
         16    1    4    4    0    0  0.21739417018E+02 -0.19054916834E+02  0.17749425298E+03  0.17983298348E+03  0.00000000000E+00 0. -1.
         -5    1    5    5    0  502  0.48369311732E+02  0.48831422341E+02  0.30825847340E+03  0.31586306297E+03  0.47000000000E+01 0.  1.
         15    1    6    6    0    0 -0.49860558727E+02  0.42620861956E+01  0.86012210130E+03  0.86157845120E+03  0.17770000000E+01 0. -1.
        -16    1    6    6    0    0  0.30987773694E+02 -0.78614325096E+01  0.42330883445E+03  0.42451432668E+03  0.00000000000E+00 0.  1.
<mgrwt>
<rscale>  2 0.18119902E+03</rscale>
<asrwt>0</asrwt>
<pdfrwt beam="1">  1       21 0.32664378E+00 0.18124113E+03</pdfrwt>
<pdfrwt beam="2">  1       21 0.31899679E-02 0.18124113E+03</pdfrwt>
<totfact> 0.13868354E+04</totfact>
</mgrwt>
</event>
<event>
12    2  0.4090627E-002  0.3530812E+03  0.7546771E-02  0.1061514E+00
         21   -1    0    0  503  502  0.00000000000E+00  0.00000000000E+00  0.18246433047E+03  0.18246433047E+03  0.00000000000E+00 0.  1.
         21   -1    0    0  501  503 -0.00000000000E+00 -0.00000000000E+00 -0.73227201612E+03  0.73227201612E+03  0.00000000000E+00 0.  1.
          6    2    1    2  501    0  0.25844933741E+03 -0.16316937282E+03 -0.39734701692E+03  0.53155527904E+03  0.17676554694E+03 0.  0.
         24    2    3    3    0    0  0.22403260067E+03 -0.16086572504E+03 -0.40434601613E+03  0.49604620201E+03  0.80608598274E+02 0.  0.
         -6    2    1    2    0  502 -0.25844933741E+03  0.16316937282E+03 -0.15246066873E+03  0.38318106755E+03  0.17367547549E+03 0.  0.
        -24    2    5    5    0    0 -0.11060258308E+03  0.15218372536E+02 -0.91680704874E+02  0.16531768087E+03  0.80374459348E+02 0.  0.
          5    1    3    3  501    0  0.34416736746E+02 -0.23036477737E+01  0.69989992110E+01  0.35509077027E+02  0.47000000000E+01 0. -1.
        -15    1    4    4    0    0  0.41148768898E+02 -0.21560158831E+02 -0.13027192447E+03  0.13831845020E+03  0.17770000000E+01 0.  1.
         16    1    4    4    0    0  0.18288383177E+03 -0.13930556621E+03 -0.27407409166E+03  0.35772775181E+03  0.00000000000E+00 0. -1.
         -5    1    5    5    0  502 -0.14784675433E+03  0.14795100028E+03 -0.60779963856E+02  0.21786338668E+03  0.47000000000E+01 0.  1.
         15    1    6    6    0    0  0.27174690076E+01 -0.51698689121E+01 -0.37631036190E+02  0.38123021865E+02  0.17770000000E+01 0. -1.
        -16    1    6    6    0    0 -0.11332005209E+03  0.20388241448E+02 -0.54049668684E+02  0.12719465901E+03  0.00000000000E+00 0.  1.
<mgrwt>
<rscale>  2 0.35269641E+03</rscale>
<asrwt>0</asrwt>
<pdfrwt beam="1">  1       21 0.28071435E-01 0.35308124E+03</pdfrwt>
<pdfrwt beam="2">  1       21 0.11265723E+00 0.35308124E+03</pdfrwt>
<totfact> 0.68257442E+03</totfact>
</mgrwt>
</event>
<event>
12    2  0.4090627E-002  0.2009044E+03  0.7546771E-02  0.1151683E+00
         21   -1    0    0  501  502  0.00000000000E+00  0.00000000000E+00  0.42225688335E+02  0.42225688335E+02  0.00000000000E+00 0. -1.
         21   -1    0    0  502  503 -0.00000000000E+00 -0.00000000000E+00 -0.89810772032E+03  0.89810772032E+03  0.00000000000E+00 0. -1.
         -6    2    1    2    0  503  0.71007270196E+02  0.21916841042E+02 -0.45384222193E+03  0.49632179387E+03  0.18665524456E+03 0.  0.
        -24    2    3    3    0    0  0.85204652351E+02 -0.23008039993E+02 -0.16576105582E+03  0.20437546513E+03  0.80643663324E+02 0.  0.
          6    2    1    2  501    0 -0.71007270196E+02 -0.21916841042E+02 -0.40203981005E+03  0.44401161478E+03  0.17317021930E+03 0.  0.
         24    2    5    5    0    0 -0.93238057227E+02  0.24067553915E+01 -0.16563319252E+03  0.20527321392E+03  0.77482966516E+02 0.  0.
          5    1    5    5  501    0  0.22230787030E+02 -0.24323596433E+02 -0.23640661753E+03  0.23873840087E+03  0.47000000000E+01 0. -1.
        -15    1    6    6    0    0 -0.45016359055E+02  0.23756671654E+01 -0.14667906428E+03  0.15346016422E+03  0.17770000000E+01 0.  1.
         16    1    6    6    0    0 -0.48221698171E+02  0.31088226106E-01 -0.18954128242E+02  0.51813049692E+02  0.00000000000E+00 0. -1.
         -5    1    3    3    0  503 -0.14197382155E+02  0.44924881035E+02 -0.28808116612E+03  0.29194632875E+03  0.47000000000E+01 0.  1.
         15    1    4    4    0    0  0.37656324691E+02 -0.19441511488E+02 -0.14723174965E+03  0.15321983224E+03  0.17770000000E+01 0. -1.
        -16    1    4    4    0    0  0.47548327660E+02 -0.35665285048E+01 -0.18529306164E+02  0.51155632884E+02  0.00000000000E+00 0.  1.
<mgrwt>
<rscale>  2 0.19771350E+03</rscale>
<asrwt>0</asrwt>
<pdfrwt beam="1">  1       21 0.64962599E-02 0.20090436E+03</pdfrwt>
<pdfrwt beam="2">  1       21 0.13817041E+00 0.20090436E+03</pdfrwt>
<totfact> 0.63412167E+04</totfact>
</mgrwt>
</event>
<event>
12    2  0.4090627E-002  0.2672891E+03  0.7546771E-02  0.1102870E+00
         21   -1    0    0  501  502  0.00000000000E+00  0.00000000000E+00  0.65862815780E+03  0.65862815780E+03  0.00000000000E+00 0.  1.
         21   -1    0    0  502  503 -0.00000000000E+00 -0.00000000000E+00 -0.45887123541E+03  0.45887123541E+03  0.00000000000E+00 0. -1.
         -6    2    1    2    0  503  0.63593214186E+02  0.19329233115E+03 -0.38843025953E+03  0.47150986083E+03  0.17331318521E+03 0.  0.
        -24    2    3    3    0    0  0.84965136822E+02  0.82351058299E+02 -0.15179457591E+03  0.20924422858E+03  0.82102269387E+02 0.  0.
          6    2    1    2  501    0 -0.63593214186E+02 -0.19329233115E+03  0.58818718192E+03  0.64598953237E+03  0.17300951648E+03 0.  0.
         24    2    5    5    0    0 -0.47612761697E+02 -0.14750354422E+03  0.56647469547E+03  0.59264621097E+03  0.79446083229E+02 0.  0.
          5    1    5    5  501    0 -0.15980452489E+02 -0.45788786931E+02  0.21712486452E+02  0.53343321403E+02  0.47000000000E+01 0. -1.
        -15    1    6    6    0    0 -0.96222754099E+01 -0.12045796716E+03  0.47285020876E+03  0.48805039462E+03  0.17770000000E+01 0.  1.
         16    1    6    6    0    0 -0.37990486287E+02 -0.27045577061E+02  0.93624486707E+02  0.10459581635E+03  0.00000000000E+00 0. -1.
         -5    1    3    3    0  503 -0.21371922637E+02  0.11094127285E+03 -0.23663568362E+03  0.26226563225E+03  0.47000000000E+01 0.  1.
         15    1    4    4    0    0  0.15851823340E+02  0.70771880933E+02 -0.62659752566E+02  0.95861054421E+02  0.17770000000E+01 0. -1.
        -16    1    4    4    0    0  0.69113313482E+02  0.11579177366E+02 -0.89134823344E+02  0.11338317416E+03  0.00000000000E+00 0.  1.
<mgrwt>
<rscale>  2 0.26723992E+03</rscale>
<asrwt>0</asrwt>
<pdfrwt beam="1">  1       21 0.10132741E+00 0.26728914E+03</pdfrwt>
<pdfrwt beam="2">  1       21 0.70595575E-01 0.26728914E+03</pdfrwt>
<totfact> 0.13599790E+03</totfact>
</mgrwt>
</event>
<event>
12    2  0.4090627E-002  0.2782181E+03  0.7546771E-02  0.1096804E+00
         21   -1    0    0  503  502  0.00000000000E+00  0.00000000000E+00  0.23989054676E+03  0.23989054676E+03  0.00000000000E+00 0.  1.
         21   -1    0    0  501  503 -0.00000000000E+00 -0.00000000000E+00 -0.50697580816E+03  0.50697580816E+03  0.00000000000E+00 0. -1.
          6    2    1    2  501    0 -0.37165448497E+02 -0.21412399290E+03 -0.35955982543E+03  0.45463017587E+03  0.17370945239E+03 0.  0.
         24    2    3    3    0    0 -0.51954089840E+02 -0.10665886062E+03 -0.29750333890E+03  0.32956796699E+03  0.77662527709E+02 0.  0.
         -6    2    1    2    0  502  0.37165448497E+02  0.21412399290E+03  0.92474564031E+02  0.29223617905E+03  0.17210486471E+03 0.  0.
        -24    2    5    5    0    0 -0.32400058327E+02  0.15021187250E+03  0.22321202505E+02  0.17447496724E+03  0.79560717021E+02 0.  0.
          5    1    3    3  501    0  0.14788641343E+02 -0.10746513228E+03 -0.62056486530E+02  0.12506220888E+03  0.47000000000E+01 0. -1.
        -15    1    4    4    0    0 -0.12710320944E+02  0.11482285944E+02 -0.32472643866E+02  0.36756298476E+02  0.17770000000E+01 0.  1.
         16    1    4    4    0    0 -0.39243768896E+02 -0.11814114656E+03 -0.26503069504E+03  0.29281166852E+03  0.00000000000E+00 0. -1.
         -5    1    5    5    0  502  0.69565506824E+02  0.63912120404E+02  0.70153361526E+02  0.11776121181E+03  0.47000000000E+01 0.  1.
         15    1    6    6    0    0 -0.46764269334E+02  0.84754793132E+02  0.40642289451E+02  0.10500107269E+03  0.17770000000E+01 0. -1.
        -16    1    6    6    0    0  0.14364211007E+02  0.65457079365E+02 -0.18321086946E+02  0.69473894548E+02  0.00000000000E+00 0.  1.
<mgrwt>
<rscale>  2 0.27796804E+03</rscale>
<asrwt>0</asrwt>
<pdfrwt beam="1">  1       21 0.36906238E-01 0.27821813E+03</pdfrwt>
<pdfrwt beam="2">  1       21 0.77996277E-01 0.27821813E+03</pdfrwt>
<totfact> 0.98011801E+03</totfact>
</mgrwt>
</event>
<event>
12    2  0.4090627E-002  0.2071684E+03  0.7546771E-02  0.1144294E+00
         21   -1    0    0  501  502  0.00000000000E+00  0.00000000000E+00  0.32066918014E+02  0.32066918014E+02  0.00000000000E+00 0.  1.
         21   -1    0    0  502  503 -0.00000000000E+00 -0.00000000000E+00 -0.13824578068E+04  0.13824578068E+04  0.00000000000E+00 0. -1.
         -6    2    1    2    0  503 -0.11367434471E+02 -0.11075610026E+03 -0.81752749079E+03  0.84280612422E+03  0.17197334829E+03 0.  0.
        -24    2    3    3    0    0 -0.36142568645E+01 -0.68962363110E+02 -0.77565076498E+03  0.78295148036E+03  0.81302158646E+02 0.  0.
          6    2    1    2  501    0  0.11367434471E+02  0.11075610026E+03 -0.53286339803E+03  0.57171860063E+03  0.17470725522E+03 0.  0.
         24    2    5    5    0    0 -0.49874671056E+00  0.14004397836E+03 -0.34109065428E+03  0.37730290860E+03  0.80013035050E+02 0.  0.
          5    1    5    5  501    0  0.11866181182E+02 -0.29287878099E+02 -0.19177274375E+03  0.19441569203E+03  0.47000000000E+01 0. -1.
        -15    1    6    6    0    0 -0.10765820223E+02  0.93554755608E+02 -0.12777440042E+03  0.15873830765E+03  0.17770000000E+01 0.  1.
         16    1    6    6    0    0  0.10267073512E+02  0.46489222749E+02 -0.21331625385E+03  0.21856460095E+03  0.00000000000E+00 0. -1.
         -5    1    3    3    0  503 -0.77531776066E+01 -0.41793737148E+02 -0.41876725802E+02  0.59854643861E+02  0.47000000000E+01 0.  1.
         15    1    4    4    0    0  0.23038010359E+02 -0.72851574147E+02 -0.64789503401E+03  0.65238733480E+03  0.17770000000E+01 0. -1.
        -16    1    4    4    0    0 -0.26652267224E+02  0.38892110365E+01 -0.12775573097E+03  0.13056414556E+03  0.00000000000E+00 0.  1.
<mgrwt>
<rscale>  2 0.20659095E+03</rscale>
<asrwt>0</asrwt>
<pdfrwt beam="1">  1       21 0.49333705E-02 0.20716843E+03</pdfrwt>
<pdfrwt beam="2">  1       21 0.21268588E+00 0.20716843E+03</pdfrwt>
<totfact> 0.30397154E+04</totfact>
</mgrwt>
</event>
<event>
12    2  0.4090627E-002  0.2098977E+03  0.7546771E-02  0.1142065E+00
         21   -1    0    0  503  502  0.00000000000E+00  0.00000000000E+00  0.31747222389E+03  0.31747222389E+03  0.00000000000E+00 0. -1.
         21   -1    0    0  501  503 -0.00000000000E+00 -0.00000000000E+00 -0.15075592221E+03  0.15075592221E+03  0.00000000000E+00 0.  1.
          6    2    1    2  501    0  0.87245931537E+02  0.80694821544E+02  0.15268388549E+03  0.25786194981E+03  0.17046087374E+03 0.  0.
         24    2    3    3    0    0  0.12315195066E+03  0.51752948282E+02  0.97883916794E+02  0.18608451041E+03  0.84861140925E+02 0.  0.
         -6    2    1    2    0  502 -0.87245931537E+02 -0.80694821544E+02  0.14032416193E+02  0.21036619629E+03  0.17301306611E+03 0.  0.
        -24    2    5    5    0    0 -0.53639381991E+02 -0.97202999515E+02  0.59233973774E+02  0.15148333868E+03  0.84338199138E+02 0.  0.
          5    1    3    3  501    0 -0.35906019128E+02  0.28941873261E+02  0.54799968699E+02  0.71777439401E+02  0.47000000000E+01 0. -1.
        -15    1    4    4    0    0  0.27573671339E+02 -0.12627734648E+02 -0.59613156922E+01  0.30959038215E+02  0.17770000000E+01 0.  1.
         16    1    4    4    0    0  0.95578279326E+02  0.64380682930E+02  0.10384523249E+03  0.15512547219E+03  0.00000000000E+00 0. -1.
         -5    1    5    5    0  502 -0.33606549546E+02  0.16508177971E+02 -0.45201557581E+02  0.58882857608E+02  0.47000000000E+01 0.  1.
         15    1    6    6    0    0  0.21808065221E+02 -0.23264399386E+02  0.37358732187E+01  0.32154913547E+02  0.17770000000E+01 0. -1.
        -16    1    6    6    0    0 -0.75447447212E+02 -0.73938600128E+02  0.55498100555E+02  0.11932842513E+03  0.00000000000E+00 0.  1.
<mgrwt>
<rscale>  2 0.20937101E+03</rscale>
<asrwt>0</asrwt>
<pdfrwt beam="1">  1       21 0.48841881E-01 0.20989766E+03</pdfrwt>
<pdfrwt beam="2">  1       21 0.23193219E-01 0.20989766E+03</pdfrwt>
<totfact> 0.69359396E+04</totfact>
</mgrwt>
</event>
<event>
12    2  0.4090627E-002  0.2134176E+03  0.7546771E-02  0.1139682E+00
         21   -1    0    0  503  502  0.00000000000E+00  0.00000000000E+00  0.26373436689E+03  0.26373436689E+03  0.00000000000E+00 0. -1.
         21   -1    0    0  501  503 -0.00000000000E+00 -0.00000000000E+00 -0.17072105718E+03  0.17072105718E+03  0.00000000000E+00 0. -1.
          6    2    1    2  501    0  0.98980039604E+02 -0.78364575306E+02  0.65812896740E+02  0.22333479142E+03  0.17207276594E+03 0.  0.
         24    2    3    3    0    0  0.17697671214E+02 -0.42635397733E+02  0.92211135079E+02  0.13058591256E+03  0.80117428950E+02 0.  0.
         -6    2    1    2    0  502 -0.98980039604E+02  0.78364575306E+02  0.27200412975E+02  0.21112063265E+03  0.16701498185E+03 0.  0.
        -24    2    5    5    0    0 -0.44073620131E+01  0.27313320342E+01  0.49593403984E+02  0.87881373967E+02  0.72365358819E+02 0.  0.
          5    1    3    3  501    0  0.81282368390E+02 -0.35729177572E+02 -0.26398238339E+02  0.92748878853E+02  0.47000000000E+01 0. -1.
        -15    1    4    4    0    0 -0.21489016520E+02  0.99620368651E+01  0.10945047696E+02  0.26152854674E+02  0.17770000000E+01 0.  1.
         16    1    4    4    0    0  0.39186687735E+02 -0.52597434598E+02  0.81266087383E+02  0.10443305789E+03  0.00000000000E+00 0. -1.
         -5    1    5    5    0  502 -0.94572677591E+02  0.75633243271E+02 -0.22392991009E+02  0.12323925868E+03  0.47000000000E+01 0.  1.
         15    1    6    6    0    0 -0.23952855291E+02  0.30268988850E+02  0.23725940259E+02  0.45343455236E+02  0.17770000000E+01 0. -1.
        -16    1    6    6    0    0  0.19545493278E+02 -0.27537656816E+02  0.25867463725E+02  0.42537918731E+02  0.00000000000E+00 0.  1.
<mgrwt>
<rscale>  2 0.21239619E+03</rscale>
<asrwt>0</asrwt>
<pdfrwt beam="1">  1       21 0.40574518E-01 0.21341765E+03</pdfrwt>
<pdfrwt beam="2">  1       21 0.26264778E-01 0.21341765E+03</pdfrwt>
<totfact> 0.79946100E+04</totfact>
</mgrwt>
</event>
<event>
12    2  0.4090627E-002  0.2248081E+03  0.7546771E-02  0.1130443E+00
         21   -1    0    0  503  502  0.00000000000E+00  0.00000000000E+00  0.17192517563E+04  0.17192517563E+04  0.00000000000E+00 0.  1.
         21   -1    0    0  501  503 -0.00000000000E+00 -0.00000000000E+00 -0.53751944315E+02  0.53751944315E+02  0.00000000000E+00 0.  1.
          6    2    1    2  501    0 -0.95515228143E+02 -0.10659021554E+03  0.23463972192E+03  0.32459102380E+03  0.17268150096E+03 0.  0.
         24    2    3    3    0    0 -0.58391604967E+02 -0.12291702916E+03  0.23598654203E+03  0.28374212951E+03  0.79383703936E+02 0.  0.
         -6    2    1    2    0  502  0.95515228143E+02  0.10659021554E+03  0.14308600900E+04  0.14484126768E+04  0.17336104566E+03 0.  0.
        -24    2    5    5    0    0  0.24473188257E+02  0.47064281337E+02  0.11139087144E+04  0.11181543343E+04  0.81624185973E+02 0.  0.
          5    1    3    3  501    0 -0.37123623176E+02  0.16326813615E+02 -0.13468201114E+01  0.40848894292E+02  0.47000000000E+01 0. -1.
        -15    1    4    4    0    0 -0.47794043671E+02 -0.78532961980E+02  0.82224870251E+02  0.12335227499E+03  0.17770000000E+01 0.  1.
         16    1    4    4    0    0 -0.10597561296E+02 -0.44384067178E+02  0.15376167178E+03  0.16038985452E+03  0.00000000000E+00 0. -1.
         -5    1    5    5    0  502  0.71042039886E+02  0.59525934207E+02  0.31695137563E+03  0.33025834250E+03  0.47000000000E+01 0.  1.
         15    1    6    6    0    0  0.43108365531E+02  0.48071157949E+02  0.10371503369E+04  0.10391598272E+04  0.17770000000E+01 0. -1.
        -16    1    6    6    0    0 -0.18635177275E+02 -0.10068766124E+01  0.76758377471E+02  0.78994507053E+02  0.00000000000E+00 0.  1.
<mgrwt>
<rscale>  2 0.22467709E+03</rscale>
<asrwt>0</asrwt>
<pdfrwt beam="1">  1       21 0.26450023E+00 0.22480811E+03</pdfrwt>
<pdfrwt beam="2">  1       21 0.82695312E-02 0.22480811E+03</pdfrwt>
<totfact> 0.60028790E+03</totfact>
</mgrwt>
</event>
<event>
12    2  0.4090627E-002  0.1897689E+03  0.7546771E-02  0.1158965E+00
         21   -1    0    0  501  502  0.00000000000E+00  0.00000000000E+00  0.31241298644E+03  0.31241298644E+03  0.00000000000E+00 0.  1.
         21   -1    0    0  502  503 -0.00000000000E+00 -0.00000000000E+00 -0.20552333286E+03  0.20552333286E+03  0.00000000000E+00 0.  1.
         -6    2    1    2    0  503  0.73555975076E+02 -0.11288341189E+02 -0.11881254383E+03  0.22389427084E+03  0.17456894290E+03 0.  0.
        -24    2    3    3    0    0  0.86512276342E+02 -0.15832291799E+02 -0.14724507063E+02  0.11879944400E+03  0.78494976690E+02 0.  0.
          6    2    1    2  501    0 -0.73555975076E+02  0.11288341189E+02  0.22570219741E+03  0.29404204846E+03  0.17315119471E+03 0.  0.
         24    2    5    5    0    0 -0.55598938694E+02 -0.22571790000E+02  0.23308308100E+03  0.25472880537E+03  0.83416508874E+02 0.  0.
          5    1    5    5  501    0 -0.17957036382E+02  0.33860131189E+02 -0.73808835809E+01  0.39313243089E+02  0.47000000000E+01 0. -1.
        -15    1    6    6    0    0 -0.72914923139E+02 -0.11395621803E+02  0.12903697274E+03  0.14866117273E+03  0.17770000000E+01 0.  1.
         16    1    6    6    0    0  0.17315984445E+02 -0.11176168197E+02  0.10404610825E+03  0.10606763265E+03  0.00000000000E+00 0. -1.
         -5    1    3    3    0  503 -0.12956301266E+02  0.45439506097E+01 -0.10408803677E+03  0.10509482684E+03  0.47000000000E+01 0.  1.
         15    1    4    4    0    0  0.11659942236E+02 -0.36149725334E+02 -0.15935362986E+02  0.41229242258E+02  0.17770000000E+01 0. -1.
        -16    1    4    4    0    0  0.74852334106E+02  0.20317433535E+02  0.12108559230E+01  0.77570201744E+02  0.00000000000E+00 0.  1.
<mgrwt>
<rscale>  2 0.18944218E+03</rscale>
<asrwt>0</asrwt>
<pdfrwt beam="1">  1       21 0.48063536E-01 0.18976887E+03</pdfrwt>
<pdfrwt beam="2">  1       21 0.31618974E-01 0.18976887E+03</pdfrwt>
<totfact> 0.39833759E+04</totfact>
</mgrwt>
</event>
<event>
12    2  0.4090627E-002  0.1743238E+03  0.7546771E-02  0.1173759E+00
         21   -1    0    0  503  502  0.00000000000E+00  0.00000000000E+00  0.25763300284E+03  0.25763300284E+03  0.00000000000E+00 0. -1.
         21   -1    0    0  501  503 -0.00000000000E+00 -0.00000000000E+00 -0.15131361484E+03  0.15131361484E+03  0.00000000000E+00 0. -1.
          6    2    1    2  501    0  0.11761319912E+02 -0.75835769473E+01 -0.44005704425E+02  0.17979238910E+03  0.17376122084E+03 0.  0.
         24    2    3    3    0    0  0.43787525359E+02 -0.59267933769E+02 -0.20702087177E+01  0.10578140089E+03  0.75864244934E+02 0.  0.
         -6    2    1    2    0  502 -0.11761319912E+02  0.75835769473E+01  0.15032509243E+03  0.22915422858E+03  0.17238963941E+03 0.  0.
        -24    2    5    5    0    0  0.59256916573E+02  0.43816347728E+01  0.10640808786E+03  0.14546052728E+03  0.79407197087E+02 0.  0.
          5    1    3    3  501    0 -0.32026205447E+02  0.51684356821E+02 -0.41935495707E+02  0.74010988208E+02  0.47000000000E+01 0. -1.
        -15    1    4    4    0    0  0.16043956577E+02 -0.60699659513E+02 -0.27083058490E+02  0.68399612526E+02  0.17770000000E+01 0.  1.
         16    1    4    4    0    0  0.27743568782E+02  0.14317257441E+01  0.25012849772E+02  0.37381788361E+02  0.00000000000E+00 0. -1.
         -5    1    5    5    0  502 -0.71018236485E+02  0.32019421745E+01  0.43917004570E+02  0.83693701302E+02  0.47000000000E+01 0.  1.
         15    1    6    6    0    0  0.49500163408E+02 -0.20778108708E+02  0.10558528346E+03  0.11846267678E+03  0.17770000000E+01 0. -1.
        -16    1    6    6    0    0  0.97567531645E+01  0.25159743481E+02  0.82280440406E+00  0.26997850497E+02  0.00000000000E+00 0.  1.
<mgrwt>
<rscale>  2 0.17398105E+03</rscale>
<asrwt>0</asrwt>
<pdfrwt beam="1">  1       21 0.39635846E-01 0.17432384E+03</pdfrwt>
<pdfrwt beam="2">  1       21 0.23279018E-01 0.17432384E+03</pdfrwt>
<totfact> 0.10716820E+05</totfact>
</mgrwt>
</event>
<event>
12    2  0.4090627E-002  0.1839518E+03  0.7546771E-02  0.1164317E+00
         21   -1    0    0  503  502  0.00000000000E+00  0.00000000000E+00  0.31645143921E+02  0.31645143921E+02  0.00000000000E+00 0.  1.
         21   -1    0    0  501  503 -0.00000000000E+00 -0.00000000000E+00 -0.12940193780E+04  0.12940193780E+04  0.00000000000E+00 0.  1.
          6    2    1    2  501    0  0.40254102169E+01 -0.61594072035E+02 -0.91336531879E+03  0.93170514541E+03  0.17328657989E+03 0.  0.
         24    2    3    3    0    0 -0.10419278803E+02 -0.41560067011E+02 -0.89755832643E+03  0.90200731037E+03  0.78552136090E+02 0.  0.
         -6    2    1    2    0  502 -0.40254102169E+01  0.61594072035E+02 -0.34900891533E+03  0.39395937656E+03  0.17200794679E+03 0.  0.
        -24    2    5    5    0    0 -0.63966091609E+02  0.17761502369E+02 -0.16791299858E+03  0.19817377823E+03  0.81675819208E+02 0.  0.
          5    1    3    3  501    0  0.14444689020E+02 -0.20034005024E+02 -0.15806992365E+02  0.29697835035E+02  0.47000000000E+01 0. -1.
        -15    1    4    4    0    0 -0.33481689761E+02 -0.53684380351E+02 -0.61337077315E+03  0.61662784508E+03  0.17770000000E+01 0.  1.
         16    1    4    4    0    0  0.23062410958E+02  0.12124313340E+02 -0.28418755328E+03  0.28537946530E+03  0.00000000000E+00 0. -1.
         -5    1    5    5    0  502  0.59940681392E+02  0.43832569666E+02 -0.18109591675E+03  0.19578559833E+03  0.47000000000E+01 0.  1.
         15    1    6    6    0    0 -0.64466006646E+02 -0.17757956912E+02 -0.13012150035E+03  0.14630780440E+03  0.17770000000E+01 0. -1.
        -16    1    6    6    0    0  0.49991503769E+00  0.35519459280E+02 -0.37791498235E+02  0.51865973831E+02  0.00000000000E+00 0.  1.
<mgrwt>
<rscale>  2 0.18365008E+03</rscale>
<asrwt>0</asrwt>
<pdfrwt beam="1">  1       21 0.48684827E-02 0.18395182E+03</pdfrwt>
<pdfrwt beam="2">  1       21 0.19907994E+00 0.18395182E+03</pdfrwt>
<totfact> 0.38532274E+04</totfact>
</mgrwt>
</event>
<event>
12    2  0.4090627E-002  0.2003408E+03  0.7546771E-02  0.1149507E+00
         21   -1    0    0  503  502  0.00000000000E+00  0.00000000000E+00  0.38573095444E+02  0.38573095444E+02  0.00000000000E+00 0. -1.
         21   -1    0    0  501  503 -0.00000000000E+00 -0.00000000000E+00 -0.11437246511E+04  0.11437246511E+04  0.00000000000E+00 0. -1.
          6    2    1    2  501    0  0.94185751275E+02  0.37093123815E+02 -0.73098157342E+03  0.75786918515E+03  0.17258269192E+03 0.  0.
         24    2    3    3    0    0  0.81719216075E+02 -0.38911800277E+02 -0.40289909152E+03  0.42083451643E+03  0.81128625048E+02 0.  0.
         -6    2    1    2    0  502 -0.94185751275E+02 -0.37093123815E+02 -0.37416998226E+03  0.42442856142E+03  0.17288601026E+03 0.  0.
        -24    2    5    5    0    0 -0.70310355982E+02 -0.58377310424E+02 -0.13331132510E+03  0.18140997400E+03  0.82378472528E+02 0.  0.
          5    1    3    3  501    0  0.12466535200E+02  0.76004924091E+02 -0.32808248190E+03  0.33703466872E+03  0.47000000000E+01 0. -1.
        -15    1    4    4    0    0  0.55503764438E+02 -0.33263526975E+02 -0.11727395653E+03  0.13395323326E+03  0.17770000000E+01 0.  1.
         16    1    4    4    0    0  0.26215451636E+02 -0.56482733014E+01 -0.28562513499E+03  0.28688128317E+03  0.00000000000E+00 0. -1.
         -5    1    5    5    0  502 -0.23875395293E+02  0.21284186610E+02 -0.24085865717E+03  0.24301858742E+03  0.47000000000E+01 0.  1.
         15    1    6    6    0    0 -0.87287819485E+02 -0.51076053386E+02 -0.12589880065E+03  0.16149796405E+03  0.17770000000E+01 0. -1.
        -16    1    6    6    0    0  0.16977463503E+02 -0.73012570386E+01 -0.74125244504E+01  0.19912009945E+02  0.00000000000E+00 0.  1.
<mgrwt>
<rscale>  2 0.20027532E+03</rscale>
<asrwt>0</asrwt>
<pdfrwt beam="1">  1       21 0.59343223E-02 0.20034078E+03</pdfrwt>
<pdfrwt beam="2">  1       21 0.17595764E+00 0.20034078E+03</pdfrwt>
<totfact> 0.38777594E+04</totfact>
</mgrwt>
</event>
<event>
12    2  0.4090627E-002  0.2517963E+03  0.7546771E-02  0.1112317E+00
         21   -1    0    0  503  502  0.00000000000E+00  0.00000000000E+00  0.76648586574E+02  0.76648586574E+02  0.00000000000E+00 0. -1.
         21   -1    0    0  501  503 -0.00000000000E+00 -0.00000000000E+00 -0.84793000392E+03  0.84793000392E+03  0.00000000000E+00 0.  1.
          6    2    1    2  501    0  0.59994564649E+02 -0.17180792173E+03 -0.30760527868E+03  0.39694522999E+03  0.17270552505E+03 0.  0.
         24    2    3    3    0    0  0.29510182586E+02 -0.12851280272E+03 -0.10095136424E+03  0.18356365807E+03  0.78217947327E+02 0.  0.
         -6    2    1    2    0  502 -0.59994564649E+02  0.17180792173E+03 -0.46367613866E+03  0.52763336050E+03  0.17402325074E+03 0.  0.
        -24    2    5    5    0    0 -0.19297760520E+02  0.13432866953E+03 -0.17228379759E+03  0.23099804459E+03  0.72538229049E+02 0.  0.
          5    1    3    3  501    0  0.30484382063E+02 -0.43295119006E+02 -0.20665391444E+03  0.21338157191E+03  0.47000000000E+01 0. -1.
        -15    1    4    4    0    0 -0.99012929436E+01 -0.30208771207E+02 -0.63840676157E+02  0.71339996643E+02  0.17770000000E+01 0.  1.
         16    1    4    4    0    0  0.39411475530E+02 -0.98304031512E+02 -0.37110688087E+02  0.11222366143E+03  0.00000000000E+00 0. -1.
         -5    1    5    5    0  502 -0.40696804129E+02  0.37479252195E+02 -0.29139234108E+03  0.29663531592E+03  0.47000000000E+01 0.  1.
         15    1    6    6    0    0 -0.35210205319E+02  0.13293881424E+03 -0.15894098776E+03  0.21018535204E+03  0.17770000000E+01 0. -1.
        -16    1    6    6    0    0  0.15912444799E+02  0.13898552861E+01 -0.13342809826E+02  0.20812692552E+02  0.00000000000E+00 0.  1.
<mgrwt>
<rscale>  2 0.25156881E+03</rscale>
<asrwt>0</asrwt>
<pdfrwt beam="1">  1       21 0.11792090E-01 0.25179635E+03</pdfrwt>
<pdfrwt beam="2">  1       21 0.13045078E+00 0.25179635E+03</pdfrwt>
<totfact> 0.25092818E+04</totfact>
</mgrwt>
</event>
<event>
12    2  0.4090627E-002  0.1892090E+03  0.7546771E-02  0.1159471E+00
         21   -1    0    0  503  502  0.00000000000E+00  0.00000000000E+00  0.16741467797E+03  0.16741467797E+03  0.00000000000E+00 0.  1.
         21   -1    0    0  501  503 -0.00000000000E+00 -0.00000000000E+00 -0.23400774738E+03  0.23400774738E+03  0.00000000000E+00 0.  1.
          6    2    1    2  501    0  0.77639066365E+02  0.11858087788E+02  0.27824092824E+02  0.18996405308E+03  0.17071532576E+03 0.  0.
         24    2    3    3    0    0  0.18517668203E+02 -0.49475865212E+02 -0.98631776613E+01  0.96692332458E+02  0.80382582743E+02 0.  0.
         -6    2    1    2    0  502 -0.77639066365E+02 -0.11858087788E+02 -0.94417162237E+02  0.21145837226E+03  0.17213832753E+03 0.  0.
        -24    2    5    5    0    0  0.42505456249E+01  0.20205127299E+02 -0.22908648866E+01  0.84009155016E+02  0.81400096789E+02 0.  0.
          5    1    3    3  501    0  0.59121398162E+02  0.61333953001E+02  0.37687270485E+02  0.93271720623E+02  0.47000000000E+01 0. -1.
        -15    1    4    4    0    0  0.39059805223E+02 -0.39830118022E+02 -0.32542379719E+02  0.64608597667E+02  0.17770000000E+01 0.  1.
         16    1    4    4    0    0 -0.20542137019E+02 -0.96457471903E+01  0.22679202058E+02  0.32083734791E+02  0.00000000000E+00 0. -1.
         -5    1    5    5    0  502 -0.81889611990E+02 -0.32063215087E+02 -0.92126297350E+02  0.12744921725E+03  0.47000000000E+01 0.  1.
         15    1    6    6    0    0 -0.18331973247E+02  0.27580936185E+02  0.29456188902E+02  0.44357570690E+02  0.17770000000E+01 0. -1.
        -16    1    6    6    0    0  0.22582518872E+02 -0.73758088854E+01 -0.31747053788E+02  0.39651584326E+02  0.00000000000E+00 0.  1.
<mgrwt>
<rscale>  2 0.18888474E+03</rscale>
<asrwt>0</asrwt>
<pdfrwt beam="1">  1       21 0.25756105E-01 0.18920899E+03</pdfrwt>
<pdfrwt beam="2">  1       21 0.36001192E-01 0.18920899E+03</pdfrwt>
<totfact> 0.10659066E+05</totfact>
</mgrwt>
</event>
<event>
12    2  0.4090627E-002  0.2016210E+03  0.7546771E-02  0.1152086E+00
         21   -1    0    0  501  502  0.00000000000E+00  0.00000000000E+00  0.12899751338E+03  0.12899751338E+03  0.00000000000E+00 0. -1.
         21   -1    0    0  502  503 -0.00000000000E+00 -0.00000000000E+00 -0.47000171116E+03  0.47000171116E+03  0.00000000000E+00 0. -1.
         -6    2    1    2    0  503 -0.61469182330E+02  0.20185409159E+02 -0.36075707135E+03  0.41327554281E+03  0.19095836886E+03 0.  0.
        -24    2    3    3    0    0 -0.11482125557E+03  0.11998848616E+02 -0.30234283029E+03  0.33360260480E+03  0.80942064500E+02 0.  0.
          6    2    1    2  501    0  0.61469182330E+02 -0.20185409159E+02  0.19752873576E+02  0.18572368173E+03  0.17296588918E+03 0.  0.
         24    2    5    5    0    0 -0.85106661881E+01  0.93426123001E+01  0.56274522348E+02  0.10131394249E+03  0.83294521027E+02 0.  0.
          5    1    5    5  501    0  0.69979848518E+02 -0.29528021459E+02 -0.36521648772E+02  0.84409739242E+02  0.47000000000E+01 0. -1.
        -15    1    6    6    0    0  0.96946370465E-02 -0.12845560862E+02 -0.18646907477E+02  0.22712846922E+02  0.17770000000E+01 0.  1.
         16    1    6    6    0    0 -0.85203608251E+01  0.22188173162E+02  0.74921429825E+02  0.78601095564E+02  0.00000000000E+00 0. -1.
         -5    1    3    3    0  503  0.53352073237E+02  0.81865605425E+01 -0.58414241064E+02  0.79672938011E+02  0.47000000000E+01 0.  1.
         15    1    4    4    0    0 -0.49148392802E+01  0.80407523818E+01 -0.12196550625E+03  0.12234194615E+03  0.17770000000E+01 0. -1.
        -16    1    4    4    0    0 -0.10990641629E+03  0.39580962342E+01 -0.18037732404E+03  0.21126065865E+03  0.00000000000E+00 0.  1.
<mgrwt>
<rscale>  2 0.19724273E+03</rscale>
<asrwt>0</asrwt>
<pdfrwt beam="1">  1       21 0.19845771E-01 0.20162096E+03</pdfrwt>
<pdfrwt beam="2">  1       21 0.72307956E-01 0.20162096E+03</pdfrwt>
<totfact> 0.40201068E+04</totfact>
</mgrwt>
</event>
<event>
12    2  0.4090627E-002  0.1762572E+03  0.7546771E-02  0.1172159E+00
         21   -1    0    0  501  502  0.00000000000E+00  0.00000000000E+00  0.19831736082E+03  0.19831736082E+03  0.00000000000E+00 0.  1.
         21   -1    0    0  502  503 -0.00000000000E+00 -0.00000000000E+00 -0.38464605651E+03  0.38464605651E+03  0.00000000000E+00 0.  1.
         -6    2    1    2    0  503 -0.22456661198E+02  0.27547127385E+02 -0.31846576978E+03  0.36267543400E+03  0.16985251851E+03 0.  0.
        -24    2    3    3    0    0  0.54521990749E+02  0.21354392002E+02 -0.15420736814E+03  0.18110733290E+03  0.74774969795E+02 0.  0.
          6    2    1    2  501    0  0.22456661198E+02 -0.27547127385E+02  0.13213707410E+03  0.22028798333E+03  0.17263673824E+03 0.  0.
         24    2    5    5    0    0  0.41515662554E+00 -0.53686503005E+02  0.17823025792E+02  0.10087740372E+03  0.83523513897E+02 0.  0.
          5    1    5    5  501    0  0.22041504572E+02  0.26139375620E+02  0.11431404831E+03  0.11941057961E+03  0.47000000000E+01 0. -1.
        -15    1    6    6    0    0 -0.18843832460E+02  0.16323268594E+02  0.12832327692E+02  0.28095648816E+02  0.17770000000E+01 0.  1.
         16    1    6    6    0    0  0.19258989086E+02 -0.70009771599E+02  0.49906980994E+01  0.72781754908E+02  0.00000000000E+00 0. -1.
         -5    1    3    3    0  503 -0.76978651947E+02  0.61927353830E+01 -0.16425840164E+03  0.18156810110E+03  0.47000000000E+01 0.  1.
         15    1    4    4    0    0  0.95759777968E+01  0.31326284621E+02 -0.11817647410E+03  0.12264531063E+03  0.17770000000E+01 0. -1.
        -16    1    4    4    0    0  0.44946012952E+02 -0.99718926194E+01 -0.36030894039E+02  0.58462022271E+02  0.00000000000E+00 0.  1.
<mgrwt>
<rscale>  2 0.17557165E+03</rscale>
<asrwt>0</asrwt>
<pdfrwt beam="1">  1       21 0.30510363E-01 0.17625717E+03</pdfrwt>
<pdfrwt beam="2">  1       21 0.59176316E-01 0.17625717E+03</pdfrwt>
<totfact> 0.27775153E+04</totfact>
</mgrwt>
</event>
<event>
12    2  0.4090627E-002  0.2194036E+03  0.7546771E-02  0.1134434E+00
         21   -1    0    0  501  502  0.00000000000E+00  0.00000000000E+00  0.10926184162E+03  0.10926184162E+03  0.00000000000E+00 0. -1.
         21   -1    0    0  502  503 -0.00000000000E+00 -0.00000000000E+00 -0.73448413095E+03  0.73448413095E+03  0.00000000000E+00 0.  1.
         -6    2    1    2    0  503  0.13077389486E+03 -0.36646373977E+02 -0.58023480452E+03  0.62033087043E+03  0.17231712662E+03 0.  0.
        -24    2    3    3    0    0  0.24864347164E+02  0.12801445452E+02 -0.36619294139E+03  0.37640889865E+03  0.82488034886E+02 0.  0.
          6    2    1    2  501    0 -0.13077389486E+03  0.36646373977E+02 -0.44987484805E+02  0.22341510213E+03  0.17159739441E+03 0.  0.
         24    2    5    5    0    0 -0.23708585622E+02  0.44781435194E+02 -0.63187425866E+02  0.11440827887E+03  0.80803029125E+02 0.  0.
          5    1    5    5  501    0 -0.10706530924E+03 -0.81350612173E+01  0.18199941061E+02  0.10900682326E+03  0.47000000000E+01 0. -1.
        -15    1    6    6    0    0 -0.15403346096E+02  0.56670018898E+02 -0.75302709416E+02  0.95511307641E+02  0.17770000000E+01 0.  1.
         16    1    6    6    0    0 -0.83052395266E+01 -0.11888583704E+02  0.12115283550E+02  0.18896971228E+02  0.00000000000E+00 0. -1.
         -5    1    3    3    0  503  0.10590954770E+03 -0.49447819429E+02 -0.21404186314E+03  0.24392197178E+03  0.47000000000E+01 0.  1.
         15    1    4    4    0    0  0.61777618107E+01  0.11200675337E+02 -0.37037677936E+01  0.13434861140E+02  0.17770000000E+01 0. -1.
        -16    1    4    4    0    0  0.18686585354E+02  0.16007701154E+01 -0.36248917359E+03  0.36297403751E+03  0.00000000000E+00 0.  1.
<mgrwt>
<rscale>  2 0.21926231E+03</rscale>
<asrwt>0</asrwt>
<pdfrwt beam="1">  1       21 0.16809515E-01 0.21940365E+03</pdfrwt>
<pdfrwt beam="2">  1       21 0.11299755E+00 0.21940365E+03</pdfrwt>
<totfact> 0.19168702E+04</totfact>
</mgrwt>
</event>
<event>
12    2  0.4090627E-002  0.2052370E+03  0.7546771E-02  0.1145774E+00
         21   -1    0    0  503  502  0.00000000000E+00  0.00000000000E+00  0.10823459800E+03  0.10823459800E+03  0.00000000000E+00 0.  1.
         21   -1    0    0  501  503 -0.00000000000E+00 -0.00000000000E+00 -0.64239480284E+03  0.64239480284E+03  0.00000000000E+00 0. -1.
          6    2    1    2  501    0  0.17200460947E+02 -0.10808146180E+03 -0.50507025828E+03  0.54517719898E+03  0.17362244742E+03 0.  0.
         24    2    3    3    0    0  0.39827699468E+02 -0.87086950792E+02 -0.18522353083E+03  0.22381014952E+03  0.81319395063E+02 0.  0.
         -6    2    1    2    0  502 -0.17200460947E+02  0.10808146180E+03 -0.29089946564E+02  0.20545220185E+03  0.17142614740E+03 0.  0.
        -24    2    5    5    0    0 -0.33085517369E+02  0.20501707908E+02  0.34367243612E+02  0.96038065223E+02  0.80791280789E+02 0.  0.
          5    1    3    3  501    0 -0.22627238520E+02 -0.20994511011E+02 -0.31984672745E+03  0.32136704946E+03  0.47000000000E+01 0. -1.
        -15    1    4    4    0    0 -0.65896993250E+01  0.12616256200E+02 -0.12400252008E+02  0.18960960855E+02  0.17770000000E+01 0.  1.
         16    1    4    4    0    0  0.46417398793E+02 -0.99703206992E+02 -0.17282327882E+03  0.20484918866E+03  0.00000000000E+00 0. -1.
         -5    1    5    5    0  502  0.15885056422E+02  0.87579753895E+02 -0.63457190176E+02  0.10941413663E+03  0.47000000000E+01 0.  1.
         15    1    6    6    0    0  0.54717395054E+01  0.89727859113E+01 -0.23354638653E+02  0.25671924272E+02  0.17770000000E+01 0. -1.
        -16    1    6    6    0    0 -0.38557256875E+02  0.11528921997E+02  0.57721882265E+02  0.70366140951E+02  0.00000000000E+00 0.  1.
<mgrwt>
<rscale>  2 0.20477173E+03</rscale>
<asrwt>0</asrwt>
<pdfrwt beam="1">  1       21 0.16651477E-01 0.20523697E+03</pdfrwt>
<pdfrwt beam="2">  1       21 0.98829969E-01 0.20523697E+03</pdfrwt>
<totfact> 0.27156886E+04</totfact>
</mgrwt>
</event>
<event>
12    2  0.4090627E-002  0.2225324E+03  0.7546771E-02  0.1132493E+00
         21   -1    0    0  503  502  0.00000000000E+00  0.00000000000E+00  0.29976689470E+03  0.29976689470E+03  0.00000000000E+00 0.  1.
         21   -1    0    0  501  503 -0.00000000000E+00 -0.00000000000E+00 -0.17404878972E+03  0.17404878972E+03  0.00000000000E+00 0. -1.
          6    2    1    2  501    0  0.13297975450E+03 -0.33531850109E+02  0.42241544827E+01  0.22257248831E+03  0.17525030383E+03 0.  0.
         24    2    3    3    0    0  0.10662262369E+03 -0.71025425130E+02  0.52605457853E+02  0.15576450205E+03  0.71289908157E+02 0.  0.
         -6    2    1    2    0  502 -0.13297975450E+03  0.33531850109E+02  0.12149395050E+03  0.25124319611E+03  0.17191382581E+03 0.  0.
        -24    2    5    5    0    0 -0.13244399445E+03  0.31829169596E+02  0.14494000133E+03  0.22726417488E+03  0.10994040885E+03 0.  0.
          5    1    3    3  501    0  0.26357130811E+02  0.37493575021E+02 -0.48381303370E+02  0.66807986261E+02  0.47000000000E+01 0. -1.
        -15    1    4    4    0    0 -0.87993743098E+01 -0.39799771924E+01 -0.42230757477E+01  0.10689307951E+02  0.17770000000E+01 0.  1.
         16    1    4    4    0    0  0.11542199800E+03 -0.67045447937E+02  0.56828533601E+02  0.14507519409E+03  0.00000000000E+00 0. -1.
         -5    1    5    5    0  502 -0.53576004939E+00  0.17026805135E+01 -0.23446050826E+02  0.23979021229E+02  0.47000000000E+01 0.  1.
         15    1    6    6    0    0 -0.10557703407E+02  0.78883433837E+01 -0.17998158329E+02  0.22378170051E+02  0.17770000000E+01 0. -1.
        -16    1    6    6    0    0 -0.12188629104E+03  0.23940826212E+02  0.16293815966E+03  0.20488600483E+03  0.00000000000E+00 0.  1.
<mgrwt>
<rscale>  2 0.22187500E+03</rscale>
<asrwt>0</asrwt>
<pdfrwt beam="1">  1       21 0.46117984E-01 0.22253240E+03</pdfrwt>
<pdfrwt beam="2">  1       21 0.26776737E-01 0.22253240E+03</pdfrwt>
<totfact> 0.59027315E+04</totfact>
</mgrwt>
</event>
<event>
12    2  0.4090627E-002  0.2137845E+03  0.7546771E-02  0.1138704E+00
         21   -1    0    0  501  502  0.00000000000E+00  0.00000000000E+00  0.57409849381E+02  0.57409849381E+02  0.00000000000E+00 0.  1.
         21   -1    0    0  502  503 -0.00000000000E+00 -0.00000000000E+00 -0.80306432543E+03  0.80306432543E+03  0.00000000000E+00 0.  1.
         -6    2    1    2    0  503 -0.84436038152E+02  0.92216233133E+02 -0.41767186984E+03  0.46896889714E+03  0.17276792942E+03 0.  0.
        -24    2    3    3    0    0 -0.35625973080E+02 -0.16208293163E+02 -0.22655310587E+03  0.24383166722E+03  0.81213628372E+02 0.  0.
          6    2    1    2  501    0  0.84436038152E+02 -0.92216233133E+02 -0.32798260621E+03  0.39150527767E+03  0.17340851847E+03 0.  0.
         24    2    5    5    0    0  0.10041936665E+03 -0.11150347640E+02 -0.17511267618E+03  0.21767072965E+03  0.80670426644E+02 0.  0.
          5    1    5    5  501    0 -0.15983328501E+02 -0.81065885493E+02 -0.15286993003E+03  0.17383454802E+03  0.47000000000E+01 0. -1.
        -15    1    6    6    0    0  0.81714092843E+01 -0.22014207401E+02 -0.53359857704E+01  0.24145967165E+02  0.17770000000E+01 0.  1.
         16    1    6    6    0    0  0.92247957369E+02  0.10863859760E+02 -0.16977669041E+03  0.19352476248E+03  0.00000000000E+00 0. -1.
         -5    1    3    3    0  503 -0.48810065072E+02  0.10842452630E+03 -0.19111876397E+03  0.22513722992E+03  0.47000000000E+01 0.  1.
         15    1    4    4    0    0 -0.17507458338E+02 -0.38883254378E+01 -0.22031465312E+03  0.22105052427E+03  0.17770000000E+01 0. -1.
        -16    1    4    4    0    0 -0.18118514741E+02 -0.12319967725E+02 -0.62384527493E+01  0.22781142945E+02  0.00000000000E+00 0.  1.
<mgrwt>
<rscale>  2 0.21365452E+03</rscale>
<asrwt>0</asrwt>
<pdfrwt beam="1">  1       21 0.88322852E-02 0.21378445E+03</pdfrwt>
<pdfrwt beam="2">  1       21 0.12354835E+00 0.21378445E+03</pdfrwt>
<totfact> 0.49035666E+04</totfact>
</mgrwt>
</event>
<event>
12    2  0.4090627E-002  0.3072294E+03  0.7546771E-02  0.1081901E+00
         21   -1    0    0  501  502  0.00000000000E+00  0.00000000000E+00  0.12286083810E+04  0.12286083810E+04  0.00000000000E+00 0.  1.
         21   -1    0    0  502  503 -0.00000000000E+00 -0.00000000000E+00 -0.88901045821E+02  0.88901045821E+02  0.00000000000E+00 0. -1.
         -6    2    1    2    0  503 -0.79036832400E+02 -0.24054944334E+03  0.32114166448E+03  0.44318703875E+03  0.17079791301E+03 0.  0.
        -24    2    3    3    0    0 -0.70315901722E+02 -0.18127946002E+03  0.31944726885E+03  0.38307093001E+03  0.83007295942E+02 0.  0.
          6    2    1    2  501    0  0.79036832400E+02  0.24054944334E+03  0.81856567067E+03  0.87432238804E+03  0.17400869363E+03 0.  0.
         24    2    5    5    0    0  0.51614776572E+02  0.59213811090E+02  0.42271400347E+03  0.43802522658E+03  0.83717440292E+02 0.  0.
          5    1    5    5  501    0  0.27422055828E+02  0.18133563225E+03  0.39585166720E+03  0.43629716145E+03  0.47000000000E+01 0. -1.
        -15    1    6    6    0    0  0.70028145986E+02  0.64760311270E+02  0.36029593650E+03  0.37271189776E+03  0.17770000000E+01 0.  1.
         16    1    6    6    0    0 -0.18413369413E+02 -0.55465001801E+01  0.62418066974E+02  0.65313328825E+02  0.00000000000E+00 0. -1.
         -5    1    3    3    0  503 -0.87209306775E+01 -0.59269983315E+02  0.16943956273E+01  0.60116108745E+02  0.47000000000E+01 0.  1.
         15    1    4    4    0    0 -0.36695635024E+02 -0.14076283540E+03  0.16539931188E+03  0.22027445507E+03  0.17770000000E+01 0. -1.
        -16    1    4    4    0    0 -0.33620266698E+02 -0.40516624626E+02  0.15404795697E+03  0.16279647493E+03  0.00000000000E+00 0.  1.
<mgrwt>
<rscale>  2 0.30677660E+03</rscale>
<asrwt>0</asrwt>
<pdfrwt beam="1">  1       21 0.18901666E+00 0.30722936E+03</pdfrwt>
<pdfrwt beam="2">  1       21 0.13677085E-01 0.30722936E+03</pdfrwt>
<totfact> 0.67826776E+03</totfact>
</mgrwt>
</event>
<event>
12    2  0.4090627E-002  0.2246691E+03  0.7546771E-02  0.1130523E+00
         21   -1    0    0  503  502  0.00000000000E+00  0.00000000000E+00  0.22426207309E+03  0.22426207309E+03  0.00000000000E+00 0. -1.
         21   -1    0    0  501  503 -0.00000000000E+00 -0.00000000000E+00 -0.34422868694E+03  0.34422868694E+03  0.00000000000E+00 0.  1.
          6    2    1    2  501    0 -0.12679707961E+03 -0.66306375223E+02 -0.22746592422E+03  0.31942790223E+03  0.17268295587E+03 0.  0.
         24    2    3    3    0    0 -0.63252402200E+02 -0.85360966463E+02 -0.73826001736E+02  0.15201129835E+03  0.79810997450E+02 0.  0.
         -6    2    1    2    0  502  0.12679707961E+03  0.66306375223E+02  0.10749931036E+03  0.24906285780E+03  0.17321134667E+03 0.  0.
        -24    2    5    5    0    0  0.11310190486E+03 -0.59385755410E+01  0.10713345533E+03  0.17538033224E+03  0.80332908098E+02 0.  0.
          5    1    3    3  501    0 -0.63544677409E+02  0.19054591240E+02 -0.15363992248E+03  0.16741660388E+03  0.47000000000E+01 0. -1.
        -15    1    4    4    0    0 -0.34092491306E+02 -0.43219152827E+02 -0.83334471717E+02  0.99889864550E+02  0.17770000000E+01 0.  1.
         16    1    4    4    0    0 -0.29159910894E+02 -0.42141813636E+02  0.95084699809E+01  0.52121433799E+02  0.00000000000E+00 0. -1.
         -5    1    5    5    0  502  0.13695174745E+02  0.72244950764E+02  0.36585503137E+00  0.73682525554E+02  0.47000000000E+01 0.  1.
         15    1    6    6    0    0  0.23891830408E+02 -0.32500220074E+02  0.56426349057E+02  0.69384252262E+02  0.17770000000E+01 0. -1.
        -16    1    6    6    0    0  0.89210074457E+02  0.26561644533E+02  0.50707106274E+02  0.10599607998E+03  0.00000000000E+00 0.  1.
<mgrwt>
<rscale>  2 0.22456725E+03</rscale>
<asrwt>0</asrwt>
<pdfrwt beam="1">  1       21 0.34501857E-01 0.22466910E+03</pdfrwt>
<pdfrwt beam="2">  1       21 0.52958260E-01 0.22466910E+03</pdfrwt>
<totfact> 0.26880838E+04</totfact>
</mgrwt>
</event>
<event>
12    2  0.4090627E-002  0.1813272E+03  0.7546771E-02  0.1166709E+00
         21   -1    0    0  501  502  0.00000000000E+00  0.00000000000E+00  0.17515919325E+04  0.17515919325E+04  0.00000000000E+00 0. -1.
         21   -1    0    0  502  503 -0.00000000000E+00 -0.00000000000E+00 -0.19245362124E+02  0.19245362124E+02  0.00000000000E+00 0. -1.
         -6    2    1    2    0  503  0.26695049481E+02  0.42771209552E+02  0.71421610763E+03  0.73668586530E+03  0.17337650852E+03 0.  0.
        -24    2    3    3    0    0  0.41977833325E+02 -0.32132813464E+02  0.26405318177E+03  0.28005370923E+03  0.76885246028E+02 0.  0.
          6    2    1    2  501    0 -0.26695049481E+02 -0.42771209552E+02  0.10181304627E+04  0.10341514293E+04  0.17417674230E+03 0.  0.
         24    2    5    5    0    0 -0.15661436195E+02  0.17422544437E+02  0.26202502862E+03  0.27555895233E+03  0.82017040570E+02 0.  0.
          5    1    5    5  501    0 -0.11033613286E+02 -0.60193753989E+02  0.75610543411E+03  0.75859247698E+03  0.47000000000E+01 0. -1.
        -15    1    6    6    0    0 -0.12911311184E+02 -0.76440112347E+01  0.31190969624E+01  0.15427876040E+02  0.17770000000E+01 0.  1.
         16    1    6    6    0    0 -0.27501250116E+01  0.25066555672E+02  0.25890593166E+03  0.26013107629E+03  0.00000000000E+00 0. -1.
         -5    1    3    3    0  503 -0.15282783844E+02  0.74904023015E+02  0.45016292585E+03  0.45663215607E+03  0.47000000000E+01 0.  1.
         15    1    4    4    0    0  0.32461420620E+02  0.19248319372E+02  0.75962799702E+02  0.84839532618E+02  0.17770000000E+01 0. -1.
        -16    1    4    4    0    0  0.95164127051E+01 -0.51381132835E+02  0.18809038207E+03  0.19521417661E+03  0.00000000000E+00 0.  1.
<mgrwt>
<rscale>  2 0.18113472E+03</rscale>
<asrwt>0</asrwt>
<pdfrwt beam="1">  1       21 0.26947556E+00 0.18132716E+03</pdfrwt>
<pdfrwt beam="2">  1       21 0.29608263E-02 0.18132716E+03</pdfrwt>
<totfact> 0.33435994E+04</totfact>
</mgrwt>
</event>
<event>
12    2  0.4090627E-002  0.2807902E+03  0.7546771E-02  0.1095833E+00
         21   -1    0    0  503  502  0.00000000000E+00  0.00000000000E+00  0.66395835223E+03  0.66395835223E+03  0.00000000000E+00 0.  1.
         21   -1    0    0  501  503 -0.00000000000E+00 -0.00000000000E+00 -0.15688323231E+03  0.15688323231E+03  0.00000000000E+00 0. -1.
          6    2    1    2  501    0  0.10656158758E+03  0.18755100352E+03  0.47976495359E+02  0.28485944843E+03  0.17975653085E+03 0.  0.
         24    2    3    3    0    0  0.71636364067E+01  0.15498264553E+03  0.17527256212E+02  0.17581864504E+03  0.80833490151E+02 0.  0.
         -6    2    1    2    0  502 -0.10656158758E+03 -0.18755100352E+03  0.45909862456E+03  0.53598213610E+03  0.17313160393E+03 0.  0.
        -24    2    5    5    0    0 -0.10563566091E+03 -0.12778856055E+03  0.20488985034E+03  0.27479906273E+03  0.77755160846E+02 0.  0.
          5    1    3    3  501    0  0.99397951178E+02  0.32568357991E+02  0.30449239147E+02  0.10904080340E+03  0.47000000000E+01 0. -1.
        -15    1    4    4    0    0  0.12258305345E+02  0.28950939586E+02 -0.27581422823E+02  0.41860668494E+02  0.17770000000E+01 0.  1.
         16    1    4    4    0    0 -0.50946689380E+01  0.12603170595E+03  0.45108679035E+02  0.13395797654E+03  0.00000000000E+00 0. -1.
         -5    1    5    5    0  502 -0.92592667742E+00 -0.59762442969E+02  0.25420877422E+03  0.26118307338E+03  0.47000000000E+01 0.  1.
         15    1    6    6    0    0 -0.69885833465E+01 -0.66704220587E+02  0.75911276471E+02  0.10131126771E+03  0.17770000000E+01 0. -1.
        -16    1    6    6    0    0 -0.98647077561E+02 -0.61084339968E+02  0.12897857387E+03  0.17348779501E+03  0.00000000000E+00 0.  1.
<mgrwt>
<rscale>  2 0.27973574E+03</rscale>
<asrwt>0</asrwt>
<pdfrwt beam="1">  1       21 0.10214744E+00 0.28079024E+03</pdfrwt>
<pdfrwt beam="2">  1       21 0.24135882E-01 0.28079024E+03</pdfrwt>
<totfact> 0.12008681E+04</totfact>
</mgrwt>
</event>
<event>
12    2  0.4090627E-002  0.1886149E+03  0.7546771E-02  0.1159743E+00
         21   -1    0    0  501  502  0.00000000000E+00  0.00000000000E+00  0.19644688385E+04  0.19644688385E+04  0.00000000000E+00 0. -1.
         21   -1    0    0  502  503 -0.00000000000E+00 -0.00000000000E+00 -0.20458547819E+02  0.20458547819E+02  0.00000000000E+00 0.  1.
         -6    2    1    2    0  503  0.50899968601E+02  0.53135936666E+02  0.63518506755E+03  0.66259766556E+03  0.17367026745E+03 0.  0.
        -24    2    3    3    0    0  0.46693995884E+02  0.99761891326E+02  0.40490840481E+03  0.42756341006E+03  0.82017614727E+02 0.  0.
          6    2    1    2  501    0 -0.50899968601E+02 -0.53135936666E+02  0.13088252231E+04  0.13223297208E+04  0.17354593378E+03 0.  0.
         24    2    5    5    0    0 -0.80244085150E+02 -0.69037268911E+02  0.70163004322E+03  0.71419979545E+03  0.81187268582E+02 0.  0.
          5    1    5    5  501    0  0.29344116549E+02  0.15901332245E+02  0.60719517992E+03  0.60812992532E+03  0.47000000000E+01 0. -1.
        -15    1    6    6    0    0 -0.82687376552E+02 -0.21483262342E+02  0.42576268386E+03  0.43425309843E+03  0.17770000000E+01 0.  1.
         16    1    6    6    0    0  0.24432914020E+01 -0.47554006570E+02  0.27586735936E+03  0.27994669702E+03  0.00000000000E+00 0. -1.
         -5    1    3    3    0  503  0.42059727172E+01 -0.46625954660E+02  0.23027666274E+03  0.23503425550E+03  0.47000000000E+01 0.  1.
         15    1    4    4    0    0 -0.12984198561E+02  0.70857330637E+00  0.11019334868E+03  0.11097217358E+03  0.17770000000E+01 0. -1.
        -16    1    4    4    0    0  0.59678194446E+02  0.99053318020E+02  0.29471505614E+03  0.31659123648E+03  0.00000000000E+00 0.  1.
<mgrwt>
<rscale>  2 0.18858632E+03</rscale>
<asrwt>0</asrwt>
<pdfrwt beam="1">  1       21 0.30222583E+00 0.18861494E+03</pdfrwt>
<pdfrwt beam="2">  1       21 0.31474704E-02 0.18861494E+03</pdfrwt>
<totfact> 0.19448310E+04</totfact>
</mgrwt>
</event>
<event>
12    2  0.4090627E-002  0.2016129E+03  0.7546771E-02  0.1149454E+00
         21   -1    0    0  503  502  0.00000000000E+00  0.00000000000E+00  0.32007550154E+03  0.32007550154E+03  0.00000000000E+00 0.  1.
         21   -1    0    0  501  503 -0.00000000000E+00 -0.00000000000E+00 -0.15368944884E+03  0.15368944884E+03  0.00000000000E+00 0.  1.
          6    2    1    2  501    0 -0.41398243659E+02  0.84433742115E+02 -0.22057554079E+02  0.19779618273E+03  0.17260916205E+03 0.  0.
         24    2    3    3    0    0 -0.24095283799E+02  0.37132535414E+02 -0.79753642265E+02  0.12106466921E+03  0.79602781284E+02 0.  0.
         -6    2    1    2    0  502  0.41398243659E+02 -0.84433742115E+02  0.18844360678E+03  0.27596876765E+03  0.17833927328E+03 0.  0.
        -24    2    5    5    0    0  0.76169078735E+02 -0.70988686843E+02  0.19754216975E+03  0.23730800807E+03  0.80318488847E+02 0.  0.
          5    1    3    3  501    0 -0.17302959860E+02  0.47301206701E+02  0.57696088186E+02  0.76731513521E+02  0.47000000000E+01 0. -1.
        -15    1    4    4    0    0  0.52557412589E+01  0.53606883204E+02 -0.64665997080E+02  0.84179389701E+02  0.17770000000E+01 0.  1.
         16    1    4    4    0    0 -0.29351025058E+02 -0.16474347790E+02 -0.15087645185E+02  0.36885279507E+02  0.00000000000E+00 0. -1.
         -5    1    5    5    0  502 -0.34770835076E+02 -0.13445055272E+02 -0.90985629640E+01  0.38660759578E+02  0.47000000000E+01 0.  1.
         15    1    6    6    0    0  0.42373275940E+02  0.46519495197E+01  0.36260333679E+02  0.55992005463E+02  0.17770000000E+01 0. -1.
        -16    1    6    6    0    0  0.33795802795E+02 -0.75640636363E+02  0.16128183607E+03  0.18131600261E+03  0.00000000000E+00 0.  1.
<mgrwt>
<rscale>  2 0.20033826E+03</rscale>
<asrwt>0</asrwt>
<pdfrwt beam="1">  1       21 0.49242385E-01 0.20161292E+03</pdfrwt>
<pdfrwt beam="2">  1       21 0.23644531E-01 0.20161292E+03</pdfrwt>
<totfact> 0.65980897E+04</totfact>
</mgrwt>
</event>
<event>
12    2  0.4090627E-002  0.1745658E+03  0.7546771E-02  0.1173308E+00
         21   -1    0    0  503  502  0.00000000000E+00  0.00000000000E+00  0.10687611672E+03  0.10687611672E+03  0.00000000000E+00 0.  1.
         21   -1    0    0  501  503 -0.00000000000E+00 -0.00000000000E+00 -0.29192220596E+03  0.29192220596E+03  0.00000000000E+00 0.  1.
          6    2    1    2  501    0  0.74873946489E+01 -0.18657800540E+02 -0.12505231240E+03  0.21473544408E+03  0.17340431226E+03 0.  0.
         24    2    3    3    0    0 -0.21367017065E+02 -0.39931314515E+02 -0.58452808557E+01  0.90166002240E+02  0.77747548864E+02 0.  0.
         -6    2    1    2    0  502 -0.74873946489E+01  0.18657800540E+02 -0.59993776852E+02  0.18406287860E+03  0.17284592971E+03 0.  0.
        -24    2    5    5    0    0 -0.25387740261E+02 -0.36678392815E+02 -0.79734550220E+02  0.12246495005E+03  0.81548903345E+02 0.  0.
          5    1    3    3  501    0  0.28854411714E+02  0.21273513975E+02 -0.11920703154E+03  0.12456944184E+03  0.47000000000E+01 0. -1.
        -15    1    4    4    0    0  0.63808726795E+01  0.21052604941E+02 -0.70082999118E+01  0.23156029617E+02  0.17770000000E+01 0.  1.
         16    1    4    4    0    0 -0.27747889745E+02 -0.60983919457E+02  0.11630190560E+01  0.67009972623E+02  0.00000000000E+00 0. -1.
         -5    1    5    5    0  502  0.17900345613E+02  0.55336193355E+02  0.19740773368E+02  0.61597928547E+02  0.47000000000E+01 0.  1.
         15    1    6    6    0    0  0.12029754848E+02  0.10383749117E+02  0.65656161346E+01  0.17285898636E+02  0.17770000000E+01 0. -1.
        -16    1    6    6    0    0 -0.37417495110E+02 -0.47062141932E+02 -0.86300166354E+02  0.10517905141E+03  0.00000000000E+00 0.  1.
<mgrwt>
<rscale>  2 0.17442700E+03</rscale>
<asrwt>0</asrwt>
<pdfrwt beam="1">  1       21 0.16442480E-01 0.17456583E+03</pdfrwt>
<pdfrwt beam="2">  1       21 0.44911108E-01 0.17456583E+03</pdfrwt>
<totfact> 0.15872547E+05</totfact>
</mgrwt>
</event>
<event>
12    2  0.4090627E-002  0.2500522E+03  0.7546771E-02  0.1113468E+00
         21   -1    0    0  503  502  0.00000000000E+00  0.00000000000E+00  0.20743877820E+03  0.20743877820E+03  0.00000000000E+00 0.  1.
         21   -1    0    0  501  503 -0.00000000000E+00 -0.00000000000E+00 -0.32538600361E+03  0.32538600361E+03  0.00000000000E+00 0. -1.
          6    2    1    2  501    0  0.17757657669E+03 -0.23559243655E+02  0.15410545868E+02  0.25052664254E+03  0.17446385054E+03 0.  0.
         24    2    3    3    0    0  0.10049830786E+03 -0.65231199605E+02 -0.34244166347E+02  0.14970357035E+03  0.82966720816E+02 0.  0.
         -6    2    1    2    0  502 -0.17757657669E+03  0.23559243655E+02 -0.13335777127E+03  0.28229813927E+03  0.17268313677E+03 0.  0.
        -24    2    5    5    0    0 -0.74685954852E+02  0.49518497958E+02 -0.12127689857E+02  0.12111753998E+03  0.80574835638E+02 0.  0.
          5    1    3    3  501    0  0.77078268834E+02  0.41671955951E+02  0.49654712215E+02  0.10082307218E+03  0.47000000000E+01 0. -1.
        -15    1    4    4    0    0  0.10263354276E+03 -0.27951811247E+02 -0.14219679950E+02  0.10733268318E+03  0.17770000000E+01 0.  1.
         16    1    4    4    0    0 -0.21352349007E+01 -0.37279388358E+02 -0.20024486398E+02  0.42370887174E+02  0.00000000000E+00 0. -1.
         -5    1    5    5    0  502 -0.10289062184E+03 -0.25959254303E+02 -0.12123008142E+03  0.16118059929E+03  0.47000000000E+01 0.  1.
         15    1    6    6    0    0 -0.11028580670E+02  0.36275828401E+02 -0.35552134257E+02  0.52006512063E+02  0.17770000000E+01 0. -1.
        -16    1    6    6    0    0 -0.63657374182E+02  0.13242669557E+02  0.23424444400E+02  0.69111027920E+02  0.00000000000E+00 0.  1.
<mgrwt>
<rscale>  2 0.24974186E+03</rscale>
<asrwt>0</asrwt>
<pdfrwt beam="1">  1       21 0.31913658E-01 0.25005222E+03</pdfrwt>
<pdfrwt beam="2">  1       21 0.50059385E-01 0.25005222E+03</pdfrwt>
<totfact> 0.34906930E+04</totfact>
</mgrwt>
</event>
<event>
12    2  0.4090627E-002  0.2128409E+03  0.7546771E-02  0.1139644E+00
         21   -1    0    0  501  502  0.00000000000E+00  0.00000000000E+00  0.68320447796E+03  0.68320447796E+03  0.00000000000E+00 0.  1.
         21   -1    0    0  502  503 -0.00000000000E+00 -0.00000000000E+00 -0.65984572946E+02  0.65984572946E+02  0.00000000000E+00 0.  1.
         -6    2    1    2    0  503 -0.10393370468E+03  0.62850682467E+02  0.32870959354E+03  0.39160088167E+03  0.17478223703E+03 0.  0.
        -24    2    3    3    0    0 -0.15855218666E+02  0.31431998266E+02  0.26276518305E+03  0.27707704707E+03  0.80540611604E+02 0.  0.
          6    2    1    2  501    0  0.10393370468E+03 -0.62850682467E+02  0.28851031148E+03  0.35758816924E+03  0.17285449285E+03 0.  0.
         24    2    5    5    0    0  0.58685916804E+02 -0.10177895519E+03  0.14982472859E+03  0.20653005584E+03  0.80026383869E+02 0.  0.
          5    1    5    5  501    0  0.45247787878E+02  0.38928272726E+02  0.13868558288E+03  0.15105811340E+03  0.47000000000E+01 0. -1.
        -15    1    6    6    0    0  0.59025973294E+02 -0.51327675997E+02  0.13118258813E+03  0.15274365782E+03  0.17770000000E+01 0.  1.
         16    1    6    6    0    0 -0.34005648947E+00 -0.50451279196E+02  0.18642140466E+02  0.53786398021E+02  0.00000000000E+00 0. -1.
         -5    1    3    3    0  503 -0.88078486016E+02  0.31418684201E+02  0.65944410498E+02  0.11452383460E+03  0.47000000000E+01 0.  1.
         15    1    4    4    0    0 -0.35708270629E+02 -0.19835458889E+01  0.20052778330E+03  0.20369969231E+03  0.17770000000E+01 0. -1.
        -16    1    4    4    0    0  0.19853051963E+02  0.33415544155E+02  0.62237399748E+02  0.73377354755E+02  0.00000000000E+00 0.  1.
<mgrwt>
<rscale>  2 0.21244476E+03</rscale>
<asrwt>0</asrwt>
<pdfrwt beam="1">  1       21 0.10510838E+00 0.21284091E+03</pdfrwt>
<pdfrwt beam="2">  1       21 0.10151473E-01 0.21284091E+03</pdfrwt>
<totfact> 0.57015555E+04</totfact>
</mgrwt>
</event>
<event>
12    2  0.4090627E-002  0.3406285E+03  0.7546771E-02  0.1066570E+00
         21   -1    0    0  501  502  0.00000000000E+00  0.00000000000E+00  0.14646026251E+03  0.14646026251E+03  0.00000000000E+00 0.  1.
         21   -1    0    0  502  503 -0.00000000000E+00 -0.00000000000E+00 -0.98031294118E+03  0.98031294118E+03  0.00000000000E+00 0. -1.
         -6    2    1    2    0  503  0.93743126937E+01  0.29303435226E+03 -0.66411222669E+03  0.74619520872E+03  0.17264191419E+03 0.  0.
        -24    2    3    3    0    0 -0.11242007266E+02  0.60918747738E+02 -0.26840055098E+03  0.28694309190E+03  0.80374160462E+02 0.  0.
          6    2    1    2  501    0 -0.93743126937E+01 -0.29303435226E+03 -0.16974045198E+03  0.38057799496E+03  0.17340928427E+03 0.  0.
         24    2    5    5    0    0  0.36301271523E+02 -0.25437469248E+03 -0.17326791344E+03  0.32045012063E+03  0.81499960081E+02 0.  0.
          5    1    5    5  501    0 -0.45675584217E+02 -0.38659659774E+02  0.35274614615E+01  0.60127874333E+02  0.47000000000E+01 0. -1.
        -15    1    6    6    0    0  0.38497965792E+02 -0.55780869627E+02 -0.66483020549E+02  0.94956561315E+02  0.17770000000E+01 0.  1.
         16    1    6    6    0    0 -0.21966942690E+01 -0.19859382286E+03 -0.10678489290E+03  0.22549355932E+03  0.00000000000E+00 0. -1.
         -5    1    3    3    0  503  0.20616319960E+02  0.23211560452E+03 -0.39571167571E+03  0.45925211682E+03  0.47000000000E+01 0.  1.
         15    1    4    4    0    0  0.16693783032E+02  0.42725557124E+02 -0.58249227089E+02  0.74163911770E+02  0.17770000000E+01 0. -1.
        -16    1    4    4    0    0 -0.27935790298E+02  0.18193190614E+02 -0.21015132389E+03  0.21277918013E+03  0.00000000000E+00 0.  1.
<mgrwt>
<rscale>  2 0.34053097E+03</rscale>
<asrwt>0</asrwt>
<pdfrwt beam="1">  1       21 0.22532348E-01 0.34062852E+03</pdfrwt>
<pdfrwt beam="2">  1       21 0.15081738E+00 0.34062852E+03</pdfrwt>
<totfact> 0.49482877E+03</totfact>
</mgrwt>
</event>
<event>
12    2  0.4090627E-002  0.2363321E+03  0.7546771E-02  0.1122323E+00
         21   -1    0    0  501  502  0.00000000000E+00  0.00000000000E+00  0.74751302827E+03  0.74751302827E+03  0.00000000000E+00 0. -1.
         21   -1    0    0  502  503 -0.00000000000E+00 -0.00000000000E+00 -0.74644644619E+02  0.74644644619E+02  0.00000000000E+00 0. -1.
         -6    2    1    2    0  503 -0.12571868687E+03  0.99199025860E+02  0.32688479627E+03  0.40336897302E+03  0.17380225373E+03 0.  0.
        -24    2    3    3    0    0 -0.63527962275E+02 -0.10410727233E+02  0.20337561517E+03  0.22685100789E+03  0.77172234002E+02 0.  0.
          6    2    1    2  501    0  0.12571868687E+03 -0.99199025860E+02  0.34598358738E+03  0.41878869987E+03  0.17330232959E+03 0.  0.
         24    2    5    5    0    0  0.88232001152E+02 -0.89057040412E+02  0.35045553596E+03  0.37941612314E+03  0.73630627723E+02 0.  0.
          5    1    5    5  501    0  0.37486685715E+02 -0.10141985448E+02 -0.44719485728E+01  0.39372576736E+02  0.47000000000E+01 0. -1.
        -15    1    6    6    0    0  0.50362447375E+02 -0.52247380636E+02  0.10068918154E+03  0.12412749050E+03  0.17770000000E+01 0.  1.
         16    1    6    6    0    0  0.37869553777E+02 -0.36809659776E+02  0.24976635442E+03  0.25528863264E+03  0.00000000000E+00 0. -1.
         -5    1    3    3    0  503 -0.62190724593E+02  0.10960975309E+03  0.12350918110E+03  0.17651796513E+03  0.47000000000E+01 0.  1.
         15    1    4    4    0    0 -0.63574767388E+02 -0.13781014490E+02  0.78657490476E+02  0.10208734469E+03  0.17770000000E+01 0. -1.
        -16    1    4    4    0    0  0.46805113333E-01  0.33702872571E+01  0.12471812470E+03  0.12476366320E+03  0.00000000000E+00 0.  1.
<mgrwt>
<rscale>  2 0.23624019E+03</rscale>
<asrwt>0</asrwt>
<pdfrwt beam="1">  1       21 0.11500200E+00 0.23633209E+03</pdfrwt>
<pdfrwt beam="2">  1       21 0.11483792E-01 0.23633209E+03</pdfrwt>
<totfact> 0.36362922E+04</totfact>
</mgrwt>
</event>
<event>
12    2  0.4090627E-002  0.1961952E+03  0.7546771E-02  0.1153177E+00
         21   -1    0    0  501  502  0.00000000000E+00  0.00000000000E+00  0.37183249880E+03  0.37183249880E+03  0.00000000000E+00 0.  1.
         21   -1    0    0  502  503 -0.00000000000E+00 -0.00000000000E+00 -0.34375139293E+03  0.34375139293E+03  0.00000000000E+00 0. -1.
         -6    2    1    2    0  503 -0.90704557534E+02 -0.18343217564E+02 -0.28533775574E+03  0.34628048285E+03  0.17299927042E+03 0.  0.
        -24    2    3    3    0    0 -0.45290839190E+02  0.45880620071E+02 -0.89940972035E+02  0.13559327342E+03  0.78357296623E+02 0.  0.
          6    2    1    2  501    0  0.90704557534E+02  0.18343217564E+02  0.31341886161E+03  0.36930340887E+03  0.17201696021E+03 0.  0.
         24    2    5    5    0    0 -0.20035791740E+02  0.11088858668E+02  0.16304177677E+03  0.18235045135E+03  0.78387948036E+02 0.  0.
          5    1    5    5  501    0  0.11074034927E+03  0.72543588961E+01  0.15037708484E+03  0.18695295752E+03  0.47000000000E+01 0. -1.
        -15    1    6    6    0    0  0.29159672988E+01 -0.55701883596E+01  0.15164529890E+03  0.15178598180E+03  0.17770000000E+01 0.  1.
         16    1    6    6    0    0 -0.22951759039E+02  0.16659047028E+02  0.11396477869E+02  0.30564469547E+02  0.00000000000E+00 0. -1.
         -5    1    3    3    0  503 -0.45413718344E+02 -0.64223837635E+02 -0.19539678371E+03  0.21068720943E+03  0.47000000000E+01 0.  1.
         15    1    4    4    0    0 -0.29957226080E+02 -0.47777831186E+01 -0.74499403475E+02  0.80458569793E+02  0.17770000000E+01 0. -1.
        -16    1    4    4    0    0 -0.15333613109E+02  0.50658403189E+02 -0.15441568560E+02  0.55134703629E+02  0.00000000000E+00 0.  1.
<mgrwt>
<rscale>  2 0.19597839E+03</rscale>
<asrwt>0</asrwt>
<pdfrwt beam="1">  1       21 0.57205000E-01 0.19619515E+03</pdfrwt>
<pdfrwt beam="2">  1       21 0.52884830E-01 0.19619515E+03</pdfrwt>
<totfact> 0.96987629E+03</totfact>
</mgrwt>
</event>
<event>
12    2  0.4090627E-002  0.2032052E+03  0.7546771E-02  0.1148208E+00
         21   -1    0    0  503  502  0.00000000000E+00  0.00000000000E+00  0.50848005270E+02  0.50848005270E+02  0.00000000000E+00 0. -1.
         21   -1    0    0  501  503 -0.00000000000E+00 -0.00000000000E+00 -0.11056153733E+04  0.11056153733E+04  0.00000000000E+00 0. -1.
          6    2    1    2  501    0  0.96229455237E+02 -0.24862816909E+02 -0.83098056061E+03  0.85418387268E+03  0.17094773622E+03 0.  0.
         24    2    3    3    0    0  0.93848862952E+02 -0.34578998039E+02 -0.83318622865E+03  0.84291327524E+03  0.79373684437E+02 0.  0.
         -6    2    1    2    0  502 -0.96229455237E+02  0.24862816909E+02 -0.22378680738E+03  0.30227950584E+03  0.17724022336E+03 0.  0.
        -24    2    5    5    0    0 -0.35859150753E+02  0.73668868364E+02 -0.18158812449E+03  0.21379547814E+03  0.77596898499E+02 0.  0.
          5    1    3    3  501    0  0.23805922852E+01  0.97161811302E+01  0.22056680336E+01  0.11270597449E+02  0.47000000000E+01 0. -1.
        -15    1    4    4    0    0  0.13739372405E+02 -0.34863290766E+02 -0.13398968725E+03  0.13914242134E+03  0.17770000000E+01 0.  1.
         16    1    4    4    0    0  0.80109490547E+02  0.28429272689E+00 -0.69919654139E+03  0.70377085390E+03  0.00000000000E+00 0. -1.
         -5    1    5    5    0  502 -0.60370304484E+02 -0.48806051455E+02 -0.42198682886E+02  0.88484027708E+02  0.47000000000E+01 0.  1.
         15    1    6    6    0    0 -0.59595187170E+02  0.40606743582E+02 -0.11742885344E+03  0.13781577307E+03  0.17770000000E+01 0. -1.
        -16    1    6    6    0    0  0.23736036417E+02  0.33062124782E+02 -0.64159271052E+02  0.75979705065E+02  0.00000000000E+00 0.  1.
<mgrwt>
<rscale>  2 0.20182511E+03</rscale>
<asrwt>0</asrwt>
<pdfrwt beam="1">  1       21 0.78227702E-02 0.20320523E+03</pdfrwt>
<pdfrwt beam="2">  1       21 0.17009467E+00 0.20320523E+03</pdfrwt>
<totfact> 0.26395180E+04</totfact>
</mgrwt>
</event>
<event>
12    2  0.4090627E-002  0.2445308E+03  0.7546771E-02  0.1116847E+00
         21   -1    0    0  501  502  0.00000000000E+00  0.00000000000E+00  0.40353468208E+02  0.40353468208E+02  0.00000000000E+00 0. -1.
         21   -1    0    0  502  503 -0.00000000000E+00 -0.00000000000E+00 -0.15559665938E+04  0.15559665938E+04  0.00000000000E+00 0.  1.
         -6    2    1    2    0  503  0.16060992104E+03  0.61577853231E+02 -0.93331658432E+03  0.96476278698E+03  0.17349354403E+03 0.  0.
        -24    2    3    3    0    0  0.55331236332E+02 -0.30030274793E+02 -0.37602624816E+03  0.39024537266E+03  0.83260725793E+02 0.  0.
          6    2    1    2  501    0 -0.16060992104E+03 -0.61577853231E+02 -0.58229654130E+03  0.63155727506E+03  0.17380434669E+03 0.  0.
         24    2    5    5    0    0 -0.17812475042E+03 -0.17838861524E+02 -0.48678129952E+03  0.52494995798E+03  0.81054136985E+02 0.  0.
          5    1    5    5  501    0  0.17514829385E+02 -0.43738991707E+02 -0.95515241777E+02  0.10660731708E+03  0.47000000000E+01 0. -1.
        -15    1    6    6    0    0 -0.35958200756E+02 -0.72645674600E+01 -0.21434414866E+03  0.21746801589E+03  0.17770000000E+01 0.  1.
         16    1    6    6    0    0 -0.14216654967E+03 -0.10574294064E+02 -0.27243715086E+03  0.30748194209E+03  0.00000000000E+00 0. -1.
         -5    1    3    3    0  503  0.10527868471E+03  0.91608128024E+02 -0.55729033616E+03  0.57451741432E+03  0.47000000000E+01 0.  1.
         15    1    4    4    0    0  0.62771400775E+02  0.69039204561E+01 -0.18358734933E+03  0.19415299492E+03  0.17770000000E+01 0. -1.
        -16    1    4    4    0    0 -0.74401644426E+01 -0.36934195249E+02 -0.19243889883E+03  0.19609237774E+03  0.00000000000E+00 0.  1.
<mgrwt>
<rscale>  2 0.24447561E+03</rscale>
<asrwt>0</asrwt>
<pdfrwt beam="1">  1       21 0.62082255E-02 0.24453084E+03</pdfrwt>
<pdfrwt beam="2">  1       21 0.23937949E+00 0.24453084E+03</pdfrwt>
<totfact> 0.13703601E+04</totfact>
</mgrwt>
</event>
<event>
12    2  0.4090627E-002  0.2137075E+03  0.7546771E-02  0.1139749E+00
         21   -1    0    0  503  502  0.00000000000E+00  0.00000000000E+00  0.36125659210E+03  0.36125659210E+03  0.00000000000E+00 0. -1.
         21   -1    0    0  501  503 -0.00000000000E+00 -0.00000000000E+00 -0.26175318937E+03  0.26175318937E+03  0.00000000000E+00 0. -1.
          6    2    1    2  501    0 -0.95193313308E+02  0.82374330515E+02 -0.17659128121E+03  0.27722799662E+03  0.17269506155E+03 0.  0.
         24    2    3    3    0    0 -0.31989941344E+02  0.98400842693E+02 -0.62674488209E+02  0.14588630085E+03  0.81539187589E+02 0.  0.
         -6    2    1    2    0  502  0.95193313308E+02 -0.82374330515E+02  0.27609468395E+03  0.34578178485E+03  0.16579949035E+03 0.  0.
        -24    2    5    5    0    0  0.94251450180E+02 -0.11550470335E+03  0.25577761411E+03  0.30662336255E+03  0.79818708456E+02 0.  0.
          5    1    3    3  501    0 -0.63203371964E+02 -0.16026512178E+02 -0.11391679301E+03  0.13134169577E+03  0.47000000000E+01 0. -1.
        -15    1    4    4    0    0  0.32187642685E+01  0.19883944127E+02  0.18634833563E+02  0.27498116816E+02  0.17770000000E+01 0. -1.
         16    1    4    4    0    0 -0.35208705613E+02  0.78516898566E+02 -0.81309321772E+02  0.11838818403E+03  0.00000000000E+00 0. -1.
         -5    1    5    5    0  502  0.94186312833E+00  0.33130372837E+02  0.20317069837E+02  0.39158422302E+02  0.47000000000E+01 0.  1.
         15    1    6    6    0    0  0.83393968225E+02 -0.12291315112E+03  0.25269688185E+03  0.29312295796E+03  0.17770000000E+01 0. -1.
        -16    1    6    6    0    0  0.10857481955E+02  0.74084477692E+01  0.30807322602E+01  0.13500404587E+02  0.00000000000E+00 0.  1.
<mgrwt>
<rscale>  2 0.21231068E+03</rscale>
<asrwt>0</asrwt>
<pdfrwt beam="1">  1       21 0.55577937E-01 0.21370747E+03</pdfrwt>
<pdfrwt beam="2">  1       21 0.40269722E-01 0.21370747E+03</pdfrwt>
<totfact> 0.17900157E+04</totfact>
</mgrwt>
</event>
<event>
12    2  0.4090627E-002  0.1828970E+03  0.7546771E-02  0.1169337E+00
         21   -1    0    0  501  502  0.00000000000E+00  0.00000000000E+00  0.21997191070E+03  0.21997191070E+03  0.00000000000E+00 0.  1.
         21   -1    0    0  502  503 -0.00000000000E+00 -0.00000000000E+00 -0.14752432548E+03  0.14752432548E+03  0.00000000000E+00 0.  1.
         -6    2    1    2    0  503 -0.59180212896E+02  0.25669129470E+01  0.84362897292E+02  0.20141603217E+03  0.17303881916E+03 0.  0.
        -24    2    3    3    0    0 -0.13584948700E+02  0.59424324175E+02  0.18267194581E+02  0.10291514260E+03  0.80882847653E+02 0.  0.
          6    2    1    2  501    0  0.59180212896E+02 -0.25669129470E+01 -0.11915312073E+02  0.16608020402E+03  0.15469897499E+03 0.  0.
         24    2    5    5    0    0 -0.13397407106E+02  0.66482682938E+01  0.16357932337E+02  0.87506055342E+02  0.84652452904E+02 0.  0.
          5    1    5    5  501    0  0.72577620002E+02 -0.92151812407E+01 -0.28273244411E+02  0.78574148675E+02  0.47000000000E+01 0. -1.
        -15    1    6    6    0    0  0.25967049986E+02  0.18408892738E+02  0.30437312972E+02  0.44076782627E+02  0.17770000000E+01 0.  1.
         16    1    6    6    0    0 -0.39364457092E+02 -0.11760624444E+02 -0.14079380635E+02  0.43429272715E+02  0.00000000000E+00 0. -1.
         -5    1    3    3    0  503 -0.45595264196E+02 -0.56857411228E+02  0.66095702711E+02  0.98500889567E+02  0.47000000000E+01 0.  1.
         15    1    4    4    0    0  0.24506104436E+02  0.10402360006E+02  0.29553685891E+02  0.39816282185E+02  0.17770000000E+01 0. -1.
        -16    1    4    4    0    0 -0.38091053136E+02  0.49021964169E+02 -0.11286491310E+02  0.63098860418E+02  0.00000000000E+00 0.  1.
<mgrwt>
<rscale>  2 0.17842442E+03</rscale>
<asrwt>0</asrwt>
<pdfrwt beam="1">  1       21 0.33841832E-01 0.18289702E+03</pdfrwt>
<pdfrwt beam="2">  1       21 0.22696050E-01 0.18289702E+03</pdfrwt>
<totfact> 0.15357557E+05</totfact>
</mgrwt>
</event>
<event>
12    2  0.4090627E-002  0.1771399E+03  0.7546771E-02  0.1171381E+00
         21   -1    0    0  501  502  0.00000000000E+00  0.00000000000E+00  0.66572459322E+03  0.66572459322E+03  0.00000000000E+00 0.  1.
         21   -1    0    0  502  503 -0.00000000000E+00 -0.00000000000E+00 -0.46305540343E+02  0.46305540343E+02  0.00000000000E+00 0.  1.
         -6    2    1    2    0  503  0.28442224300E+02 -0.15533576412E+02  0.31204822943E+03  0.35882118564E+03  0.17415020429E+03 0.  0.
        -24    2    3    3    0    0  0.12751295769E+02 -0.61765125035E+02  0.28697350247E+03  0.30373585857E+03  0.76968528945E+02 0.  0.
          6    2    1    2  501    0 -0.28442224300E+02  0.15533576412E+02  0.30737082344E+03  0.35320894792E+03  0.17096632904E+03 0.  0.
         24    2    5    5    0    0  0.28312742656E+02  0.14641683788E+02  0.94809636346E+02  0.13314925146E+03  0.87885526217E+02 0.  0.
          5    1    5    5  501    0 -0.56754966956E+02  0.89189262366E+00  0.21256118710E+03  0.22005969646E+03  0.47000000000E+01 0. -1.
        -15    1    6    6    0    0  0.30936854052E+02  0.47049153133E+02  0.78908209125E+02  0.96955530763E+02  0.17770000000E+01 0.  1.
         16    1    6    6    0    0 -0.26241113957E+01 -0.32407469345E+02  0.15901427221E+02  0.36193720693E+02  0.00000000000E+00 0. -1.
         -5    1    3    3    0  503  0.15690928531E+02  0.46231548624E+02  0.25074726961E+02  0.55085327070E+02  0.47000000000E+01 0.  1.
         15    1    4    4    0    0 -0.19697250119E+02  0.85354407325E+01  0.76393222378E+02  0.79372020039E+02  0.17770000000E+01 0. -1.
        -16    1    4    4    0    0  0.32448545889E+02 -0.70300565768E+02  0.21058028009E+03  0.22436383853E+03  0.00000000000E+00 0.  1.
<mgrwt>
<rscale>  2 0.17635238E+03</rscale>
<asrwt>0</asrwt>
<pdfrwt beam="1">  1       21 0.10241916E+00 0.17713990E+03</pdfrwt>
<pdfrwt beam="2">  1       21 0.71239298E-02 0.17713990E+03</pdfrwt>
<totfact> 0.11450791E+05</totfact>
</mgrwt>
</event>
<event>
12    2  0.4090627E-002  0.2170397E+03  0.7546771E-02  0.1136182E+00
         21   -1    0    0  501  502  0.00000000000E+00  0.00000000000E+00  0.56504266484E+03  0.56504266484E+03  0.00000000000E+00 0. -1.
         21   -1    0    0  502  503 -0.00000000000E+00 -0.00000000000E+00 -0.94083391717E+02  0.94083391717E+02  0.00000000000E+00 0.  1.
         -6    2    1    2    0  503  0.98504187027E+02  0.85118637587E+02  0.12331302647E+03  0.24929178852E+03  0.17318208915E+03 0.  0.
        -24    2    3    3    0    0  0.72970770461E+02 -0.18443584677E+02  0.57532451901E+02  0.12388738975E+03  0.79832344068E+02 0.  0.
          6    2    1    2  501    0 -0.98504187027E+02 -0.85118637587E+02  0.34764624666E+03  0.40983426804E+03  0.17366046504E+03 0.  0.
         24    2    5    5    0    0 -0.86007454063E+02 -0.46780310346E+02  0.34685592032E+03  0.36922995440E+03  0.80224997192E+02 0.  0.
          5    1    5    5  501    0 -0.12496732964E+02 -0.38338327241E+02  0.79032633938E+00  0.40604313640E+02  0.47000000000E+01 0. -1.
        -15    1    6    6    0    0 -0.14034300764E+02  0.21484951102E+02  0.98302906903E+02  0.10161291235E+03  0.17770000000E+01 0.  1.
         16    1    6    6    0    0 -0.71973153299E+02 -0.68265261448E+02  0.24855301341E+03  0.26761704205E+03  0.00000000000E+00 0. -1.
         -5    1    3    3    0  503  0.25533416566E+02  0.10356222226E+03  0.65780574568E+02  0.12540439878E+03  0.47000000000E+01 0.  1.
         15    1    4    4    0    0  0.31522186542E+02 -0.75082915911E+01  0.71730690612E+02  0.78730377820E+02  0.17770000000E+01 0. -1.
        -16    1    4    4    0    0  0.41448583919E+02 -0.10935293086E+02 -0.14198238711E+02  0.45157011928E+02  0.00000000000E+00 0.  1.
<mgrwt>
<rscale>  2 0.21694395E+03</rscale>
<asrwt>0</asrwt>
<pdfrwt beam="1">  1       21 0.86929638E-01 0.21703966E+03</pdfrwt>
<pdfrwt beam="2">  1       21 0.14474368E-01 0.21703966E+03</pdfrwt>
<totfact> 0.47062808E+04</totfact>
</mgrwt>
</event>
<event>
12    2  0.4090627E-002  0.2551451E+03  0.7546771E-02  0.1110593E+00
         21   -1    0    0  503  502  0.00000000000E+00  0.00000000000E+00  0.16269412847E+03  0.16269412847E+03  0.00000000000E+00 0. -1.
         21   -1    0    0  501  503 -0.00000000000E+00 -0.00000000000E+00 -0.42048749585E+03  0.42048749585E+03  0.00000000000E+00 0.  1.
          6    2    1    2  501    0  0.90885834364E+02 -0.16425340730E+03 -0.58040712230E+02  0.26166346065E+03  0.17279937982E+03 0.  0.
         24    2    3    3    0    0  0.97340705532E+02 -0.17758641556E+03 -0.82232831516E+02  0.23290962427E+03  0.80451889682E+02 0.  0.
         -6    2    1    2    0  502 -0.90885834364E+02  0.16425340730E+03 -0.19975265515E+03  0.32151816367E+03  0.16802794302E+03 0.  0.
        -24    2    5    5    0    0 -0.59052807398E+01  0.31428008224E+02 -0.10945122936E+03  0.13974710263E+03  0.80790401927E+02 0.  0.
          5    1    3    3  501    0 -0.64548711682E+01  0.13333008261E+02  0.24192119285E+02  0.28753836381E+02  0.47000000000E+01 0. -1.
        -15    1    4    4    0    0 -0.14066289412E+02 -0.25248688281E+02 -0.14594829419E+02  0.32427203587E+02  0.17770000000E+01 0.  1.
         16    1    4    4    0    0  0.11140699494E+03 -0.15233772728E+03 -0.67638002097E+02  0.20048242068E+03  0.00000000000E+00 0. -1.
         -5    1    5    5    0  502 -0.84980553624E+02  0.13282539908E+03 -0.90301425788E+02  0.18177106104E+03  0.47000000000E+01 0.  1.
         15    1    6    6    0    0 -0.21671982393E+02  0.83904474650E+01  0.33463685527E+01  0.23546344536E+02  0.17770000000E+01 0. -1.
        -16    1    6    6    0    0  0.15766701654E+02  0.23037560759E+02 -0.11279759791E+03  0.11620075809E+03  0.00000000000E+00 0.  1.
<mgrwt>
<rscale>  2 0.25433957E+03</rscale>
<asrwt>0</asrwt>
<pdfrwt beam="1">  1       21 0.25029866E-01 0.25514514E+03</pdfrwt>
<pdfrwt beam="2">  1       21 0.64690384E-01 0.25514514E+03</pdfrwt>
<totfact> 0.32276785E+04</totfact>
</mgrwt>
</event>
<event>
12    2  0.4090627E-002  0.2252924E+03  0.7546771E-02  0.1130013E+00
         21   -1    0    0  503  502  0.00000000000E+00  0.00000000000E+00  0.47366810987E+03  0.47366810987E+03  0.00000000000E+00 0.  1.
         21   -1    0    0  501  503 -0.00000000000E+00 -0.00000000000E+00 -0.16525377870E+03  0.16525377870E+03  0.00000000000E+00 0.  1.
          6    2    1    2  501    0 -0.13285488447E+03  0.56378129484E+02 -0.35291645126E+02  0.22795903708E+03  0.17288987407E+03 0.  0.
         24    2    3    3    0    0 -0.91459187152E+02  0.99396866287E+02  0.23768724410E+01  0.15721143861E+03  0.80406883818E+02 0.  0.
         -6    2    1    2    0  502  0.13285488447E+03 -0.56378129484E+02  0.34370597630E+03  0.41096285149E+03  0.17299639693E+03 0.  0.
        -24    2    5    5    0    0  0.55502059301E+02 -0.98044091610E+02  0.26157442801E+03  0.29060009485E+03  0.57741763508E+02 0.  0.
          5    1    3    3  501    0 -0.41395697321E+02 -0.43018736803E+02 -0.37668517567E+02  0.70747598465E+02  0.47000000000E+01 0. -1.
        -15    1    4    4    0    0 -0.87042743128E+02  0.71825867114E+02 -0.27655480380E+02  0.11620403453E+03  0.17770000000E+01 0.  1.
         16    1    4    4    0    0 -0.44164440244E+01  0.27570999173E+02  0.30032352821E+02  0.41007404077E+02  0.00000000000E+00 0. -1.
         -5    1    5    5    0  502  0.77352825172E+02  0.41665962126E+02  0.82131548289E+02  0.12036275664E+03  0.47000000000E+01 0.  1.
         15    1    6    6    0    0  0.58365412958E+02 -0.65684907553E+02  0.14474099304E+03  0.16933440674E+03  0.17770000000E+01 0. -1.
        -16    1    6    6    0    0 -0.28633536567E+01 -0.32359184057E+02  0.11683343497E+03  0.12126568811E+03  0.00000000000E+00 0.  1.
<mgrwt>
<rscale>  2 0.22527195E+03</rscale>
<asrwt>0</asrwt>
<pdfrwt beam="1">  1       21 0.72872016E-01 0.22529240E+03</pdfrwt>
<pdfrwt beam="2">  1       21 0.25423658E-01 0.22529240E+03</pdfrwt>
<totfact> 0.24416030E+04</totfact>
</mgrwt>
</event>
<event>
12    2  0.4090627E-002  0.2023175E+03  0.7546771E-02  0.1147799E+00
         21   -1    0    0  503  502  0.00000000000E+00  0.00000000000E+00  0.61111113942E+02  0.61111113942E+02  0.00000000000E+00 0. -1.
         21   -1    0    0  501  503 -0.00000000000E+00 -0.00000000000E+00 -0.95966972474E+03  0.95966972474E+03  0.00000000000E+00 0. -1.
          6    2    1    2  501    0 -0.10348989971E+03  0.15673116454E+02 -0.72979676997E+03  0.75732138862E+03  0.17313738555E+03 0.  0.
         24    2    3    3    0    0 -0.70010616706E+02  0.77160864521E+02 -0.46286316618E+03  0.48131913430E+03  0.81058700798E+02 0.  0.
         -6    2    1    2    0  502  0.10348989971E+03 -0.15673116454E+02 -0.16876184083E+03  0.26345945007E+03  0.17313150201E+03 0.  0.
        -24    2    5    5    0    0  0.13137959842E+03 -0.17266559740E+02 -0.17521637320E+03  0.23440561480E+03  0.81770910748E+02 0.  0.
          5    1    3    3  501    0 -0.33479283005E+02 -0.61487748067E+02 -0.26693360379E+03  0.27600225432E+03  0.47000000000E+01 0. -1.
        -15    1    4    4    0    0 -0.40697609745E+02  0.84760467072E+02 -0.40754979534E+03  0.41825904130E+03  0.17770000000E+01 0.  1.
         16    1    4    4    0    0 -0.29313006961E+02 -0.75996025513E+01 -0.55313370835E+02  0.63060093000E+02  0.00000000000E+00 0. -1.
         -5    1    5    5    0  502 -0.27889698712E+02  0.15934432858E+01  0.64545323713E+01  0.29053835270E+02  0.47000000000E+01 0.  1.
         15    1    6    6    0    0  0.17297577619E+02 -0.17354442247E+02 -0.86405364750E+02  0.89829993008E+02  0.17770000000E+01 0. -1.
        -16    1    6    6    0    0  0.11408202080E+03  0.87882507671E-01 -0.88811008447E+02  0.14457562179E+03  0.00000000000E+00 0.  1.
<mgrwt>
<rscale>  2 0.20231622E+03</rscale>
<asrwt>0</asrwt>
<pdfrwt beam="1">  1       21 0.94017102E-02 0.20231747E+03</pdfrwt>
<pdfrwt beam="2">  1       21 0.14764149E+00 0.20231747E+03</pdfrwt>
<totfact> 0.28018897E+04</totfact>
</mgrwt>
</event>
<event>
12    2  0.4090627E-002  0.1878175E+03  0.7546771E-02  0.1160498E+00
         21   -1    0    0  501  502  0.00000000000E+00  0.00000000000E+00  0.24572855068E+02  0.24572855068E+02  0.00000000000E+00 0. -1.
         21   -1    0    0  502  503 -0.00000000000E+00 -0.00000000000E+00 -0.19160066242E+04  0.19160066242E+04  0.00000000000E+00 0. -1.
         -6    2    1    2    0  503 -0.12726193554E+02 -0.71025486005E+02 -0.14329327275E+04  0.14451891223E+04  0.17340363933E+03 0.  0.
        -24    2    3    3    0    0  0.68535328016E+01 -0.34496535315E+02 -0.13434475678E+04  0.13464601310E+04  0.82864558750E+02 0.  0.
          6    2    1    2  501    0  0.12726193554E+02  0.71025486005E+02 -0.45850104166E+03  0.49539035695E+03  0.17315260580E+03 0.  0.
         24    2    5    5    0    0  0.70875457944E+02  0.22407678426E+02 -0.22301674425E+03  0.24796365571E+03  0.78892786393E+02 0.  0.
          5    1    5    5  501    0 -0.58149264390E+02  0.48617807579E+02 -0.23548429741E+03  0.24742670125E+03  0.47000000000E+01 0. -1.
        -15    1    6    6    0    0  0.23864851486E+02 -0.21111619367E+02 -0.13726022519E+03  0.14092110827E+03  0.17770000000E+01 0.  1.
         16    1    6    6    0    0  0.47010606458E+02  0.43519297793E+02 -0.85756519062E+02  0.10704254744E+03  0.00000000000E+00 0. -1.
         -5    1    3    3    0  503 -0.19579726356E+02 -0.36528950689E+02 -0.89485159619E+02  0.98728991257E+02  0.47000000000E+01 0.  1.
         15    1    4    4    0    0  0.15797551960E+02 -0.54928782772E+02 -0.61022239902E+03  0.61289580503E+03  0.17770000000E+01 0. -1.
        -16    1    4    4    0    0 -0.89440191584E+01  0.20432247457E+02 -0.73322516882E+03  0.73356432601E+03  0.00000000000E+00 0.  1.
<mgrwt>
<rscale>  2 0.18775950E+03</rscale>
<asrwt>0</asrwt>
<pdfrwt beam="1">  1       21 0.37804385E-02 0.18781746E+03</pdfrwt>
<pdfrwt beam="2">  1       21 0.29477031E+00 0.18781746E+03</pdfrwt>
<totfact> 0.15835303E+04</totfact>
</mgrwt>
</event>
<event>
12    2  0.4090627E-002  0.1834261E+03  0.7546771E-02  0.1164851E+00
         21   -1    0    0  503  502  0.00000000000E+00  0.00000000000E+00  0.11949271659E+03  0.11949271659E+03  0.00000000000E+00 0.  1.
         21   -1    0    0  501  503 -0.00000000000E+00 -0.00000000000E+00 -0.66848805326E+03  0.66848805326E+03  0.00000000000E+00 0.  1.
          6    2    1    2  501    0 -0.34400219610E+02  0.49489838022E+02 -0.57547879746E+03  0.60400413078E+03  0.17324123207E+03 0.  0.
         24    2    3    3    0    0 -0.76604422450E+02  0.70142593335E+02 -0.36628103953E+03  0.38954312508E+03  0.82424665251E+02 0.  0.
         -6    2    1    2    0  502  0.34400219610E+02 -0.49489838022E+02  0.26483460799E+02  0.18397663907E+03  0.17179467644E+03 0.  0.
        -24    2    5    5    0    0 -0.38550847572E+02 -0.44636346467E+02 -0.11190492156E+02  0.10159441214E+03  0.81961126083E+02 0.  0.
          5    1    3    3  501    0  0.42204202840E+02 -0.20652755313E+02 -0.20919775794E+03  0.21446100570E+03  0.47000000000E+01 0. -1.
        -15    1    4    4    0    0 -0.41417017962E+02  0.68169584427E+02 -0.32776754115E+03  0.33733837668E+03  0.17770000000E+01 0.  1.
         16    1    4    4    0    0 -0.35187404487E+02  0.19730089086E+01 -0.38513498376E+02  0.52204748403E+02  0.00000000000E+00 0. -1.
         -5    1    5    5    0  502  0.72951067181E+02 -0.48534915552E+01  0.37673952955E+02  0.82382226933E+02  0.47000000000E+01 0.  1.
         15    1    6    6    0    0  0.25659945787E+02 -0.11486514047E+02 -0.79004420423E+01  0.29256581075E+02  0.17770000000E+01 0. -1.
        -16    1    6    6    0    0 -0.64210793359E+02 -0.33149832420E+02 -0.32900501138E+01  0.72337831064E+02  0.00000000000E+00 0.  1.
<mgrwt>
<rscale>  2 0.18308377E+03</rscale>
<asrwt>0</asrwt>
<pdfrwt beam="1">  1       21 0.18383496E-01 0.18342613E+03</pdfrwt>
<pdfrwt beam="2">  1       21 0.10284431E+00 0.18342613E+03</pdfrwt>
<totfact> 0.20850595E+04</totfact>
</mgrwt>
</event>
<event>
12    2  0.4090627E-002  0.2378988E+03  0.7546771E-02  0.1121314E+00
         21   -1    0    0  503  502  0.00000000000E+00  0.00000000000E+00  0.44945850108E+03  0.44945850108E+03  0.00000000000E+00 0.  1.
         21   -1    0    0  501  503 -0.00000000000E+00 -0.00000000000E+00 -0.49556896362E+03  0.49556896362E+03  0.00000000000E+00 0.  1.
          6    2    1    2  501    0 -0.25809899147E+02 -0.16139095815E+03 -0.43135080250E+03  0.49260466805E+03  0.17286599404E+03 0.  0.
         24    2    3    3    0    0 -0.13905999494E+02 -0.14603912046E+03 -0.44133718957E+03  0.47026189127E+03  0.69619896236E+02 0.  0.
         -6    2    1    2    0  502  0.25809899147E+02  0.16139095815E+03  0.38524033997E+03  0.45242279666E+03  0.17193916112E+03 0.  0.
        -24    2    5    5    0    0  0.38413110824E+02  0.29281889848E+02  0.22721698157E+03  0.24601272260E+03  0.81004362914E+02 0.  0.
          5    1    3    3  501    0 -0.11903899653E+02 -0.15351837690E+02  0.99863870724E+01  0.22342776778E+02  0.47000000000E+01 0. -1.
        -15    1    4    4    0    0 -0.30074957871E+02 -0.22245745004E+02 -0.95511450093E+02  0.10259128174E+03  0.17770000000E+01 0.  1.
         16    1    4    4    0    0  0.16168958377E+02 -0.12379337546E+03 -0.34582573948E+03  0.36767060953E+03  0.00000000000E+00 0. -1.
         -5    1    5    5    0  502 -0.12603211677E+02  0.13210906830E+03  0.15802335840E+03  0.20641007406E+03  0.47000000000E+01 0.  1.
         15    1    6    6    0    0  0.33893931343E+02 -0.19940459853E+02  0.60974201564E+02  0.72577072871E+02  0.17770000000E+01 0. -1.
        -16    1    6    6    0    0  0.45191794809E+01  0.49222349700E+02  0.16624278000E+03  0.17343564973E+03  0.00000000000E+00 0.  1.
<mgrwt>
<rscale>  2 0.23773048E+03</rscale>
<asrwt>0</asrwt>
<pdfrwt beam="1">  1       21 0.69147462E-01 0.23789881E+03</pdfrwt>
<pdfrwt beam="2">  1       21 0.76241379E-01 0.23789881E+03</pdfrwt>
<totfact> 0.28147539E+03</totfact>
</mgrwt>
</event>
<event>
12    2  0.4090627E-002  0.3635360E+03  0.7546771E-02  0.1057306E+00
         21   -1    0    0  503  502  0.00000000000E+00  0.00000000000E+00  0.74662352907E+03  0.74662352907E+03  0.00000000000E+00 0. -1.
         21   -1    0    0  501  503 -0.00000000000E+00 -0.00000000000E+00 -0.19183887348E+03  0.19183887348E+03  0.00000000000E+00 0.  1.
          6    2    1    2  501    0 -0.12114521411E+03 -0.29423523964E+03  0.14405354342E+03  0.38995674415E+03  0.17339059889E+03 0.  0.
         24    2    3    3    0    0 -0.21270523009E+02 -0.81242816482E+02  0.95926501685E+02  0.14979215810E+03  0.78631841660E+02 0.  0.
         -6    2    1    2    0  502  0.12114521411E+03  0.29423523964E+03  0.41073111216E+03  0.54850565840E+03  0.17580634700E+03 0.  0.
        -24    2    5    5    0    0  0.94380690846E+01  0.18136182698E+03  0.27644641744E+03  0.34048315295E+03  0.80777263467E+02 0.  0.
          5    1    3    3  501    0 -0.99874691105E+02 -0.21299242316E+03  0.48127041739E+02  0.24016458605E+03  0.47000000000E+01 0. -1.
        -15    1    4    4    0    0 -0.26589617195E+02 -0.77757714465E+01 -0.13275962181E+01  0.27791916178E+02  0.17770000000E+01 0.  1.
         16    1    4    4    0    0  0.53190941857E+01 -0.73467045035E+02  0.97254097903E+02  0.12200024192E+03  0.00000000000E+00 0. -1.
         -5    1    5    5    0  502  0.11170714503E+03  0.11287341267E+03  0.13428469472E+03  0.20802250545E+03  0.47000000000E+01 0.  1.
         15    1    6    6    0    0  0.33772858823E+02  0.16619740319E+03  0.22760839794E+03  0.28385017766E+03  0.17770000000E+01 0. -1.
        -16    1    6    6    0    0 -0.24334789738E+02  0.15164423789E+02  0.48838019506E+02  0.56632975286E+02  0.00000000000E+00 0.  1.
<mgrwt>
<rscale>  2 0.36324511E+03</rscale>
<asrwt>0</asrwt>
<pdfrwt beam="1">  1       21 0.11486516E+00 0.36353598E+03</pdfrwt>
<pdfrwt beam="2">  1       21 0.29513673E-01 0.36353598E+03</pdfrwt>
<totfact> 0.58687112E+03</totfact>
</mgrwt>
</event>
<event>
12    2  0.4090627E-002  0.2393062E+03  0.7546771E-02  0.1121242E+00
         21   -1    0    0  501  502  0.00000000000E+00  0.00000000000E+00  0.15603873722E+03  0.15603873722E+03  0.00000000000E+00 0.  1.
         21   -1    0    0  502  503 -0.00000000000E+00 -0.00000000000E+00 -0.40593592734E+03  0.40593592734E+03  0.00000000000E+00 0. -1.
         -6    2    1    2    0  503 -0.12636221870E+03  0.92740954424E+02 -0.22272214997E+03  0.32691378176E+03  0.18082911732E+03 0.  0.
        -24    2    3    3    0    0  0.55764810171E+01  0.91148688828E+01 -0.90210379105E+02  0.12201721740E+03  0.81462327910E+02 0.  0.
          6    2    1    2  501    0  0.12636221870E+03 -0.92740954424E+02 -0.27175040152E+02  0.23506088281E+03  0.17305155555E+03 0.  0.
         24    2    5    5    0    0  0.77622741222E+02  0.77072435225E+01  0.23668337620E+02  0.11229070647E+03  0.77229016540E+02 0.  0.
          5    1    5    5  501    0  0.48739477482E+02 -0.10044819795E+03 -0.50843377772E+02  0.12277017634E+03  0.47000000000E+01 0. -1.
        -15    1    6    6    0    0  0.27494495068E+02 -0.21953068314E+02  0.38501029828E+02  0.52185931958E+02  0.17770000000E+01 0.  1.
         16    1    6    6    0    0  0.50128246154E+02  0.29660311836E+02 -0.14832692209E+02  0.60104774510E+02  0.00000000000E+00 0. -1.
         -5    1    3    3    0  503 -0.13193869972E+03  0.83626085541E+02 -0.13251177086E+03  0.20489656436E+03  0.47000000000E+01 0.  1.
         15    1    4    4    0    0  0.25472807935E+02  0.29354684297E+02 -0.84556400575E+02  0.93077946054E+02  0.17770000000E+01 0. -1.
        -16    1    4    4    0    0 -0.19896326918E+02 -0.20239815415E+02 -0.56539785295E+01  0.28939271347E+02  0.00000000000E+00 0.  1.
<mgrwt>
<rscale>  2 0.23783738E+03</rscale>
<asrwt>0</asrwt>
<pdfrwt beam="1">  1       21 0.24005959E-01 0.23930622E+03</pdfrwt>
<pdfrwt beam="2">  1       21 0.62451682E-01 0.23930622E+03</pdfrwt>
<totfact> 0.38020544E+04</totfact>
</mgrwt>
</event>
<event>
12    2  0.4090627E-002  0.2514998E+03  0.7546771E-02  0.1112396E+00
         21   -1    0    0  503  502  0.00000000000E+00  0.00000000000E+00  0.92834491157E+02  0.92834491157E+02  0.00000000000E+00 0. -1.
         21   -1    0    0  501  503 -0.00000000000E+00 -0.00000000000E+00 -0.92002870862E+03  0.92002870862E+03  0.00000000000E+00 0.  1.
          6    2    1    2  501    0 -0.11861785072E+03  0.13812622117E+03 -0.67173614369E+03  0.71719557112E+03  0.17317907788E+03 0.  0.
         24    2    3    3    0    0 -0.36669858393E+02  0.60632820533E+02 -0.50196390260E+03  0.51331961758E+03  0.80673743182E+02 0.  0.
         -6    2    1    2    0  502  0.11861785072E+03 -0.13812622117E+03 -0.15545807377E+03  0.29566762865E+03  0.17350241050E+03 0.  0.
        -24    2    5    5    0    0  0.17237198335E+01 -0.97955884013E+02 -0.68711883081E+02  0.14458855855E+03  0.81155418580E+02 0.  0.
          5    1    3    3  501    0 -0.81947992328E+02  0.77493400633E+02 -0.16977224109E+03  0.20387595354E+03  0.47000000000E+01 0. -1.
        -15    1    4    4    0    0  0.13618349272E+02  0.54370469200E+02 -0.23603693403E+03  0.24260708834E+03  0.17770000000E+01 0.  1.
         16    1    4    4    0    0 -0.50288207665E+02  0.62623513325E+01 -0.26592696857E+03  0.27071252924E+03  0.00000000000E+00 0. -1.
         -5    1    5    5    0  502  0.11689413089E+03 -0.40170337153E+02 -0.86746190689E+02  0.15107907010E+03  0.47000000000E+01 0.  1.
         15    1    6    6    0    0  0.25266902743E+02 -0.98588855449E+02 -0.45419192790E+02  0.11146407312E+03  0.17770000000E+01 0. -1.
        -16    1    6    6    0    0 -0.23543182910E+02  0.63297143625E+00 -0.23292690292E+02  0.33124485436E+02  0.00000000000E+00 0.  1.
<mgrwt>
<rscale>  2 0.25144401E+03</rscale>
<asrwt>0</asrwt>
<pdfrwt beam="1">  1       21 0.14282229E-01 0.25149977E+03</pdfrwt>
<pdfrwt beam="2">  1       21 0.14154288E+00 0.25149977E+03</pdfrwt>
<totfact> 0.14370431E+04</totfact>
</mgrwt>
</event>
<event>
12    2  0.4090627E-002  0.1967333E+03  0.7546771E-02  0.1152569E+00
         21   -1    0    0  503  502  0.00000000000E+00  0.00000000000E+00  0.14228859056E+03  0.14228859056E+03  0.00000000000E+00 0. -1.
         21   -1    0    0  501  503 -0.00000000000E+00 -0.00000000000E+00 -0.38568765332E+03  0.38568765332E+03  0.00000000000E+00 0. -1.
          6    2    1    2  501    0  0.17933866530E+02  0.92392980126E+02 -0.26524156883E+03  0.33023792382E+03  0.17275968903E+03 0.  0.
         24    2    3    3    0    0  0.58023666296E+02  0.25916778246E+02 -0.88273259870E+02  0.13693466509E+03  0.83189595808E+02 0.  0.
         -6    2    1    2    0  502 -0.17933866530E+02 -0.92392980126E+02  0.21842506067E+02  0.19773832005E+03  0.17252611918E+03 0.  0.
        -24    2    5    5    0    0  0.12860860811E+02 -0.93639537927E+02  0.68337913563E+02  0.14175812662E+03  0.80570039272E+02 0.  0.
          5    1    3    3  501    0 -0.40089799766E+02  0.66476201880E+02 -0.17696830896E+03  0.19330325873E+03  0.47000000000E+01 0. -1.
        -15    1    4    4    0    0  0.76699341264E+02  0.55772884771E+01 -0.68123996001E+02  0.10275179637E+03  0.17770000000E+01 0.  1.
         16    1    4    4    0    0 -0.18675674968E+02  0.20339489769E+02 -0.20149263868E+02  0.34182868722E+02  0.00000000000E+00 0. -1.
         -5    1    5    5    0  502 -0.30794727341E+02  0.12465578000E+01 -0.46495407496E+02  0.55980193431E+02  0.47000000000E+01 0.  1.
         15    1    6    6    0    0  0.41820036047E+02 -0.25770316084E+02  0.37309530293E+02  0.61710480355E+02  0.17770000000E+01 0. -1.
        -16    1    6    6    0    0 -0.28959175236E+02 -0.67869221843E+02  0.31028383271E+02  0.80047646263E+02  0.00000000000E+00 0.  1.
<mgrwt>
<rscale>  2 0.19668202E+03</rscale>
<asrwt>0</asrwt>
<pdfrwt beam="1">  1       21 0.21890553E-01 0.19673331E+03</pdfrwt>
<pdfrwt beam="2">  1       21 0.59336561E-01 0.19673331E+03</pdfrwt>
<totfact> 0.51607809E+04</totfact>
</mgrwt>
</event>
<event>
12    2  0.4090627E-002  0.1841817E+03  0.7546771E-02  0.1165284E+00
         21   -1    0    0  501  502  0.00000000000E+00  0.00000000000E+00  0.35600549251E+03  0.35600549251E+03  0.00000000000E+00 0.  1.
         21   -1    0    0  502  503 -0.00000000000E+00 -0.00000000000E+00 -0.92892901161E+02  0.92892901161E+02  0.00000000000E+00 0.  1.
         -6    2    1    2    0  503 -0.64618158726E+01  0.60621207986E+02  0.15398914161E+03  0.24007402707E+03  0.17379930039E+03 0.  0.
        -24    2    3    3    0    0 -0.51687925192E+02  0.20575052677E+02  0.15067169035E+03  0.17939296740E+03  0.79905594775E+02 0.  0.
          6    2    1    2  501    0  0.64618158726E+01 -0.60621207986E+02  0.10912344974E+03  0.20882436661E+03  0.16728120900E+03 0.  0.
         24    2    5    5    0    0 -0.31927093419E+00 -0.15592338364E+01 -0.40055965304E+01  0.80939375154E+02  0.80824529091E+02 0.  0.
          5    1    5    5  501    0  0.67810868068E+01 -0.59061974149E+02  0.11312904627E+03  0.12788499145E+03  0.47000000000E+01 0. -1.
        -15    1    6    6    0    0 -0.19419243726E+02 -0.18305110244E+02  0.28895391028E+02  0.39373664290E+02  0.17770000000E+01 0.  1.
         16    1    6    6    0    0  0.19099972792E+02  0.16745876408E+02 -0.32900987559E+02  0.41565710864E+02  0.00000000000E+00 0. -1.
         -5    1    3    3    0  503  0.45226109320E+02  0.40046155309E+02  0.33174512603E+01  0.60681059665E+02  0.47000000000E+01 0.  1.
         15    1    4    4    0    0 -0.33984972128E+01  0.42981818895E+02  0.80222524035E+02  0.91092247916E+02  0.17770000000E+01 0. -1.
        -16    1    4    4    0    0 -0.48289427979E+02 -0.22406766218E+02  0.70449166315E+02  0.88300719484E+02  0.00000000000E+00 0.  1.
<mgrwt>
<rscale>  2 0.18262770E+03</rscale>
<asrwt>0</asrwt>
<pdfrwt beam="1">  1       21 0.54770075E-01 0.18418166E+03</pdfrwt>
<pdfrwt beam="2">  1       21 0.14291216E-01 0.18418166E+03</pdfrwt>
<totfact> 0.13518947E+05</totfact>
</mgrwt>
</event>
<event>
12    2  0.4090627E-002  0.2291331E+03  0.7546771E-02  0.1128015E+00
         21   -1    0    0  501  502  0.00000000000E+00  0.00000000000E+00  0.11702580534E+04  0.11702580534E+04  0.00000000000E+00 0. -1.
         21   -1    0    0  502  503 -0.00000000000E+00 -0.00000000000E+00 -0.12301444313E+03  0.12301444313E+03  0.00000000000E+00 0. -1.
         -6    2    1    2    0  503  0.73018632841E+02  0.12842051330E+03  0.72491108332E+01  0.22924776213E+03  0.17515261304E+03 0.  0.
        -24    2    3    3    0    0  0.67570333467E+02  0.11579404746E+03  0.65172682518E+02  0.16952890612E+03  0.80737600118E+02 0.  0.
          6    2    1    2  501    0 -0.73018632841E+02 -0.12842051330E+03  0.10399944995E+04  0.10640247344E+04  0.16951851695E+03 0.  0.
         24    2    5    5    0    0 -0.12295617684E+02 -0.88847237862E+02  0.34631824468E+03  0.36655633719E+03  0.79888721649E+02 0.  0.
          5    1    5    5  501    0 -0.60723015157E+02 -0.39573275443E+02  0.69367625478E+03  0.69746839724E+03  0.47000000000E+01 0. -1.
        -15    1    6    6    0    0 -0.15591071908E+01 -0.10092946877E+03  0.26355750455E+03  0.28223200459E+03  0.17770000000E+01 0.  1.
         16    1    6    6    0    0 -0.10736510493E+02  0.12082230913E+02  0.82760740126E+02  0.84324332595E+02  0.00000000000E+00 0. -1.
         -5    1    3    3    0  503  0.54482993735E+01  0.12626465848E+02 -0.57923571685E+02  0.59718856006E+02  0.47000000000E+01 0.  1.
         15    1    4    4    0    0  0.68704336596E+02  0.79844731335E+02  0.12984515397E+02  0.10614717310E+03  0.17770000000E+01 0. -1.
        -16    1    4    4    0    0 -0.11340031283E+01  0.35949316121E+02  0.52188167121E+02  0.63381733017E+02  0.00000000000E+00 0.  1.
<mgrwt>
<rscale>  2 0.22805619E+03</rscale>
<asrwt>0</asrwt>
<pdfrwt beam="1">  1       21 0.18003969E+00 0.22913312E+03</pdfrwt>
<pdfrwt beam="2">  1       21 0.18925300E-01 0.22913312E+03</pdfrwt>
<totfact> 0.45105680E+03</totfact>
</mgrwt>
</event>
<event>
12    2  0.4090627E-002  0.2081223E+03  0.7546771E-02  0.1143236E+00
         21   -1    0    0  503  502  0.00000000000E+00  0.00000000000E+00  0.10440043826E+03  0.10440043826E+03  0.00000000000E+00 0. -1.
         21   -1    0    0  501  503 -0.00000000000E+00 -0.00000000000E+00 -0.12544532613E+04  0.12544532613E+04  0.00000000000E+00 0. -1.
          6    2    1    2  501    0 -0.23654666692E+02 -0.11197217990E+03 -0.11318255179E+04  0.11508014214E+04  0.17383209202E+03 0.  0.
         24    2    3    3    0    0  0.34843981205E+02 -0.25854982933E+02 -0.32913801482E+03  0.34137719332E+03  0.79523406296E+02 0.  0.
         -6    2    1    2    0  502  0.23654666692E+02  0.11197217990E+03 -0.18227305135E+02  0.20805227815E+03  0.17278947729E+03 0.  0.
        -24    2    5    5    0    0  0.82485169044E+01  0.14256046672E+03  0.94756309594E+01  0.16375176562E+03  0.79582211942E+02 0.  0.
          5    1    3    3  501    0 -0.58498647897E+02 -0.86117196963E+02 -0.80268750306E+03  0.80942422807E+03  0.47000000000E+01 0. -1.
        -15    1    4    4    0    0  0.38541537280E+01  0.23694327216E+02 -0.17287900592E+03  0.17454679619E+03  0.17770000000E+01 0.  1.
         16    1    4    4    0    0  0.30989827477E+02 -0.49549310150E+02 -0.15625900890E+03  0.16683039713E+03  0.00000000000E+00 0. -1.
         -5    1    5    5    0  502  0.15406149787E+02 -0.30588286824E+02 -0.27702936095E+02  0.44300512529E+02  0.47000000000E+01 0.  1.
         15    1    6    6    0    0 -0.81933457779E+01  0.48572603058E+02 -0.32991284235E+02  0.59312825319E+02  0.17770000000E+01 0. -1.
        -16    1    6    6    0    0  0.16441862682E+02  0.93987863663E+02  0.42466915194E+02  0.10443894030E+03  0.00000000000E+00 0.  1.
<mgrwt>
<rscale>  2 0.20790449E+03</rscale>
<asrwt>0</asrwt>
<pdfrwt beam="1">  1       21 0.16061605E-01 0.20812234E+03</pdfrwt>
<pdfrwt beam="2">  1       21 0.19299282E+00 0.20812234E+03</pdfrwt>
<totfact> 0.50905284E+03</totfact>
</mgrwt>
</event>
<event>
12    2  0.4090627E-002  0.2219439E+03  0.7546771E-02  0.1132722E+00
         21   -1    0    0  503  502  0.00000000000E+00  0.00000000000E+00  0.24071637775E+03  0.24071637775E+03  0.00000000000E+00 0. -1.
         21   -1    0    0  501  503 -0.00000000000E+00 -0.00000000000E+00 -0.27802903174E+03  0.27802903174E+03  0.00000000000E+00 0. -1.
          6    2    1    2  501    0  0.90143970128E+02 -0.10565696923E+03 -0.15312974063E+03  0.26840030408E+03  0.17117440016E+03 0.  0.
         24    2    3    3    0    0  0.61682949787E+02 -0.13667867422E+03 -0.87450859000E+02  0.19024544914E+03  0.77844922106E+02 0.  0.
         -6    2    1    2    0  502 -0.90143970128E+02  0.10565696923E+03  0.11581708663E+03  0.25034510541E+03  0.17311771645E+03 0.  0.
        -24    2    5    5    0    0 -0.86644673525E+02  0.56359988141E+02  0.14292644230E+03  0.19378147234E+03  0.80246765660E+02 0.  0.
          5    1    3    3  501    0  0.28461020341E+02  0.31021704987E+02 -0.65678881628E+02  0.78154854942E+02  0.47000000000E+01 0. -1.
        -15    1    4    4    0    0  0.76668550332E+02 -0.12871311713E+03 -0.68311703599E+02  0.16466566038E+03  0.17770000000E+01 0.  1.
         16    1    4    4    0    0 -0.14985600545E+02 -0.79655570887E+01 -0.19139155401E+02  0.25579788757E+02  0.00000000000E+00 0. -1.
         -5    1    5    5    0  502 -0.34992966026E+01  0.49296981091E+02 -0.27109355669E+02  0.56563633071E+02  0.47000000000E+01 0.  1.
         15    1    6    6    0    0 -0.82210664237E+02  0.57472816157E+02  0.73899756541E+02  0.12460357000E+03  0.17770000000E+01 0. -1.
        -16    1    6    6    0    0 -0.44340092882E+01 -0.11128280157E+01  0.69026685762E+02  0.69177902337E+02  0.00000000000E+00 0.  1.
<mgrwt>
<rscale>  2 0.22156477E+03</rscale>
<asrwt>0</asrwt>
<pdfrwt beam="1">  1       21 0.37033289E-01 0.22194385E+03</pdfrwt>
<pdfrwt beam="2">  1       21 0.42773697E-01 0.22194385E+03</pdfrwt>
<totfact> 0.36422642E+04</totfact>
</mgrwt>
</event>
<event>
12    2  0.4090627E-002  0.2188679E+03  0.7546771E-02  0.1136237E+00
         21   -1    0    0  503  502  0.00000000000E+00  0.00000000000E+00  0.56568117121E+03  0.56568117121E+03  0.00000000000E+00 0. -1.
         21   -1    0    0  501  503 -0.00000000000E+00 -0.00000000000E+00 -0.14213944018E+03  0.14213944018E+03  0.00000000000E+00 0. -1.
          6    2    1    2  501    0 -0.13495224049E+03  0.64032777911E+01 -0.16828635824E+02  0.21951393450E+03  0.17219191409E+03 0.  0.
         24    2    3    3    0    0 -0.21322015913E+02  0.49998951464E+02 -0.10525259503E+01  0.96699495844E+02  0.79969751628E+02 0.  0.
         -6    2    1    2    0  502  0.13495224049E+03 -0.64032777911E+01  0.44037036685E+03  0.48830667688E+03  0.16206246176E+03 0.  0.
        -24    2    5    5    0    0  0.17399555658E+02  0.30993356688E+02  0.17036263847E+03  0.19141712610E+03  0.79710443996E+02 0.  0.
          5    1    3    3  501    0 -0.11363022458E+03 -0.43595673673E+02 -0.15776109874E+02  0.12281443866E+03  0.47000000000E+01 0. -1.
        -15    1    4    4    0    0 -0.28447132700E+02  0.45059225962E+02  0.32233059367E+02  0.62303298856E+02  0.17770000000E+01 0.  1.
         16    1    4    4    0    0  0.71251167877E+01  0.49397255014E+01 -0.33285585318E+02  0.34396196987E+02  0.00000000000E+00 0. -1.
         -5    1    5    5    0  502  0.11755268483E+03 -0.37396634479E+02  0.27000772838E+03  0.29688955078E+03  0.47000000000E+01 0.  1.
         15    1    6    6    0    0  0.42275523314E+02 -0.13377598250E+01  0.57461440625E+02  0.71372153958E+02  0.17770000000E+01 0. -1.
        -16    1    6    6    0    0 -0.24875967656E+02  0.32331116513E+02  0.11290119784E+03  0.12004497214E+03  0.00000000000E+00 0.  1.
<mgrwt>
<rscale>  2 0.21687163E+03</rscale>
<asrwt>0</asrwt>
<pdfrwt beam="1">  1       21 0.87027871E-01 0.21886792E+03</pdfrwt>
<pdfrwt beam="2">  1       21 0.21867607E-01 0.21886792E+03</pdfrwt>
<totfact> 0.21825897E+04</totfact>
</mgrwt>
</event>
<event>
12    2  0.4090627E-002  0.1952310E+03  0.7546771E-02  0.1154179E+00
         21   -1    0    0  503  502  0.00000000000E+00  0.00000000000E+00  0.23199356102E+03  0.23199356102E+03  0.00000000000E+00 0.  1.
         21   -1    0    0  501  503 -0.00000000000E+00 -0.00000000000E+00 -0.30066450340E+03  0.30066450340E+03  0.00000000000E+00 0.  1.
          6    2    1    2  501    0 -0.60928008912E+02  0.67304698314E+02 -0.21466709559E+03  0.29016738230E+03  0.17283808359E+03 0.  0.
         24    2    3    3    0    0 -0.48844042143E+02 -0.16020181391E+00 -0.19839117145E+03  0.21956617333E+03  0.80401998995E+02 0.  0.
         -6    2    1    2    0  502  0.60928008912E+02 -0.67304698314E+02  0.14599615321E+03  0.24249068211E+03  0.17101084607E+03 0.  0.
        -24    2    5    5    0    0  0.42611266876E+02  0.36127143722E+00 -0.10344116744E+00  0.80375389873E+02  0.68149409501E+02 0.  0.
          5    1    3    3  501    0 -0.12083966770E+02  0.67464900128E+02 -0.16275924135E+02  0.70601208975E+02  0.47000000000E+01 0. -1.
        -15    1    4    4    0    0 -0.28756024576E+02  0.38413650427E+02 -0.78395539474E+02  0.91932234972E+02  0.17770000000E+01 0.  1.
         16    1    4    4    0    0 -0.20088017566E+02 -0.38573852241E+02 -0.11999563198E+03  0.12763393836E+03  0.00000000000E+00 0. -1.
         -5    1    5    5    0  502  0.18316742036E+02 -0.67665969752E+02  0.14609959437E+03  0.16211529224E+03  0.47000000000E+01 0.  1.
         15    1    6    6    0    0  0.10615150956E+02  0.27577522489E+02 -0.18076661962E+02  0.34686086737E+02  0.17770000000E+01 0. -1.
        -16    1    6    6    0    0  0.31996115920E+02 -0.27216251051E+02  0.17973220795E+02  0.45689303136E+02  0.00000000000E+00 0.  1.
<mgrwt>
<rscale>  2 0.19482580E+03</rscale>
<asrwt>0</asrwt>
<pdfrwt beam="1">  1       21 0.35691317E-01 0.19523101E+03</pdfrwt>
<pdfrwt beam="2">  1       21 0.46256077E-01 0.19523101E+03</pdfrwt>
<totfact> 0.33847800E+04</totfact>
</mgrwt>
</event>
<event>
12    2  0.4090627E-002  0.1755836E+03  0.7546771E-02  0.1172430E+00
         21   -1    0    0  501  502  0.00000000000E+00  0.00000000000E+00  0.30938355782E+02  0.30938355782E+02  0.00000000000E+00 0.  1.
         21   -1    0    0  502  503 -0.00000000000E+00 -0.00000000000E+00 -0.13250712523E+04  0.13250712523E+04  0.00000000000E+00 0.  1.
         -6    2    1    2    0  503  0.22574705653E+02 -0.12583731558E+02 -0.98951247454E+03  0.10049699106E+04  0.17367100028E+03 0.  0.
        -24    2    3    3    0    0 -0.12643186598E+02 -0.59025168901E+02 -0.37963452447E+03  0.39229519185E+03  0.78290003484E+02 0.  0.
          6    2    1    2  501    0 -0.22574705653E+02  0.12583731558E+02 -0.30462042195E+03  0.35103969744E+03  0.17253202623E+03 0.  0.
         24    2    5    5    0    0  0.19855401876E+02 -0.16937536869E+02 -0.68799550228E+02  0.10957460088E+03  0.81191735469E+02 0.  0.
          5    1    5    5  501    0 -0.42430107528E+02  0.29521268428E+02 -0.23582087172E+03  0.24146509655E+03  0.47000000000E+01 0. -1.
        -15    1    6    6    0    0 -0.20923938845E+02 -0.23192958463E+02 -0.59588035979E+02  0.67302424175E+02  0.17770000000E+01 0.  1.
         16    1    6    6    0    0  0.40779340721E+02  0.62554215932E+01 -0.92115142494E+01  0.42272176709E+02  0.00000000000E+00 0. -1.
         -5    1    3    3    0  503  0.35217892251E+02  0.46441437343E+02 -0.60987795007E+03  0.61267471877E+03  0.47000000000E+01 0.  1.
         15    1    4    4    0    0  0.31400801276E+02 -0.39894056115E+02 -0.18964168709E+03  0.19632797367E+03  0.17770000000E+01 0. -1.
        -16    1    4    4    0    0 -0.44043987874E+02 -0.19131112787E+02 -0.18999283738E+03  0.19596721818E+03  0.00000000000E+00 0.  1.
<mgrwt>
<rscale>  2 0.17530125E+03</rscale>
<asrwt>0</asrwt>
<pdfrwt beam="1">  1       21 0.47597470E-02 0.17558355E+03</pdfrwt>
<pdfrwt beam="2">  1       21 0.20385712E+00 0.17558355E+03</pdfrwt>
<totfact> 0.37545104E+04</totfact>
</mgrwt>
</event>
<event>
12    2  0.4090627E-002  0.1949373E+03  0.7546771E-02  0.1154173E+00
         21   -1    0    0  501  502  0.00000000000E+00  0.00000000000E+00  0.17347185320E+03  0.17347185320E+03  0.00000000000E+00 0.  1.
         21   -1    0    0  502  503 -0.00000000000E+00 -0.00000000000E+00 -0.34541807202E+03  0.34541807202E+03  0.00000000000E+00 0. -1.
         -6    2    1    2    0  503  0.52901385338E+02 -0.72433191793E+02 -0.24324121813E+03  0.31171598074E+03  0.17307639529E+03 0.  0.
        -24    2    3    3    0    0  0.46417110082E+02 -0.86205576962E+00 -0.21423958435E+03  0.23407798683E+03  0.82089056314E+02 0.  0.
          6    2    1    2  501    0 -0.52901385338E+02  0.72433191793E+02  0.71294999318E+02  0.20717394448E+03  0.17260632230E+03 0.  0.
         24    2    5    5    0    0 -0.67004471657E+02  0.40758669950E+02  0.10833685049E+03  0.15621944403E+03  0.80726532932E+02 0.  0.
          5    1    5    5  501    0  0.14103086319E+02  0.31674521843E+02 -0.37041851174E+02  0.50954500449E+02  0.47000000000E+01 0. -1.
        -15    1    6    6    0    0 -0.72292333513E+02  0.88792512238E+00  0.70668642230E+02  0.10111471020E+03  0.17770000000E+01 0.  1.
         16    1    6    6    0    0  0.52878618559E+01  0.39870744827E+02  0.37668208262E+02  0.55104733824E+02  0.00000000000E+00 0. -1.
         -5    1    3    3    0  503  0.64842752564E+01 -0.71571136023E+02 -0.29001633784E+02  0.77637993916E+02  0.47000000000E+01 0.  1.
         15    1    4    4    0    0 -0.12648023098E+01  0.31644173600E+02 -0.43404799684E+02  0.53759536943E+02  0.17770000000E+01 0. -1.
        -16    1    4    4    0    0  0.47681912392E+02 -0.32506229370E+02 -0.17083478466E+03  0.18031844988E+03  0.00000000000E+00 0.  1.
<mgrwt>
<rscale>  2 0.19483294E+03</rscale>
<asrwt>0</asrwt>
<pdfrwt beam="1">  1       21 0.26687978E-01 0.19493733E+03</pdfrwt>
<pdfrwt beam="2">  1       21 0.53141241E-01 0.19493733E+03</pdfrwt>
<totfact> 0.44774093E+04</totfact>
</mgrwt>
</event>
<event>
12    2  0.4090627E-002  0.3078981E+03  0.7546771E-02  0.1081398E+00
         21   -1    0    0  501  502  0.00000000000E+00  0.00000000000E+00  0.32543111534E+03  0.32543111534E+03  0.00000000000E+00 0. -1.
         21   -1    0    0  502  503 -0.00000000000E+00 -0.00000000000E+00 -0.30355214099E+03  0.30355214099E+03  0.00000000000E+00 0.  1.
         -6    2    1    2    0  503 -0.24257560177E+03  0.76411912362E+02 -0.53039274794E+02  0.31210155787E+03  0.17295234844E+03 0.  0.
        -24    2    3    3    0    0 -0.84633543917E+02  0.89889832441E+02 -0.44034561232E+02  0.15326037041E+03  0.79414607109E+02 0.  0.
          6    2    1    2  501    0  0.24257560177E+03 -0.76411912362E+02  0.74918249137E+02  0.31688169846E+03  0.17354988862E+03 0.  0.
         24    2    5    5    0    0  0.18395861951E+03 -0.11680417639E+03  0.34868021047E+02  0.23506729647E+03  0.80974475378E+02 0.  0.
          5    1    5    5  501    0  0.58616982264E+02  0.40392264032E+02  0.40050228090E+02  0.81814401993E+02  0.47000000000E+01 0. -1.
        -15    1    6    6    0    0  0.44807926500E+02 -0.23056933647E+02 -0.25814005475E+02  0.56647092371E+02  0.17770000000E+01 0.  1.
         16    1    6    6    0    0  0.13915069301E+03 -0.93747242747E+02  0.60682026522E+02  0.17842020410E+03  0.00000000000E+00 0. -1.
         -5    1    3    3    0  503 -0.15794205785E+03 -0.13477920080E+02 -0.90047135613E+01  0.15884118746E+03  0.47000000000E+01 0.  1.
         15    1    4    4    0    0  0.11820727602E+02 -0.33397504025E+01 -0.62404130771E+01  0.13891868779E+02  0.17770000000E+01 0. -1.
        -16    1    4    4    0    0 -0.96454271519E+02  0.93229582844E+02 -0.37794148155E+02  0.13936850163E+03  0.00000000000E+00 0.  1.
<mgrwt>
<rscale>  2 0.30781401E+03</rscale>
<asrwt>0</asrwt>
<pdfrwt beam="1">  1       21 0.50066325E-01 0.30789814E+03</pdfrwt>
<pdfrwt beam="2">  1       21 0.46700330E-01 0.30789814E+03</pdfrwt>
<totfact> 0.15732458E+04</totfact>
</mgrwt>
</event>
<event>
12    2  0.4090627E-002  0.1926744E+03  0.7546771E-02  0.1156308E+00
         21   -1    0    0  501  502  0.00000000000E+00  0.00000000000E+00  0.29369767593E+03  0.29369767593E+03  0.00000000000E+00 0. -1.
         21   -1    0    0  502  503 -0.00000000000E+00 -0.00000000000E+00 -0.20223527145E+03  0.20223527145E+03  0.00000000000E+00 0. -1.
         -6    2    1    2    0  503 -0.11231087768E+02  0.83944636333E+02 -0.10673179222E+03  0.22026143049E+03  0.17306236735E+03 0.  0.
        -24    2    3    3    0    0 -0.95689455564E+01  0.50291937782E+02 -0.14180211145E+03  0.17140158883E+03  0.81546441468E+02 0.  0.
          6    2    1    2  501    0  0.11231087768E+02 -0.83944636333E+02  0.19819419670E+03  0.27567151688E+03  0.17187497292E+03 0.  0.
         24    2    5    5    0    0 -0.20561244232E+02 -0.81895155611E+01  0.30625535030E+02  0.88987460068E+02  0.80566815278E+02 0.  0.
          5    1    5    5  501    0  0.31792332000E+02 -0.75755120772E+02  0.16756866167E+03  0.18668405682E+03  0.47000000000E+01 0. -1.
        -15    1    6    6    0    0  0.15964566934E+02  0.45974202595E+00  0.45771885245E+02  0.48510843819E+02  0.17770000000E+01 0.  1.
         16    1    6    6    0    0 -0.36525811166E+02 -0.86492575871E+01 -0.15146350215E+02  0.40476616249E+02  0.00000000000E+00 0. -1.
         -5    1    3    3    0  503 -0.16621422115E+01  0.33652698551E+02  0.35070319233E+02  0.48859841666E+02  0.47000000000E+01 0.  1.
         15    1    4    4    0    0  0.33418297751E+02  0.97477728775E+01 -0.35324952001E+02  0.49626723280E+02  0.17770000000E+01 0. -1.
        -16    1    4    4    0    0 -0.42987243307E+02  0.40544164905E+02 -0.10647715945E+03  0.12177486555E+03  0.00000000000E+00 0.  1.
<mgrwt>
<rscale>  2 0.19240738E+03</rscale>
<asrwt>0</asrwt>
<pdfrwt beam="1">  1       21 0.45184258E-01 0.19267439E+03</pdfrwt>
<pdfrwt beam="2">  1       21 0.31113119E-01 0.19267439E+03</pdfrwt>
<totfact> 0.46637331E+04</totfact>
</mgrwt>
</event>
<event>
12    2  0.4090627E-002  0.2625250E+03  0.7546771E-02  0.1105761E+00
         21   -1    0    0  503  502  0.00000000000E+00  0.00000000000E+00  0.11737397102E+03  0.11737397102E+03  0.00000000000E+00 0.  1.
         21   -1    0    0  501  503 -0.00000000000E+00 -0.00000000000E+00 -0.62889780020E+03  0.62889780020E+03  0.00000000000E+00 0.  1.
          6    2    1    2  501    0  0.13980271110E+03  0.13904921230E+03 -0.15711880336E+03  0.30522495363E+03  0.17203625337E+03 0.  0.
         24    2    3    3    0    0  0.14278563795E+03  0.16092378515E+03 -0.11313726983E+03  0.25578954039E+03  0.79649507968E+02 0.  0.
         -6    2    1    2    0  502 -0.13980271110E+03 -0.13904921230E+03 -0.35440502582E+03  0.44104681760E+03  0.17332019939E+03 0.  0.
        -24    2    5    5    0    0 -0.12814499620E+03 -0.28855953554E+02 -0.21072634378E+03  0.25954169299E+03  0.75514848378E+02 0.  0.
          5    1    3    3  501    0 -0.29829268527E+01 -0.21874572846E+02 -0.43981533530E+02  0.49435413232E+02  0.47000000000E+01 0. -1.
        -15    1    4    4    0    0  0.59771061581E+01  0.14799193234E+02 -0.39263199897E+02  0.42420496385E+02  0.17770000000E+01 0.  1.
         16    1    4    4    0    0  0.13680853179E+03  0.14612459191E+03 -0.73874069931E+02  0.21336904401E+03  0.00000000000E+00 0. -1.
         -5    1    5    5    0  502 -0.11657714894E+02 -0.11019325875E+03 -0.14367868204E+03  0.18150512461E+03  0.47000000000E+01 0.  1.
         15    1    6    6    0    0 -0.15941931358E+02  0.22443084482E+02 -0.30409956464E+02  0.41058012587E+02  0.17770000000E+01 0. -1.
        -16    1    6    6    0    0 -0.11220306485E+03 -0.51299038036E+02 -0.18031638732E+03  0.21848368040E+03  0.00000000000E+00 0.  1.
<mgrwt>
<rscale>  2 0.26231327E+03</rscale>
<asrwt>0</asrwt>
<pdfrwt beam="1">  1       21 0.18057534E-01 0.26252499E+03</pdfrwt>
<pdfrwt beam="2">  1       21 0.96753508E-01 0.26252499E+03</pdfrwt>
<totfact> 0.23870538E+04</totfact>
</mgrwt>
</event>
<event>
12    2  0.4090627E-002  0.1732158E+03  0.7546771E-02  0.1174759E+00
         21   -1    0    0  501  502  0.00000000000E+00  0.00000000000E+00  0.50806395282E+03  0.50806395282E+03  0.00000000000E+00 0. -1.
         21   -1    0    0  502  503 -0.00000000000E+00 -0.00000000000E+00 -0.65983204539E+02  0.65983204539E+02  0.00000000000E+00 0. -1.
         -6    2    1    2    0  503 -0.59123152451E+01 -0.40442231013E+00  0.12555065803E+03  0.21322172168E+03  0.17223651133E+03 0.  0.
        -24    2    3    3    0    0 -0.12857263084E+01  0.12464287402E+02  0.15984520538E+03  0.17600324519E+03  0.72592293542E+02 0.  0.
          6    2    1    2  501    0  0.59123152451E+01  0.40442231013E+00  0.31653009025E+03  0.36082543568E+03  0.17311434941E+03 0.  0.
         24    2    5    5    0    0  0.24828169727E+02 -0.62410504318E+02  0.16400720461E+03  0.19472653381E+03  0.80675589520E+02 0.  0.
          5    1    5    5  501    0 -0.18915854482E+02  0.62814926628E+02  0.15252288564E+03  0.16609890187E+03  0.47000000000E+01 0. -1.
        -15    1    6    6    0    0  0.50856527914E+01 -0.69019537789E+02  0.15884657204E+03  0.17327709496E+03  0.17770000000E+01 0.  1.
         16    1    6    6    0    0  0.19742516935E+02  0.66090334708E+01  0.51606325706E+01  0.21449438848E+02  0.00000000000E+00 0. -1.
         -5    1    3    3    0  503 -0.46265889366E+01 -0.12868709712E+02 -0.34294547345E+02  0.37218476493E+02  0.47000000000E+01 0.  1.
         15    1    4    4    0    0  0.12661741019E+02 -0.27544380584E+02  0.53322784928E+02  0.61363586180E+02  0.17770000000E+01 0. -1.
        -16    1    4    4    0    0 -0.13947467328E+02  0.40008667986E+02  0.10652242045E+03  0.11463965901E+03  0.00000000000E+00 0.  1.
<mgrwt>
<rscale>  2 0.17299600E+03</rscale>
<asrwt>0</asrwt>
<pdfrwt beam="1">  1       21 0.78163682E-01 0.17321575E+03</pdfrwt>
<pdfrwt beam="2">  1       21 0.10151263E-01 0.17321575E+03</pdfrwt>
<totfact> 0.11537204E+05</totfact>
</mgrwt>
</event>
<event>
12    2  0.4090627E-002  0.1863794E+03  0.7546771E-02  0.1163475E+00
         21   -1    0    0  503  502  0.00000000000E+00  0.00000000000E+00  0.58016197738E+02  0.58016197738E+02  0.00000000000E+00 0. -1.
         21   -1    0    0  501  503 -0.00000000000E+00 -0.00000000000E+00 -0.67931499712E+03  0.67931499712E+03  0.00000000000E+00 0. -1.
          6    2    1    2  501    0 -0.25507597670E+02  0.38272280499E+02 -0.44936212612E+03  0.48375773700E+03  0.17314682417E+03 0.  0.
         24    2    3    3    0    0  0.38086372628E+02 -0.18410905884E+02 -0.18954451034E+03  0.21029026152E+03  0.80655684571E+02 0.  0.
         -6    2    1    2    0  502  0.25507597670E+02 -0.38272280499E+02 -0.17193667327E+03  0.25357345786E+03  0.18061526493E+03 0.  0.
        -24    2    5    5    0    0  0.25517981971E+02  0.25627802139E+01 -0.93962213019E+01  0.85916096509E+02  0.81458894040E+02 0.  0.
          5    1    3    3  501    0 -0.63593970298E+02  0.56683186383E+02 -0.25981761577E+03  0.27346747547E+03  0.47000000000E+01 0. -1.
        -15    1    4    4    0    0  0.47062528625E+02  0.11908220304E+02 -0.61350881781E+02  0.78254557284E+02  0.17770000000E+01 0.  1.
         16    1    4    4    0    0 -0.89761559969E+01 -0.30319126188E+02 -0.12819362856E+03  0.13203570424E+03  0.00000000000E+00 0. -1.
         -5    1    5    5    0  502 -0.10384301509E-01 -0.40835060712E+02 -0.16254045196E+03  0.16765736135E+03  0.47000000000E+01 0.  1.
         15    1    6    6    0    0 -0.19271261963E+02 -0.26353216977E+01  0.23163664590E+02  0.30299167387E+02  0.17770000000E+01 0. -1.
        -16    1    6    6    0    0  0.44789243934E+02  0.51981019116E+01 -0.32559885892E+02  0.55616929122E+02  0.00000000000E+00 0.  1.
<mgrwt>
<rscale>  2 0.18454551E+03</rscale>
<asrwt>0</asrwt>
<pdfrwt beam="1">  1       21 0.89255684E-02 0.18637940E+03</pdfrwt>
<pdfrwt beam="2">  1       21 0.10451001E+00 0.18637940E+03</pdfrwt>
<totfact> 0.73440730E+04</totfact>
</mgrwt>
</event>
<event>
12    2  0.4090627E-002  0.2542258E+03  0.7546771E-02  0.1110700E+00
         21   -1    0    0  501  502  0.00000000000E+00  0.00000000000E+00  0.13785191231E+04  0.13785191231E+04  0.00000000000E+00 0.  1.
         21   -1    0    0  502  503 -0.00000000000E+00 -0.00000000000E+00 -0.19355168736E+03  0.19355168736E+03  0.00000000000E+00 0. -1.
         -6    2    1    2    0  503  0.37997732972E+02 -0.18235060770E+03 -0.91795002481E+02  0.27029076258E+03  0.17301792398E+03 0.  0.
        -24    2    3    3    0    0 -0.37412037521E+02 -0.14643994082E+03 -0.82405188723E+02  0.18610960030E+03  0.70723768101E+02 0.  0.
          6    2    1    2  501    0 -0.37997732972E+02  0.18235060770E+03  0.12767624382E+04  0.13017800479E+04  0.17266556570E+03 0.  0.
         24    2    5    5    0    0  0.36265066853E+02  0.12109818639E+03  0.77614730440E+03  0.79197182437E+03  0.93993652158E+02 0.  0.
          5    1    5    5  501    0 -0.74262799825E+02  0.61252421311E+02  0.50061513380E+03  0.50980822350E+03  0.47000000000E+01 0. -1.
        -15    1    6    6    0    0  0.31650321959E+01  0.80072688660E+02  0.65455989493E+03  0.65944936627E+03  0.17770000000E+01 0.  1.
         16    1    6    6    0    0  0.33100034657E+02  0.41025497727E+02  0.12158740947E+03  0.13252245810E+03  0.00000000000E+00 0. -1.
         -5    1    3    3    0  503  0.75409770493E+02 -0.35910666874E+02 -0.93898137580E+01  0.84181162285E+02  0.47000000000E+01 0.  1.
         15    1    4    4    0    0 -0.21621098809E+02 -0.14650281317E+03 -0.62618608464E+02  0.16079425995E+03  0.17770000000E+01 0. -1.
        -16    1    4    4    0    0 -0.15790938712E+02  0.62872342092E-01 -0.19786580259E+02  0.25315340343E+02  0.00000000000E+00 0.  1.
<mgrwt>
<rscale>  2 0.25416589E+03</rscale>
<asrwt>0</asrwt>
<pdfrwt beam="1">  1       21 0.21207986E+00 0.25422583E+03</pdfrwt>
<pdfrwt beam="2">  1       21 0.29777184E-01 0.25422583E+03</pdfrwt>
<totfact> 0.11451717E+03</totfact>
</mgrwt>
</event>
<event>
12    2  0.4090627E-002  0.2947199E+03  0.7546771E-02  0.1087962E+00
         21   -1    0    0  503  502  0.00000000000E+00  0.00000000000E+00  0.46879342543E+03  0.46879342543E+03  0.00000000000E+00 0.  1.
         21   -1    0    0  501  503 -0.00000000000E+00 -0.00000000000E+00 -0.18503213078E+03  0.18503213078E+03  0.00000000000E+00 0.  1.
          6    2    1    2  501    0 -0.18079274008E+03  0.16040471353E+03  0.14072154359E+03  0.32659206806E+03  0.16865390331E+03 0.  0.
         24    2    3    3    0    0 -0.17550754023E+03  0.10800475154E+03  0.15677083006E+03  0.27133486084E+03  0.81102345935E+02 0.  0.
         -6    2    1    2    0  502  0.18079274008E+03 -0.16040471353E+03  0.14303975106E+03  0.32723348815E+03  0.16794552211E+03 0.  0.
        -24    2    5    5    0    0  0.82234951490E+02 -0.12257481791E+03  0.27583217425E+02  0.17071818585E+03  0.81220021330E+02 0.  0.
          5    1    3    3  501    0 -0.52851998513E+01  0.52399961987E+02 -0.16049286469E+02  0.55257207221E+02  0.47000000000E+01 0. -1.
        -15    1    4    4    0    0 -0.12673935051E+03  0.87293249387E+02  0.68668019265E+02  0.16852723505E+03  0.17770000000E+01 0.  1.
         16    1    4    4    0    0 -0.48768189724E+02  0.20711502153E+02  0.88102810791E+02  0.10280762579E+03  0.00000000000E+00 0. -1.
         -5    1    5    5    0  502  0.98557788592E+02 -0.37829895618E+02  0.11545653364E+03  0.15651530230E+03  0.47000000000E+01 0.  1.
         15    1    6    6    0    0  0.38620334083E+01  0.11954013849E+02  0.57924198198E+00  0.12700669251E+02  0.17770000000E+01 0. -1.
        -16    1    6    6    0    0  0.78372918082E+02 -0.13452883176E+03  0.27003975443E+02  0.15801751660E+03  0.00000000000E+00 0.  1.
<mgrwt>
<rscale>  2 0.29461866E+03</rscale>
<asrwt>0</asrwt>
<pdfrwt beam="1">  1       21 0.72122065E-01 0.29471991E+03</pdfrwt>
<pdfrwt beam="2">  1       21 0.28466482E-01 0.29471991E+03</pdfrwt>
<totfact> 0.19439632E+04</totfact>
</mgrwt>
</event>
<event>
12    2  0.4090627E-002  0.2197928E+03  0.7546771E-02  0.1134232E+00
         21   -1    0    0  501  502  0.00000000000E+00  0.00000000000E+00  0.25524926303E+03  0.25524926303E+03  0.00000000000E+00 0. -1.
         21   -1    0    0  502  503 -0.00000000000E+00 -0.00000000000E+00 -0.73240825621E+03  0.73240825621E+03  0.00000000000E+00 0. -1.
         -6    2    1    2    0  503 -0.38558633953E+02  0.12575818238E+03 -0.66433762157E+03  0.69975234980E+03  0.17608800906E+03 0.  0.
        -24    2    3    3    0    0 -0.85519631159E+02  0.49722603226E+02 -0.44365794102E+03  0.46161718658E+03  0.80449448288E+02 0.  0.
          6    2    1    2  501    0  0.38558633953E+02 -0.12575818238E+03  0.18717862838E+03  0.28790516944E+03  0.17479032862E+03 0.  0.
         24    2    5    5    0    0  0.48428992786E+02 -0.13274793091E+03  0.20578993664E+03  0.26521703679E+03  0.89572306417E+02 0.  0.
          5    1    5    5  501    0 -0.98703588332E+01  0.69897485282E+01 -0.18611308260E+02  0.22688132650E+02  0.47000000000E+01 0. -1.
        -15    1    6    6    0    0 -0.77217610668E+00 -0.15181035271E+02 -0.72741466115E+01  0.16944941008E+02  0.17770000000E+01 0.  1.
         16    1    6    6    0    0  0.49201168893E+02 -0.11756689564E+03  0.21306408326E+03  0.24827209578E+03  0.00000000000E+00 0. -1.
         -5    1    3    3    0  503  0.46960997206E+02  0.76035579156E+02 -0.22067968055E+03  0.23813516322E+03  0.47000000000E+01 0.  1.
         15    1    4    4    0    0 -0.34617586841E+02 -0.17926926265E+02 -0.92443408617E+02  0.10034287982E+03  0.17770000000E+01 0. -1.
        -16    1    4    4    0    0 -0.50902044319E+02  0.67649529491E+02 -0.35121453240E+03  0.36127430676E+03  0.00000000000E+00 0.  1.
<mgrwt>
<rscale>  2 0.21953277E+03</rscale>
<asrwt>0</asrwt>
<pdfrwt beam="1">  1       21 0.39269118E-01 0.21979280E+03</pdfrwt>
<pdfrwt beam="2">  1       21 0.11267819E+00 0.21979280E+03</pdfrwt>
<totfact> 0.37683853E+03</totfact>
</mgrwt>
</event>
<event>
12    2  0.4090627E-002  0.3021908E+03  0.7546771E-02  0.1084233E+00
         21   -1    0    0  503  502  0.00000000000E+00  0.00000000000E+00  0.99793685714E+03  0.99793685714E+03  0.00000000000E+00 0.  1.
         21   -1    0    0  501  503 -0.00000000000E+00 -0.00000000000E+00 -0.15340832940E+03  0.15340832940E+03  0.00000000000E+00 0. -1.
          6    2    1    2  501    0  0.32797963774E+02  0.24475662667E+03  0.78880924494E+03  0.84471257320E+03  0.17417747759E+03 0.  0.
         24    2    3    3    0    0  0.16273957574E+02  0.34948778780E+02  0.20493082002E+03  0.22404480306E+03  0.81933960895E+02 0.  0.
         -6    2    1    2    0  502 -0.32797963774E+02 -0.24475662667E+03  0.55719282799E+02  0.30663261334E+03  0.17302429992E+03 0.  0.
        -24    2    5    5    0    0  0.10241499743E+02 -0.69104953534E+02  0.67537610349E+02  0.12533818827E+03  0.79170384035E+02 0.  0.
          5    1    3    3  501    0  0.16524006199E+02  0.20980784789E+03  0.58387842491E+03  0.62066777014E+03  0.47000000000E+01 0. -1.
        -15    1    4    4    0    0 -0.71920635048E+00  0.36143966327E+01  0.18114644809E+03  0.18119264473E+03  0.17770000000E+01 0.  1.
         16    1    4    4    0    0  0.16993163925E+02  0.31334382148E+02  0.23784371934E+02  0.42852158324E+02  0.00000000000E+00 0. -1.
         -5    1    5    5    0  502 -0.43039463516E+02 -0.17565167313E+03 -0.11818327550E+02  0.18129442507E+03  0.47000000000E+01 0.  1.
         15    1    6    6    0    0  0.21882633671E+02 -0.26741675836E+02 -0.10176753102E+02  0.36065092758E+02  0.17770000000E+01 0. -1.
        -16    1    6    6    0    0 -0.11641133928E+02 -0.42363277697E+02  0.77714363451E+02  0.89273095516E+02  0.00000000000E+00 0.  1.
<mgrwt>
<rscale>  2 0.30202491E+03</rscale>
<asrwt>0</asrwt>
<pdfrwt beam="1">  1       21 0.15352874E+00 0.30219084E+03</pdfrwt>
<pdfrwt beam="2">  1       21 0.23601282E-01 0.30219084E+03</pdfrwt>
<totfact> 0.44023387E+03</totfact>
</mgrwt>
</event>
<event>
12    2  0.4090627E-002  0.1730466E+03  0.7546771E-02  0.1174948E+00
         21   -1    0    0  503  502  0.00000000000E+00  0.00000000000E+00  0.15499598564E+03  0.15499598564E+03  0.00000000000E+00 0. -1.
         21   -1    0    0  501  503 -0.00000000000E+00 -0.00000000000E+00 -0.21489731515E+03  0.21489731515E+03  0.00000000000E+00 0. -1.
          6    2    1    2  501    0  0.23170694618E+01  0.18240409976E+02 -0.90048596024E+02  0.19424025525E+03  0.17112114348E+03 0.  0.
         24    2    3    3    0    0  0.37024433920E+02  0.17759926048E+02  0.10909363578E+02  0.87378514574E+02  0.76352910325E+02 0.  0.
         -6    2    1    2    0  502 -0.23170694618E+01 -0.18240409976E+02  0.30147266512E+02  0.17565304554E+03  0.17206700254E+03 0.  0.
        -24    2    5    5    0    0 -0.24863002922E+02  0.26588051601E+01  0.80940916281E+02  0.11609482893E+03  0.79380975160E+02 0.  0.
          5    1    3    3  501    0 -0.34707364459E+02  0.48048392709E+00 -0.10095795960E+03  0.10686174067E+03  0.47000000000E+01 0. -1.
        -15    1    4    4    0    0  0.60502097836E+02  0.88372199279E+01  0.38582150043E+01  0.61291466377E+02  0.17770000000E+01 0.  1.
         16    1    4    4    0    0 -0.23477663915E+02  0.89227061205E+01  0.70511485741E+01  0.26087048197E+02  0.00000000000E+00 0. -1.
         -5    1    5    5    0  502  0.22545933460E+02 -0.20899215136E+02 -0.50793649769E+02  0.59558216609E+02  0.47000000000E+01 0.  1.
         15    1    6    6    0    0 -0.22290747934E+02  0.39077795448E+02  0.56113509096E+02  0.71943277466E+02  0.17770000000E+01 0. -1.
        -16    1    6    6    0    0 -0.25722549878E+01 -0.36418990288E+02  0.24827407185E+02  0.44151551466E+02  0.00000000000E+00 0.  1.
<mgrwt>
<rscale>  2 0.17281103E+03</rscale>
<asrwt>0</asrwt>
<pdfrwt beam="1">  1       21 0.23845536E-01 0.17304663E+03</pdfrwt>
<pdfrwt beam="2">  1       21 0.33061125E-01 0.17304663E+03</pdfrwt>
<totfact> 0.14693208E+05</totfact>
</mgrwt>
</event>
<event>
12    2  0.4090627E-002  0.1717370E+03  0.7546771E-02  0.1176263E+00
         21   -1    0    0  501  502  0.00000000000E+00  0.00000000000E+00  0.33160835157E+03  0.33160835157E+03  0.00000000000E+00 0. -1.
         21   -1    0    0  502  503 -0.00000000000E+00 -0.00000000000E+00 -0.10248087242E+03  0.10248087242E+03  0.00000000000E+00 0. -1.
         -6    2    1    2    0  503  0.10422137435E+01  0.93889008540E+01  0.19494169471E+03  0.25979964788E+03  0.17147698107E+03 0.  0.
        -24    2    3    3    0    0  0.10673290493E+02  0.39277029512E+02  0.20713274931E+03  0.22578833085E+03  0.80123594106E+02 0.  0.
          6    2    1    2  501    0 -0.10422137435E+01 -0.93889008540E+01  0.34185784444E+02  0.17428957611E+03  0.17064275787E+03 0.  0.
         24    2    5    5    0    0  0.53293727353E+02  0.30152692129E+02  0.35254493673E+02  0.10691625640E+03  0.80242135687E+02 0.  0.
          5    1    5    5  501    0 -0.54335941097E+02 -0.39541592983E+02 -0.10687092291E+01  0.67373319718E+02  0.47000000000E+01 0. -1.
        -15    1    6    6    0    0  0.20709586044E+01  0.30055983454E+02  0.45577374979E+02  0.54663569677E+02  0.17770000000E+01 0.  1.
         16    1    6    6    0    0  0.51222768749E+02  0.96708675131E-01 -0.10322881305E+02  0.52252686718E+02  0.00000000000E+00 0. -1.
         -5    1    3    3    0  503 -0.96310767499E+01 -0.29888128658E+02 -0.12191054604E+02  0.34011317034E+02  0.47000000000E+01 0.  1.
         15    1    4    4    0    0  0.34986500296E+02  0.51644719867E+02  0.15063981706E+03  0.16305442192E+03  0.17770000000E+01 0. -1.
        -16    1    4    4    0    0 -0.24313209803E+02 -0.12367690355E+02  0.56492932251E+02  0.62733908933E+02  0.00000000000E+00 0.  1.
<mgrwt>
<rscale>  2 0.17152837E+03</rscale>
<asrwt>0</asrwt>
<pdfrwt beam="1">  1       21 0.51016669E-01 0.17173699E+03</pdfrwt>
<pdfrwt beam="2">  1       21 0.15766288E-01 0.17173699E+03</pdfrwt>
<totfact> 0.13182737E+05</totfact>
</mgrwt>
</event>
<event>
12    2  0.4090627E-002  0.1935065E+03  0.7546771E-02  0.1158679E+00
         21   -1    0    0  501  502  0.00000000000E+00  0.00000000000E+00  0.16856466983E+04  0.16856466983E+04  0.00000000000E+00 0. -1.
         21   -1    0    0  502  503 -0.00000000000E+00 -0.00000000000E+00 -0.22273040495E+02  0.22273040495E+02  0.00000000000E+00 0.  1.
         -6    2    1    2    0  503 -0.20997862737E+02 -0.37333716662E+02  0.62600613293E+03  0.65523159944E+03  0.18870626326E+03 0.  0.
        -24    2    3    3    0    0 -0.22186409423E+02  0.45516167161E+02  0.45070077261E+03  0.46127393588E+03  0.84133817573E+02 0.  0.
          6    2    1    2  501    0  0.20997862737E+02  0.37333716662E+02  0.10373675248E+04  0.10526881393E+04  0.17374182124E+03 0.  0.
         24    2    5    5    0    0 -0.45098341805E+01  0.16123972321E+02  0.99678904538E+03  0.10000649614E+04  0.79127776381E+02 0.  0.
          5    1    5    5  501    0  0.25507696918E+02  0.21209744342E+02  0.40578479463E+02  0.52623177903E+02  0.47000000000E+01 0. -1.
        -15    1    6    6    0    0  0.34566921055E+02  0.11156291083E+02  0.65593314474E+03  0.65694047139E+03  0.17770000000E+01 0.  1.
         16    1    6    6    0    0 -0.39076755235E+02  0.49676812373E+01  0.34085590065E+03  0.34312449003E+03  0.00000000000E+00 0. -1.
         -5    1    3    3    0  503  0.11885466860E+01 -0.82849883823E+02  0.17530536033E+03  0.19395766355E+03  0.47000000000E+01 0.  1.
         15    1    4    4    0    0 -0.12139233380E+02 -0.12607627990E+02  0.28218730251E+03  0.28273511402E+03  0.17770000000E+01 0. -1.
        -16    1    4    4    0    0 -0.10047176043E+02  0.58123795151E+02  0.16851347009E+03  0.17853882186E+03  0.00000000000E+00 0.  1.
<mgrwt>
<rscale>  2 0.18975837E+03</rscale>
<asrwt>0</asrwt>
<pdfrwt beam="1">  1       21 0.25933016E+00 0.19350651E+03</pdfrwt>
<pdfrwt beam="2">  1       21 0.34266229E-02 0.19350651E+03</pdfrwt>
<totfact> 0.29730354E+04</totfact>
</mgrwt>
</event>
<event>
12    2  0.4090627E-002  0.2217875E+03  0.7546771E-02  0.1132761E+00
         21   -1    0    0  503  502  0.00000000000E+00  0.00000000000E+00  0.12668276793E+03  0.12668276793E+03  0.00000000000E+00 0.  1.
         21   -1    0    0  501  503 -0.00000000000E+00 -0.00000000000E+00 -0.81739300424E+03  0.81739300424E+03  0.00000000000E+00 0.  1.
          6    2    1    2  501    0  0.82343693197E+02 -0.10858247798E+03 -0.68772804195E+03  0.72226819220E+03  0.17358238227E+03 0.  0.
         24    2    3    3    0    0 -0.99041478622E+01 -0.52303209844E+01 -0.23097793955E+03  0.24494851045E+03  0.80768284685E+02 0.  0.
         -6    2    1    2    0  502 -0.82343693197E+02  0.10858247798E+03 -0.29821943552E+01  0.22180757998E+03  0.17498305838E+03 0.  0.
        -24    2    5    5    0    0 -0.12534725813E+03  0.79501815710E+02  0.55262960751E+01  0.16899209054E+03  0.80593504055E+02 0.  0.
          5    1    3    3  501    0  0.92247841059E+02 -0.10335215699E+03 -0.45675010240E+03  0.47731968174E+03  0.47000000000E+01 0. -1.
        -15    1    4    4    0    0 -0.17568047840E+02  0.24268929597E+02 -0.19712524781E+03  0.19939693654E+03  0.17770000000E+01 0.  1.
         16    1    4    4    0    0  0.76638999775E+01 -0.29499250581E+02 -0.33852691744E+02  0.45551573914E+02  0.00000000000E+00 0. -1.
         -5    1    5    5    0  502  0.43003564933E+02  0.29080662269E+02 -0.85084904303E+01  0.52815489436E+02  0.47000000000E+01 0.  1.
         15    1    6    6    0    0 -0.91226871116E+02  0.93751196917E+02  0.12300153273E+02  0.13140045828E+03  0.17770000000E+01 0. -1.
        -16    1    6    6    0    0 -0.34120387015E+02 -0.14249381207E+02 -0.67738571978E+01  0.37591632262E+02  0.00000000000E+00 0.  1.
<mgrwt>
<rscale>  2 0.22151116E+03</rscale>
<asrwt>0</asrwt>
<pdfrwt beam="1">  1       21 0.19489657E-01 0.22178753E+03</pdfrwt>
<pdfrwt beam="2">  1       21 0.12575277E+00 0.22178753E+03</pdfrwt>
<totfact> 0.11156800E+04</totfact>
</mgrwt>
</event>
<event>
12    2  0.4090627E-002  0.2813952E+03  0.7546771E-02  0.1094993E+00
         21   -1    0    0  501  502  0.00000000000E+00  0.00000000000E+00  0.81980880196E+02  0.81980880196E+02  0.00000000000E+00 0.  1.
         21   -1    0    0  502  503 -0.00000000000E+00 -0.00000000000E+00 -0.99876623281E+03  0.99876623281E+03  0.00000000000E+00 0. -1.
         -6    2    1    2    0  503 -0.10352824147E+03  0.19634270151E+03 -0.55917842567E+03  0.62599021871E+03  0.17295863371E+03 0.  0.
        -24    2    3    3    0    0 -0.51517381033E+02  0.12804185346E+03 -0.19656351563E+03  0.25332173543E+03  0.80535266690E+02 0.  0.
          6    2    1    2  501    0  0.10352824147E+03 -0.19634270151E+03 -0.35760692695E+03  0.45475689430E+03  0.17219920294E+03 0.  0.
         24    2    5    5    0    0  0.16470692434E+02 -0.16882523621E+03 -0.20709007272E+03  0.27864999168E+03  0.77371025314E+02 0.  0.
          5    1    5    5  501    0  0.87057549031E+02 -0.27517465300E+02 -0.15051685423E+03  0.17610690261E+03  0.47000000000E+01 0. -1.
        -15    1    6    6    0    0  0.34926022318E+02 -0.16318354251E+03 -0.18097958672E+03  0.24618177048E+03  0.17770000000E+01 0.  1.
         16    1    6    6    0    0 -0.18455329883E+02 -0.56416936981E+01 -0.26110485994E+02  0.32468221198E+02  0.00000000000E+00 0. -1.
         -5    1    3    3    0  503 -0.52010860433E+02  0.68300848046E+02 -0.36261491004E+03  0.37266848328E+03  0.47000000000E+01 0.  1.
         15    1    4    4    0    0 -0.19448294033E+02  0.98405701073E+02 -0.18103771126E+03  0.20697760451E+03  0.17770000000E+01 0. -1.
        -16    1    4    4    0    0 -0.32069087000E+02  0.29636152386E+02 -0.15525804373E+02  0.46344130920E+02  0.00000000000E+00 0.  1.
<mgrwt>
<rscale>  2 0.28127856E+03</rscale>
<asrwt>0</asrwt>
<pdfrwt beam="1">  1       21 0.12612443E-01 0.28139517E+03</pdfrwt>
<pdfrwt beam="2">  1       21 0.15365635E+00 0.28139517E+03</pdfrwt>
<totfact> 0.14260144E+04</totfact>
</mgrwt>
</event>
<event>
12    2  0.4090627E-002  0.2438297E+03  0.7546771E-02  0.1117306E+00
         21   -1    0    0  503  502  0.00000000000E+00  0.00000000000E+00  0.74247836482E+02  0.74247836482E+02  0.00000000000E+00 0.  1.
         21   -1    0    0  501  503 -0.00000000000E+00 -0.00000000000E+00 -0.85183528090E+03  0.85183528090E+03  0.00000000000E+00 0.  1.
          6    2    1    2  501    0  0.16193860216E+03 -0.52432990943E+02 -0.27435140336E+03  0.36688775410E+03  0.17425441793E+03 0.  0.
         24    2    3    3    0    0  0.10480796545E+03  0.37113846716E+02 -0.15568908875E+03  0.20755985103E+03  0.80497528936E+02 0.  0.
         -6    2    1    2    0  502 -0.16193860216E+03  0.52432990943E+02 -0.50323604105E+03  0.55919536328E+03  0.17458411123E+03 0.  0.
        -24    2    5    5    0    0 -0.41927697942E+02  0.57226928635E+02 -0.13557668953E+03  0.17238651161E+03  0.79392804622E+02 0.  0.
          5    1    3    3  501    0  0.57130636716E+02 -0.89546837659E+02 -0.11866231462E+03  0.15932790307E+03  0.47000000000E+01 0. -1.
        -15    1    4    4    0    0  0.29099182782E+02 -0.18322370192E+02 -0.13048932891E+02  0.36822602660E+02  0.17770000000E+01 0.  1.
         16    1    4    4    0    0  0.75708782666E+02  0.55436216909E+02 -0.14264015586E+03  0.17073724837E+03  0.00000000000E+00 0. -1.
         -5    1    5    5    0  502 -0.12001090422E+03 -0.47939376918E+01 -0.36765935152E+03  0.38680885167E+03  0.47000000000E+01 0.  1.
         15    1    6    6    0    0 -0.20899953031E+02 -0.40903244994E+01  0.80265527800E+00  0.21385527249E+02  0.17770000000E+01 0. -1.
        -16    1    6    6    0    0 -0.21027744911E+02  0.61317253134E+02 -0.13637934481E+03  0.15100098436E+03  0.00000000000E+00 0.  1.
<mgrwt>
<rscale>  2 0.24377073E+03</rscale>
<asrwt>0</asrwt>
<pdfrwt beam="1">  1       21 0.11422744E-01 0.24382974E+03</pdfrwt>
<pdfrwt beam="2">  1       21 0.13105158E+00 0.24382974E+03</pdfrwt>
<totfact> 0.26363440E+04</totfact>
</mgrwt>
</event>
<event>
12    2  0.4090627E-002  0.1920466E+03  0.7546771E-02  0.1156710E+00
         21   -1    0    0  501  502  0.00000000000E+00  0.00000000000E+00  0.25985598455E+03  0.25985598455E+03  0.00000000000E+00 0. -1.
         21   -1    0    0  502  503 -0.00000000000E+00 -0.00000000000E+00 -0.14624646989E+03  0.14624646989E+03  0.00000000000E+00 0. -1.
         -6    2    1    2    0  503 -0.82272866605E+02 -0.15838048757E+02  0.20797923251E+02  0.19280479800E+03  0.17239915357E+03 0.  0.
        -24    2    3    3    0    0 -0.83905873662E+02 -0.56735883540E+02 -0.24327776590E+02  0.13170063784E+03  0.80585738056E+02 0.  0.
          6    2    1    2  501    0  0.82272866605E+02  0.15838048757E+02  0.92811591410E+02  0.21329765644E+03  0.17280691646E+03 0.  0.
         24    2    5    5    0    0 -0.22003476094E+02 -0.89064468825E+01  0.55551750692E+02  0.99736080891E+02  0.79358749173E+02 0.  0.
          5    1    5    5  501    0  0.10427634270E+03  0.24744495639E+02  0.37259840718E+02  0.11356157555E+03  0.47000000000E+01 0. -1.
        -15    1    6    6    0    0 -0.19255529669E+02 -0.35069466019E+02  0.20303842628E+01  0.40098915932E+02  0.17770000000E+01 0.  1.
         16    1    6    6    0    0 -0.27479464248E+01  0.26163019136E+02  0.53521366430E+02  0.59637164959E+02  0.00000000000E+00 0. -1.
         -5    1    3    3    0  503  0.16330070576E+01  0.40897834783E+02  0.45125699841E+02  0.61104160154E+02  0.47000000000E+01 0.  1.
         15    1    4    4    0    0  0.36280615072E+01 -0.14457072109E+02 -0.30813156498E+02  0.34275036202E+02  0.17770000000E+01 0. -1.
        -16    1    4    4    0    0 -0.87533935169E+02 -0.42278811431E+02  0.64853799081E+01  0.97425601639E+02  0.00000000000E+00 0.  1.
<mgrwt>
<rscale>  2 0.19195483E+03</rscale>
<asrwt>0</asrwt>
<pdfrwt beam="1">  1       21 0.39977844E-01 0.19204661E+03</pdfrwt>
<pdfrwt beam="2">  1       21 0.22499457E-01 0.19204661E+03</pdfrwt>
<totfact> 0.11160581E+05</totfact>
</mgrwt>
</event>
<event>
12    2  0.4090627E-002  0.2823537E+03  0.7546771E-02  0.1094427E+00
         21   -1    0    0  503  502  0.00000000000E+00  0.00000000000E+00  0.57437849617E+03  0.57437849617E+03  0.00000000000E+00 0.  1.
         21   -1    0    0  501  503 -0.00000000000E+00 -0.00000000000E+00 -0.20059755165E+03  0.20059755165E+03  0.00000000000E+00 0. -1.
          6    2    1    2  501    0  0.16616533719E+03 -0.14917896153E+03 -0.28257676964E+02  0.28376419158E+03  0.17279565466E+03 0.  0.
         24    2    3    3    0    0  0.92099475991E+02 -0.83398409645E+02 -0.83798888285E+02  0.17009911798E+03  0.80460226515E+02 0.  0.
         -6    2    1    2    0  502 -0.16616533719E+03  0.14917896153E+03  0.40203862149E+03  0.49121185624E+03  0.17259418501E+03 0.  0.
        -24    2    5    5    0    0 -0.11506106209E+03  0.13828622230E+03  0.39067095631E+03  0.43753120318E+03  0.80297137985E+02 0.  0.
          5    1    3    3  501    0  0.74065861200E+02 -0.65780551886E+02  0.55541211321E+02  0.11366507360E+03  0.47000000000E+01 0. -1.
        -15    1    4    4    0    0 -0.13045785754E+02 -0.31453455015E+01 -0.17547869320E+02  0.22162381888E+02  0.17770000000E+01 0.  1.
         16    1    4    4    0    0  0.10514526175E+03 -0.80253064144E+02 -0.66251018965E+02  0.14793673609E+03  0.00000000000E+00 0. -1.
         -5    1    5    5    0  502 -0.51104275098E+02  0.10892739227E+02  0.11367665179E+02  0.53680653058E+02  0.47000000000E+01 0.  1.
         15    1    6    6    0    0 -0.50996020270E+02  0.68283241036E+02  0.98127500891E+02  0.12998214974E+03  0.17770000000E+01 0. -1.
        -16    1    6    6    0    0 -0.64065041823E+02  0.70002981267E+02  0.29254345542E+03  0.30754905345E+03  0.00000000000E+00 0.  1.
<mgrwt>
<rscale>  2 0.28232290E+03</rscale>
<asrwt>0</asrwt>
<pdfrwt beam="1">  1       21 0.88365922E-01 0.28235371E+03</pdfrwt>
<pdfrwt beam="2">  1       21 0.30861162E-01 0.28235371E+03</pdfrwt>
<totfact> 0.10485712E+04</totfact>
</mgrwt>
</event>
<event>
12    2  0.4090627E-002  0.1732057E+03  0.7546771E-02  0.1174565E+00
         21   -1    0    0  503  502  0.00000000000E+00  0.00000000000E+00  0.14305229609E+04  0.14305229609E+04  0.00000000000E+00 0. -1.
         21   -1    0    0  501  503 -0.00000000000E+00 -0.00000000000E+00 -0.29051951653E+02  0.29051951653E+02  0.00000000000E+00 0. -1.
          6    2    1    2  501    0  0.14887341921E+02 -0.52271982073E+01  0.31551290347E+03  0.35989076099E+03  0.17240652840E+03 0.  0.
         24    2    3    3    0    0 -0.73658258337E+01 -0.65351580229E+02  0.23494139276E+03  0.25681795600E+03  0.80205486508E+02 0.  0.
         -6    2    1    2    0  502 -0.14887341921E+02  0.52271982073E+01  0.10859581057E+04  0.10996841515E+04  0.17248556216E+03 0.  0.
        -24    2    5    5    0    0 -0.69637633868E+02  0.29506449175E+02  0.77568004701E+03  0.78364358416E+03  0.81839483554E+02 0.  0.
          5    1    3    3  501    0  0.22253167755E+02  0.60124382022E+02  0.80571510715E+02  0.10307280499E+03  0.47000000000E+01 0. -1.
        -15    1    4    4    0    0  0.19886191034E+02 -0.20923268234E+02  0.18830259153E+02  0.34510580062E+02  0.17770000000E+01 0.  1.
         16    1    4    4    0    0 -0.27252016868E+02 -0.44428311996E+02  0.21611113360E+03  0.22230737594E+03  0.00000000000E+00 0. -1.
         -5    1    5    5    0  502  0.54750291947E+02 -0.24279250967E+02  0.31027805872E+03  0.31604056736E+03  0.47000000000E+01 0.  1.
         15    1    6    6    0    0 -0.42518727970E+02  0.48849709534E+02  0.66258855957E+03  0.66574837089E+03  0.17770000000E+01 0. -1.
        -16    1    6    6    0    0 -0.27118905898E+02 -0.19343260360E+02  0.11309148745E+03  0.11789521327E+03  0.00000000000E+00 0.  1.
<mgrwt>
<rscale>  2 0.17318605E+03</rscale>
<asrwt>0</asrwt>
<pdfrwt beam="1">  1       21 0.22008040E+00 0.17320573E+03</pdfrwt>
<pdfrwt beam="2">  1       21 0.44695321E-02 0.17320573E+03</pdfrwt>
<totfact> 0.33163629E+04</totfact>
</mgrwt>
</event>
<event>
12    2  0.4090627E-002  0.1799395E+03  0.7546771E-02  0.1168145E+00
         21   -1    0    0  501  502  0.00000000000E+00  0.00000000000E+00  0.10180390920E+03  0.10180390920E+03  0.00000000000E+00 0.  1.
         21   -1    0    0  502  503 -0.00000000000E+00 -0.00000000000E+00 -0.64891579900E+03  0.64891579900E+03  0.00000000000E+00 0.  1.
         -6    2    1    2    0  503  0.10945555368E+02 -0.47154764253E+02 -0.54198428916E+03  0.57070714544E+03  0.17209386736E+03 0.  0.
        -24    2    3    3    0    0 -0.48094666901E+02 -0.30280687760E+02 -0.44471838511E+03  0.45558447871E+03  0.80949108418E+02 0.  0.
          6    2    1    2  501    0 -0.10945555368E+02  0.47154764253E+02 -0.51276006394E+01  0.18001256276E+03  0.17330566491E+03 0.  0.
         24    2    5    5    0    0  0.50802006696E+02  0.73929221312E+01  0.43433822253E+02  0.91841891316E+02  0.62553472349E+02 0.  0.
          5    1    5    5  501    0 -0.61747562064E+02  0.39761842122E+02 -0.48561422892E+02  0.88170671445E+02  0.47000000000E+01 0. -1.
        -15    1    6    6    0    0  0.15022442854E+02  0.24600070480E+02 -0.49008686186E+01  0.29291867457E+02  0.17770000000E+01 0.  1.
         16    1    6    6    0    0  0.35779563842E+02 -0.17207148349E+02  0.48334690871E+02  0.62550023858E+02  0.00000000000E+00 0. -1.
         -5    1    3    3    0  503  0.59040222269E+02 -0.16874076492E+02 -0.97265904055E+02  0.11512266673E+03  0.47000000000E+01 0.  1.
         15    1    4    4    0    0 -0.28976381313E+02  0.49685315986E+01 -0.44511733361E+02  0.53373861730E+02  0.17770000000E+01 0. -1.
        -16    1    4    4    0    0 -0.19118285588E+02 -0.35249219359E+02 -0.40020665175E+03  0.40221061698E+03  0.00000000000E+00 0.  1.
<mgrwt>
<rscale>  2 0.17964710E+03</rscale>
<asrwt>0</asrwt>
<pdfrwt beam="1">  1       21 0.15662140E-01 0.17993952E+03</pdfrwt>
<pdfrwt beam="2">  1       21 0.99833201E-01 0.17993952E+03</pdfrwt>
<totfact> 0.30098647E+04</totfact>
</mgrwt>
</event>
<event>
12    2  0.4090627E-002  0.1878582E+03  0.7546771E-02  0.1160572E+00
         21   -1    0    0  503  502  0.00000000000E+00  0.00000000000E+00  0.64061194827E+02  0.64061194827E+02  0.00000000000E+00 0.  1.
         21   -1    0    0  501  503 -0.00000000000E+00 -0.00000000000E+00 -0.58437411730E+03  0.58437411730E+03  0.00000000000E+00 0.  1.
          6    2    1    2  501    0 -0.68374329601E+02  0.24591679949E+02 -0.33969251749E+03  0.38783132282E+03  0.17245964412E+03 0.  0.
         24    2    3    3    0    0 -0.31252598090E+02 -0.52907969543E+02 -0.17611886215E+03  0.20299991492E+03  0.80094529940E+02 0.  0.
         -6    2    1    2    0  502  0.68374329601E+02 -0.24591679949E+02 -0.18062040498E+03  0.26060398931E+03  0.17323656911E+03 0.  0.
        -24    2    5    5    0    0  0.91270077848E+02 -0.56837215152E+02 -0.89668663819E+02  0.16131502190E+03  0.80133456703E+02 0.  0.
          5    1    3    3  501    0 -0.37121731511E+02  0.77499649492E+02 -0.16357365535E+03  0.18483140790E+03  0.47000000000E+01 0. -1.
        -15    1    4    4    0    0  0.19923618161E+02 -0.36789776972E+02 -0.45748290958E+02  0.62020174983E+02  0.17770000000E+01 0.  1.
         16    1    4    4    0    0 -0.51176216252E+02 -0.16118192571E+02 -0.13037057119E+03  0.14097973994E+03  0.00000000000E+00 0. -1.
         -5    1    5    5    0  502 -0.22895748247E+02  0.32245535203E+02 -0.90951741160E+02  0.99288967405E+02  0.47000000000E+01 0.  1.
         15    1    6    6    0    0 -0.11651429533E+02 -0.18502819458E+02 -0.46514046818E+01  0.22425508524E+02  0.17770000000E+01 0. -1.
        -16    1    6    6    0    0  0.10292150738E+03 -0.38334395694E+02 -0.85017259137E+02  0.13888951338E+03  0.00000000000E+00 0.  1.
<mgrwt>
<rscale>  2 0.18767890E+03</rscale>
<asrwt>0</asrwt>
<pdfrwt beam="1">  1       21 0.98555682E-02 0.18785821E+03</pdfrwt>
<pdfrwt beam="2">  1       21 0.89903713E-01 0.18785821E+03</pdfrwt>
<totfact> 0.87860755E+04</totfact>
</mgrwt>
</event>
<event>
12    2  0.4090627E-002  0.2367269E+03  0.7546771E-02  0.1122677E+00
         21   -1    0    0  501  502  0.00000000000E+00  0.00000000000E+00  0.11998726888E+03  0.11998726888E+03  0.00000000000E+00 0. -1.
         21   -1    0    0  502  503 -0.00000000000E+00 -0.00000000000E+00 -0.45944425495E+03  0.45944425495E+03  0.00000000000E+00 0. -1.
         -6    2    1    2    0  503  0.10996621834E+03 -0.11089903698E+03 -0.17507659297E+03  0.29122926440E+03  0.17254421305E+03 0.  0.
        -24    2    3    3    0    0  0.72751425884E+02  0.38436861566E+01 -0.10641814813E+03  0.15235196123E+03  0.81109518217E+02 0.  0.
          6    2    1    2  501    0 -0.10996621834E+03  0.11089903698E+03 -0.16438039309E+03  0.28820225943E+03  0.17790014933E+03 0.  0.
         24    2    5    5    0    0 -0.28285699261E+02  0.11946661466E+03 -0.14206091316E+03  0.20296517966E+03  0.77079233949E+02 0.  0.
          5    1    5    5  501    0 -0.81680519075E+02 -0.85675776834E+01 -0.22319479936E+02  0.85237079774E+02  0.47000000000E+01 0. -1.
        -15    1    6    6    0    0  0.19055233738E+02  0.67192105488E+02 -0.45433673915E+02  0.83338211087E+02  0.17770000000E+01 0.  1.
         16    1    6    6    0    0 -0.47340932999E+02  0.52274509171E+02 -0.96627239240E+02  0.11962696857E+03  0.00000000000E+00 0. -1.
         -5    1    3    3    0  503  0.37214792452E+02 -0.11474272313E+03 -0.68658444839E+02  0.13887730317E+03  0.47000000000E+01 0.  1.
         15    1    4    4    0    0  0.17779563565E+02 -0.28896744727E+02 -0.79020990947E+01  0.34881737851E+02  0.17770000000E+01 0. -1.
        -16    1    4    4    0    0  0.54971862319E+02  0.32740430884E+02 -0.98516049040E+02  0.11747022337E+03  0.00000000000E+00 0.  1.
<mgrwt>
<rscale>  2 0.23572097E+03</rscale>
<asrwt>0</asrwt>
<pdfrwt beam="1">  1       21 0.18459580E-01 0.23672691E+03</pdfrwt>
<pdfrwt beam="2">  1       21 0.70683732E-01 0.23672691E+03</pdfrwt>
<totfact> 0.47600677E+04</totfact>
</mgrwt>
</event>
<event>
12    2  0.4090627E-002  0.1935054E+03  0.7546771E-02  0.1155807E+00
         21   -1    0    0  503  502  0.00000000000E+00  0.00000000000E+00  0.40391779068E+03  0.40391779068E+03  0.00000000000E+00 0.  1.
         21   -1    0    0  501  503 -0.00000000000E+00 -0.00000000000E+00 -0.10566013471E+03  0.10566013471E+03  0.00000000000E+00 0.  1.
          6    2    1    2  501    0 -0.28448087008E+02  0.79236265021E+02  0.55769380810E+02  0.19934427098E+03  0.17187272963E+03 0.  0.
         24    2    3    3    0    0  0.10389958127E+02  0.10199523214E+03  0.74117162966E+02  0.15050683202E+03  0.81535109188E+02 0.  0.
         -6    2    1    2    0  502  0.28448087008E+02 -0.79236265021E+02  0.24248827516E+03  0.31023365440E+03  0.17423167733E+03 0.  0.
        -24    2    5    5    0    0 -0.35106940029E+02  0.41309108311E+01  0.11163873055E+03  0.14250464440E+03  0.81208410003E+02 0.  0.
          5    1    3    3  501    0 -0.38838045135E+02 -0.22758967120E+02 -0.18347782157E+02  0.48837438961E+02  0.47000000000E+01 0. -1.
        -15    1    4    4    0    0  0.28800412443E+02  0.55668876231E+02  0.18705838331E+01  0.62730728918E+02  0.17770000000E+01 0.  1.
         16    1    4    4    0    0 -0.18410454315E+02  0.46326355909E+02  0.72246579133E+02  0.87776103105E+02  0.00000000000E+00 0. -1.
         -5    1    5    5    0  502  0.63555027037E+02 -0.83367175852E+02  0.13084954461E+03  0.16772901000E+03  0.47000000000E+01 0.  1.
         15    1    6    6    0    0 -0.37481448091E+02  0.10205939272E+02  0.93327853755E+01  0.39990983475E+02  0.17770000000E+01 0. -1.
        -16    1    6    6    0    0  0.23745080615E+01 -0.60750284407E+01  0.10230594517E+03  0.10251366093E+03  0.00000000000E+00 0.  1.
<mgrwt>
<rscale>  2 0.19297294E+03</rscale>
<asrwt>0</asrwt>
<pdfrwt beam="1">  1       21 0.62141198E-01 0.19350544E+03</pdfrwt>
<pdfrwt beam="2">  1       21 0.16255406E-01 0.19350544E+03</pdfrwt>
<totfact> 0.81359423E+04</totfact>
</mgrwt>
</event>
<event>
12    2  0.4090627E-002  0.1774141E+03  0.7546771E-02  0.1170584E+00
         21   -1    0    0  501  502  0.00000000000E+00  0.00000000000E+00  0.82461689855E+02  0.82461689855E+02  0.00000000000E+00 0.  1.
         21   -1    0    0  502  503 -0.00000000000E+00 -0.00000000000E+00 -0.45400941542E+03  0.45400941542E+03  0.00000000000E+00 0.  1.
         -6    2    1    2    0  503  0.13320233553E+02 -0.33512695912E+02 -0.29489650632E+03  0.34415070831E+03  0.17371019309E+03 0.  0.
        -24    2    3    3    0    0  0.12557559501E+02 -0.81326517658E+02 -0.26140383273E+03  0.28557944910E+03  0.80324113493E+02 0.  0.
          6    2    1    2  501    0 -0.13320233553E+02  0.33512695912E+02 -0.76651219242E+02  0.19232039696E+03  0.17265919108E+03 0.  0.
         24    2    5    5    0    0  0.71560637796E+01 -0.16156300367E+02  0.11370286751E+02  0.89091702008E+02  0.86578361358E+02 0.  0.
          5    1    5    5  501    0 -0.20476297333E+02  0.49668996278E+02 -0.88021505992E+02  0.10322869495E+03  0.47000000000E+01 0. -1.
        -15    1    6    6    0    0 -0.23189697687E+02 -0.42206810634E+02  0.90321905163E+01  0.49029737275E+02  0.17770000000E+01 0.  1.
         16    1    6    6    0    0  0.30345761467E+02  0.26050510268E+02  0.23380962342E+01  0.40061964732E+02  0.00000000000E+00 0. -1.
         -5    1    3    3    0  503  0.76267405212E+00  0.47813821746E+02 -0.33492673593E+02  0.58571259215E+02  0.47000000000E+01 0.  1.
         15    1    4    4    0    0 -0.18368420013E+02 -0.25321964195E+02 -0.23343944605E+02  0.39072985593E+02  0.17770000000E+01 0. -1.
        -16    1    4    4    0    0  0.30925979514E+02 -0.56004553463E+02 -0.23805988812E+03  0.24650646350E+03  0.00000000000E+00 0.  1.
<mgrwt>
<rscale>  2 0.17715630E+03</rscale>
<asrwt>0</asrwt>
<pdfrwt beam="1">  1       21 0.12686414E-01 0.17741409E+03</pdfrwt>
<pdfrwt beam="2">  1       21 0.69847604E-01 0.17741409E+03</pdfrwt>
<totfact> 0.99476915E+04</totfact>
</mgrwt>
</event>
<event>
12    2  0.4090627E-002  0.1844217E+03  0.7546771E-02  0.1164645E+00
         21   -1    0    0  501  502  0.00000000000E+00  0.00000000000E+00  0.14900603008E+03  0.14900603008E+03  0.00000000000E+00 0. -1.
         21   -1    0    0  502  503 -0.00000000000E+00 -0.00000000000E+00 -0.22347354759E+03  0.22347354759E+03  0.00000000000E+00 0. -1.
         -6    2    1    2    0  503  0.17156858503E+02 -0.55908668202E+02 -0.47049854971E+02  0.18603095183E+03  0.17021659500E+03 0.  0.
        -24    2    3    3    0    0  0.65356158115E+01 -0.69302365751E+02  0.28667164222E+02  0.10826618522E+03  0.77808922274E+02 0.  0.
          6    2    1    2  501    0 -0.17156858503E+02  0.55908668202E+02 -0.27417662533E+02  0.18644862584E+03  0.17490347305E+03 0.  0.
         24    2    5    5    0    0  0.40203283333E+02  0.61111379843E+02  0.21622648985E+02  0.11065749025E+03  0.80166305032E+02 0.  0.
          5    1    5    5  501    0 -0.57360141836E+02 -0.52027116411E+01 -0.49040311518E+02  0.75791135587E+02  0.47000000000E+01 0. -1.
        -15    1    6    6    0    0  0.34454578480E+02 -0.10466027174E+02  0.15031045859E+01  0.36084245253E+02  0.17770000000E+01 0.  1.
         16    1    6    6    0    0  0.57487048528E+01  0.71577407017E+02  0.20119544399E+02  0.74573244998E+02  0.00000000000E+00 0. -1.
         -5    1    3    3    0  503  0.10621242691E+02  0.13393697550E+02 -0.75717019193E+02  0.77764766610E+02  0.47000000000E+01 0.  1.
         15    1    4    4    0    0 -0.27752071306E+02 -0.38044363498E+02  0.38483899220E+02  0.60841756088E+02  0.17770000000E+01 0. -1.
        -16    1    4    4    0    0  0.34287687118E+02 -0.31258002254E+02 -0.98167349977E+01  0.47424429135E+02  0.00000000000E+00 0.  1.
<mgrwt>
<rscale>  2 0.18330183E+03</rscale>
<asrwt>0</asrwt>
<pdfrwt beam="1">  1       21 0.22924005E-01 0.18442170E+03</pdfrwt>
<pdfrwt beam="2">  1       21 0.34380546E-01 0.18442170E+03</pdfrwt>
<totfact> 0.14600077E+05</totfact>
</mgrwt>
</event>
<event>
12    2  0.4090627E-002  0.2281726E+03  0.7546771E-02  0.1128000E+00
         21   -1    0    0  503  502  0.00000000000E+00  0.00000000000E+00  0.28095713065E+02  0.28095713065E+02  0.00000000000E+00 0.  1.
         21   -1    0    0  501  503 -0.00000000000E+00 -0.00000000000E+00 -0.18519685711E+04  0.18519685711E+04  0.00000000000E+00 0.  1.
          6    2    1    2  501    0  0.67534396900E+02 -0.13470010211E+03 -0.88168509663E+03  0.91073121783E+03  0.17134097361E+03 0.  0.
         24    2    3    3    0    0 -0.85997968981E+01 -0.41433964024E+02 -0.21250849332E+03  0.23079415869E+03  0.79469202017E+02 0.  0.
         -6    2    1    2    0  502 -0.67534396900E+02  0.13470010211E+03 -0.94218776140E+03  0.96933306633E+03  0.17083267684E+03 0.  0.
        -24    2    5    5    0    0 -0.96234440015E+02  0.42936009612E+02 -0.56267476419E+03  0.57780203793E+03  0.78407502305E+02 0.  0.
          5    1    3    3  501    0  0.76134193798E+02 -0.93266138081E+02 -0.66917660331E+03  0.67993705914E+03  0.47000000000E+01 0. -1.
        -15    1    4    4    0    0  0.78642234144E+01 -0.61647422716E+02 -0.12703050629E+03  0.14142898569E+03  0.17770000000E+01 0.  1.
         16    1    4    4    0    0 -0.16464020312E+02  0.20213458691E+02 -0.85477987031E+02  0.89365172993E+02  0.00000000000E+00 0. -1.
         -5    1    5    5    0  502  0.28700043115E+02  0.91764092493E+02 -0.37951299721E+03  0.39153102840E+03  0.47000000000E+01 0.  1.
         15    1    6    6    0    0 -0.38296697777E+02 -0.21446096601E+02 -0.22069681155E+03  0.22502624842E+03  0.17770000000E+01 0. -1.
        -16    1    6    6    0    0 -0.57937742238E+02  0.64382106213E+02 -0.34197795264E+03  0.35277578951E+03  0.00000000000E+00 0.  1.
<mgrwt>
<rscale>  2 0.22807719E+03</rscale>
<asrwt>0</asrwt>
<pdfrwt beam="1">  1       21 0.43224155E-02 0.22817261E+03</pdfrwt>
<pdfrwt beam="2">  1       21 0.28491837E+00 0.22817261E+03</pdfrwt>
<totfact> 0.13871018E+04</totfact>
</mgrwt>
</event>
<event>
12    2  0.4090627E-002  0.1780794E+03  0.7546771E-02  0.1170535E+00
         21   -1    0    0  501  502  0.00000000000E+00  0.00000000000E+00  0.65057695139E+02  0.65057695139E+02  0.00000000000E+00 0.  1.
         21   -1    0    0  502  503 -0.00000000000E+00 -0.00000000000E+00 -0.50891715001E+03  0.50891715001E+03  0.00000000000E+00 0.  1.
         -6    2    1    2    0  503  0.24635414447E+02  0.14823874633E+02 -0.14915146903E+03  0.22964204451E+03  0.17222850226E+03 0.  0.
        -24    2    3    3    0    0  0.78882475602E+02 -0.10494492604E+02 -0.10968251883E+03  0.15778349323E+03  0.80825716605E+02 0.  0.
          6    2    1    2  501    0 -0.24635414447E+02 -0.14823874633E+02 -0.29470798584E+03  0.34433280063E+03  0.17574307887E+03 0.  0.
         24    2    5    5    0    0 -0.50412974158E+02  0.32416769097E+02 -0.26340542428E+03  0.28189802374E+03  0.80571479883E+02 0.  0.
          5    1    5    5  501    0  0.25777559711E+02 -0.47240643730E+02 -0.31302561565E+02  0.62434776889E+02  0.47000000000E+01 0. -1.
        -15    1    6    6    0    0  0.14217770542E+02 -0.11544454069E+01 -0.82973211206E+01  0.16597620617E+02  0.17770000000E+01 0.  1.
         16    1    6    6    0    0 -0.64630744700E+02  0.33571214504E+02 -0.25510810315E+03  0.26530040313E+03  0.00000000000E+00 0. -1.
         -5    1    3    3    0  503 -0.54247061155E+02  0.25318367237E+02 -0.39468950193E+02  0.71858551286E+02  0.47000000000E+01 0.  1.
         15    1    4    4    0    0  0.66579303323E+02  0.28111475762E+02 -0.62250760164E+02  0.95401119336E+02  0.17770000000E+01 0. -1.
        -16    1    4    4    0    0  0.12303172279E+02 -0.38605968367E+02 -0.47431758670E+02  0.62382373890E+02  0.00000000000E+00 0.  1.
<mgrwt>
<rscale>  2 0.17720613E+03</rscale>
<asrwt>0</asrwt>
<pdfrwt beam="1">  1       21 0.10008876E-01 0.17807942E+03</pdfrwt>
<pdfrwt beam="2">  1       21 0.78294946E-01 0.17807942E+03</pdfrwt>
<totfact> 0.11761505E+05</totfact>
</mgrwt>
</event>
<event>
12    2  0.4090627E-002  0.2006241E+03  0.7546771E-02  0.1150353E+00
         21   -1    0    0  503  502  0.00000000000E+00  0.00000000000E+00  0.69265120715E+02  0.69265120715E+02  0.00000000000E+00 0. -1.
         21   -1    0    0  501  503 -0.00000000000E+00 -0.00000000000E+00 -0.56608479301E+03  0.56608479301E+03  0.00000000000E+00 0. -1.
          6    2    1    2  501    0  0.19754301648E+02 -0.89808787131E+02 -0.25318037299E+03  0.31973917141E+03  0.17227009546E+03 0.  0.
         24    2    3    3    0    0 -0.26386741099E+02 -0.93794407275E+01 -0.18771357943E+03  0.20613518095E+03  0.80443091139E+02 0.  0.
         -6    2    1    2    0  502 -0.19754301648E+02  0.89808787131E+02 -0.24363929930E+03  0.31561074231E+03  0.17830923088E+03 0.  0.
        -24    2    5    5    0    0 -0.75785004214E+02  0.81807203338E+02 -0.20907046130E+03  0.24912345379E+03  0.76917176632E+02 0.  0.
          5    1    3    3  501    0  0.46141042747E+02 -0.80429346404E+02 -0.65466793566E+02  0.11360399046E+03  0.47000000000E+01 0. -1.
        -15    1    4    4    0    0 -0.30701691557E+02  0.19144360166E+02 -0.33811716103E+02  0.49552903703E+02  0.17770000000E+01 0.  1.
         16    1    4    4    0    0  0.43149504573E+01 -0.28523800893E+02 -0.15390186332E+03  0.15658227725E+03  0.00000000000E+00 0. -1.
         -5    1    5    5    0  502  0.56030702567E+02  0.80015837936E+01 -0.34568838005E+02  0.66487288517E+02  0.47000000000E+01 0.  1.
         15    1    6    6    0    0 -0.43376247815E+02  0.78559754436E+02 -0.95864900102E+02  0.13132543810E+03  0.17770000000E+01 0. -1.
        -16    1    6    6    0    0 -0.32408756400E+02  0.32474489018E+01 -0.11320556120E+03  0.11779801569E+03  0.00000000000E+00 0.  1.
<mgrwt>
<rscale>  2 0.19927358E+03</rscale>
<asrwt>0</asrwt>
<pdfrwt beam="1">  1       21 0.10656173E-01 0.20062411E+03</pdfrwt>
<pdfrwt beam="2">  1       21 0.87089966E-01 0.20062411E+03</pdfrwt>
<totfact> 0.81885637E+04</totfact>
</mgrwt>
</event>
<event>
12    2  0.4090627E-002  0.2139681E+03  0.7546771E-02  0.1138473E+00
         21   -1    0    0  501  502  0.00000000000E+00  0.00000000000E+00  0.64336085151E+03  0.64336085151E+03  0.00000000000E+00 0.  1.
         21   -1    0    0  502  503 -0.00000000000E+00 -0.00000000000E+00 -0.16825884292E+03  0.16825884292E+03  0.00000000000E+00 0.  1.
         -6    2    1    2    0  503  0.11764948861E+03 -0.42352258632E+02 -0.70741078240E+02  0.22535896305E+03  0.17362962332E+03 0.  0.
        -24    2    3    3    0    0  0.13357377054E+03 -0.73324421767E+02 -0.34281901619E+02  0.17472084298E+03  0.78317949345E+02 0.  0.
          6    2    1    2  501    0 -0.11764948861E+03  0.42352258632E+02  0.54584308684E+03  0.58626073138E+03  0.17355648570E+03 0.  0.
         24    2    5    5    0    0 -0.35402227939E+02  0.79911575926E+02  0.32376001929E+03  0.34643101450E+03  0.86917892358E+02 0.  0.
          5    1    5    5  501    0 -0.82247260669E+02 -0.37559317294E+02  0.22208306755E+03  0.23982971688E+03  0.47000000000E+01 0. -1.
        -15    1    6    6    0    0  0.13950997547E+02  0.29387020553E+01  0.56461621862E+01  0.15437071573E+02  0.17770000000E+01 0.  1.
         16    1    6    6    0    0 -0.49353225486E+02  0.76972873871E+02  0.31811385710E+03  0.33099394293E+03  0.00000000000E+00 0. -1.
         -5    1    3    3    0  503 -0.15924281931E+02  0.30972163135E+02 -0.36459176621E+02  0.50638120069E+02  0.47000000000E+01 0.  1.
         15    1    4    4    0    0  0.78768903085E+02 -0.72645769140E+02 -0.49192926779E+02  0.11791967453E+03  0.17770000000E+01 0. -1.
        -16    1    4    4    0    0  0.54804867454E+02 -0.67865262671E+00  0.14911025159E+02  0.56801168450E+02  0.00000000000E+00 0.  1.
<mgrwt>
<rscale>  2 0.21395330E+03</rscale>
<asrwt>0</asrwt>
<pdfrwt beam="1">  1       21 0.98978592E-01 0.21396813E+03</pdfrwt>
<pdfrwt beam="2">  1       21 0.25885976E-01 0.21396813E+03</pdfrwt>
<totfact> 0.11750385E+04</totfact>
</mgrwt>
</event>
<event>
12    2  0.4090627E-002  0.1958039E+03  0.7546771E-02  0.1154279E+00
         21   -1    0    0  503  502  0.00000000000E+00  0.00000000000E+00  0.29259221723E+03  0.29259221723E+03  0.00000000000E+00 0. -1.
         21   -1    0    0  501  503 -0.00000000000E+00 -0.00000000000E+00 -0.13407177895E+03  0.13407177895E+03  0.00000000000E+00 0. -1.
          6    2    1    2  501    0 -0.22635407869E+02 -0.83398295958E+02  0.35277627095E+02  0.19895649524E+03  0.17570298394E+03 0.  0.
         24    2    3    3    0    0 -0.24636711671E+02 -0.27475319560E+02  0.86744176710E+02  0.12278379517E+03  0.78673041230E+02 0.  0.
         -6    2    1    2    0  502  0.22635407869E+02  0.83398295958E+02  0.12324281119E+03  0.22770750094E+03  0.17086333140E+03 0.  0.
        -24    2    5    5    0    0 -0.42674026269E+02  0.37489674369E+02  0.26362816973E+02  0.10208605769E+03  0.80622682010E+02 0.  0.
          5    1    3    3  501    0  0.20013038024E+01 -0.55922976398E+02 -0.51466549615E+02  0.76172700066E+02  0.47000000000E+01 0. -1.
        -15    1    4    4    0    0 -0.41507730732E+02  0.12600814476E+02  0.43651967444E+02  0.61565609123E+02  0.17770000000E+01 0.  1.
         16    1    4    4    0    0  0.16871019061E+02 -0.40076134036E+02  0.43092209266E+02  0.61218186047E+02  0.00000000000E+00 0. -1.
         -5    1    5    5    0  502  0.65309434138E+02  0.45908621588E+02  0.96879994214E+02  0.12562144324E+03  0.47000000000E+01 0.  1.
         15    1    6    6    0    0  0.20860524476E+02  0.23325843448E+02  0.18811698397E+02  0.36555357740E+02  0.17770000000E+01 0. -1.
        -16    1    6    6    0    0 -0.63534550745E+02  0.14163830922E+02  0.75511185763E+01  0.65530699954E+02  0.00000000000E+00 0.  1.
<mgrwt>
<rscale>  2 0.19471210E+03</rscale>
<asrwt>0</asrwt>
<pdfrwt beam="1">  1       21 0.45014187E-01 0.19580392E+03</pdfrwt>
<pdfrwt beam="2">  1       21 0.20626428E-01 0.19580392E+03</pdfrwt>
<totfact> 0.10305791E+05</totfact>
</mgrwt>
</event>
<event>
12    2  0.4090627E-002  0.2242554E+03  0.7546771E-02  0.1131360E+00
         21   -1    0    0  503  502  0.00000000000E+00  0.00000000000E+00  0.46209135902E+02  0.46209135902E+02  0.00000000000E+00 0.  1.
         21   -1    0    0  501  503 -0.00000000000E+00 -0.00000000000E+00 -0.21408272551E+04  0.21408272551E+04  0.00000000000E+00 0. -1.
          6    2    1    2  501    0 -0.54145416221E+02  0.12674711427E+03 -0.18238053614E+04  0.18375408839E+04  0.17690095176E+03 0.  0.
         24    2    3    3    0    0 -0.61269142108E+02  0.57682110822E+01 -0.84361055874E+03  0.84987161557E+03  0.82557907532E+02 0.  0.
         -6    2    1    2    0  502  0.54145416221E+02 -0.12674711427E+03 -0.27081275779E+03  0.34949550707E+03  0.17265863027E+03 0.  0.
        -24    2    5    5    0    0  0.29017647263E+02 -0.49141680094E+02 -0.24440643445E+03  0.26362704895E+03  0.80670856964E+02 0.  0.
          5    1    3    3  501    0  0.71237258864E+01  0.12097890319E+03 -0.98019480266E+03  0.98766926835E+03  0.47000000000E+01 0. -1.
        -15    1    4    4    0    0 -0.29934120392E+02 -0.76255565354E+01 -0.84336261375E+02  0.89832974947E+02  0.17770000000E+01 0.  1.
         16    1    4    4    0    0 -0.31335021715E+02  0.13393767618E+02 -0.75927429737E+03  0.76003864063E+03  0.00000000000E+00 0. -1.
         -5    1    5    5    0  502  0.25127768959E+02 -0.77605434180E+02 -0.26406323334E+02  0.85868458116E+02  0.47000000000E+01 0.  1.
         15    1    6    6    0    0  0.39013487730E+02 -0.92944439358E+01 -0.46186492688E+02  0.61194679089E+02  0.17770000000E+01 0. -1.
        -16    1    6    6    0    0 -0.99958404677E+01 -0.39847236158E+02 -0.19821994177E+03  0.20243236987E+03  0.00000000000E+00 0.  1.
<mgrwt>
<rscale>  2 0.22341799E+03</rscale>
<asrwt>0</asrwt>
<pdfrwt beam="1">  1       21 0.71090980E-02 0.22425544E+03</pdfrwt>
<pdfrwt beam="2">  1       21 0.32935803E+00 0.22425544E+03</pdfrwt>
<totfact> 0.32757923E+03</totfact>
</mgrwt>
</event>
<event>
12    2  0.4090627E-002  0.2020177E+03  0.7546771E-02  0.1148593E+00
         21   -1    0    0  503  502  0.00000000000E+00  0.00000000000E+00  0.31620320918E+02  0.31620320918E+02  0.00000000000E+00 0. -1.
         21   -1    0    0  501  503 -0.00000000000E+00 -0.00000000000E+00 -0.25110345363E+04  0.25110345363E+04  0.00000000000E+00 0.  1.
          6    2    1    2  501    0 -0.87919043850E+02  0.36507514380E+02 -0.21279099744E+04  0.21372336208E+04  0.17522595110E+03 0.  0.
         24    2    3    3    0    0 -0.11379189441E+03 -0.45768898915E+00 -0.19021388130E+04  0.19069500175E+04  0.73331442508E+02 0.  0.
         -6    2    1    2    0  502  0.87919043850E+02 -0.36507514380E+02 -0.35150424094E+03  0.40542123636E+03  0.17818134193E+03 0.  0.
        -24    2    5    5    0    0  0.48950255569E+02  0.50192309096E+01 -0.68866871713E+02  0.11706553671E+03  0.80872576728E+02 0.  0.
          5    1    3    3  501    0  0.25872850563E+02  0.36965203369E+02 -0.22577116139E+03  0.23028360335E+03  0.47000000000E+01 0. -1.
        -15    1    4    4    0    0 -0.10899837824E+03  0.13318545334E+02 -0.12988076267E+04  0.13034425339E+04  0.17770000000E+01 0.  1.
         16    1    4    4    0    0 -0.47935161695E+01 -0.13776234323E+02 -0.60333118630E+03  0.60350748363E+03  0.00000000000E+00 0. -1.
         -5    1    5    5    0  502  0.38968788281E+02 -0.41526745289E+02 -0.28263736923E+03  0.28835569965E+03  0.47000000000E+01 0.  1.
         15    1    6    6    0    0  0.36738420174E+02  0.13207062984E+02 -0.86015275166E+02  0.94477104742E+02  0.17770000000E+01 0. -1.
        -16    1    6    6    0    0  0.12211835395E+02 -0.81878320739E+01  0.17148403453E+02  0.22588431968E+02  0.00000000000E+00 0.  1.
<mgrwt>
<rscale>  2 0.20136407E+03</rscale>
<asrwt>0</asrwt>
<pdfrwt beam="1">  1       21 0.48646660E-02 0.20201769E+03</pdfrwt>
<pdfrwt beam="2">  1       21 0.38631291E+00 0.20201769E+03</pdfrwt>
<totfact> 0.29442373E+03</totfact>
</mgrwt>
</event>
<event>
12    2  0.4090627E-002  0.1882554E+03  0.7546771E-02  0.1160271E+00
         21   -1    0    0  503  502  0.00000000000E+00  0.00000000000E+00  0.19842033645E+03  0.19842033645E+03  0.00000000000E+00 0.  1.
         21   -1    0    0  501  503 -0.00000000000E+00 -0.00000000000E+00 -0.17771533862E+03  0.17771533862E+03  0.00000000000E+00 0. -1.
          6    2    1    2  501    0  0.28024398744E+02 -0.68597391472E+02  0.74479503342E+01  0.18840269423E+03  0.17305818151E+03 0.  0.
         24    2    3    3    0    0 -0.34865452168E+02 -0.81021879275E+02 -0.15686070131E+02  0.12008890245E+03  0.79969663118E+02 0.  0.
         -6    2    1    2    0  502 -0.28024398744E+02  0.68597391472E+02  0.13257047489E+02  0.18773298083E+03  0.17197951548E+03 0.  0.
        -24    2    5    5    0    0  0.46214720576E+01  0.23115284554E+02  0.69878293115E+02  0.10796813653E+03  0.78857265193E+02 0.  0.
          5    1    3    3  501    0  0.62889850913E+02  0.12424487803E+02  0.23134020465E+02  0.68313791784E+02  0.47000000000E+01 0. -1.
        -15    1    4    4    0    0 -0.40120121727E+02 -0.30404555755E+01  0.47545445012E+00  0.40277193589E+02  0.17770000000E+01 0.  1.
         16    1    4    4    0    0  0.52546695591E+01 -0.77981423700E+02 -0.16161524581E+02  0.79811708860E+02  0.00000000000E+00 0. -1.
         -5    1    5    5    0  502 -0.32645870802E+02  0.45482106918E+02 -0.56621245626E+02  0.79764844301E+02  0.47000000000E+01 0.  1.
         15    1    6    6    0    0 -0.15369933202E+02  0.14065063521E+02 -0.11375067594E+02  0.23803586920E+02  0.17770000000E+01 0. -1.
        -16    1    6    6    0    0  0.19991405260E+02  0.90502210322E+01  0.81253360709E+02  0.84164549613E+02  0.00000000000E+00 0.  1.
<mgrwt>
<rscale>  2 0.18800715E+03</rscale>
<asrwt>0</asrwt>
<pdfrwt beam="1">  1       21 0.30526206E-01 0.18825542E+03</pdfrwt>
<pdfrwt beam="2">  1       21 0.27340821E-01 0.18825542E+03</pdfrwt>
<totfact> 0.13160573E+05</totfact>
</mgrwt>
</event>
<event>
12    2  0.4090627E-002  0.2136952E+03  0.7546771E-02  0.1139031E+00
         21   -1    0    0  501  502  0.00000000000E+00  0.00000000000E+00  0.55663270079E+03  0.55663270079E+03  0.00000000000E+00 0.  1.
         21   -1    0    0  502  503 -0.00000000000E+00 -0.00000000000E+00 -0.28332533818E+03  0.28332533818E+03  0.00000000000E+00 0.  1.
         -6    2    1    2    0  503  0.49287629368E+02 -0.11665893748E+03 -0.21812546779E+03  0.30407385401E+03  0.16983406870E+03 0.  0.
        -24    2    3    3    0    0 -0.19075370765E+02 -0.38534396295E+02 -0.34480268548E+02  0.93065340136E+02  0.74989993652E+02 0.  0.
          6    2    1    2  501    0 -0.49287629368E+02  0.11665893748E+03  0.49143283040E+03  0.53588418497E+03  0.17212511381E+03 0.  0.
         24    2    5    5    0    0 -0.87940424813E+02  0.39947674345E+02  0.32626588731E+03  0.34965619143E+03  0.80502720340E+02 0.  0.
          5    1    5    5  501    0  0.38652795445E+02  0.76711263137E+02  0.16516694308E+03  0.18622799353E+03  0.47000000000E+01 0. -1.
        -15    1    6    6    0    0 -0.42128718253E+02  0.17416114740E+02  0.26940003057E+03  0.27323558361E+03  0.17770000000E+01 0.  1.
         16    1    6    6    0    0 -0.45811706560E+02  0.22531559605E+02  0.56865856746E+02  0.76420607821E+02  0.00000000000E+00 0. -1.
         -5    1    3    3    0  503  0.68363000132E+02 -0.78124541187E+02 -0.18364519924E+03  0.21100851387E+03  0.47000000000E+01 0.  1.
         15    1    4    4    0    0 -0.10401820602E+02  0.68102513190E+00 -0.49174433118E+02  0.50298551357E+02  0.17770000000E+01 0. -1.
        -16    1    4    4    0    0 -0.86735501623E+01 -0.39215421427E+02  0.14694164570E+02  0.42766788779E+02  0.00000000000E+00 0.  1.
<mgrwt>
<rscale>  2 0.21323344E+03</rscale>
<asrwt>0</asrwt>
<pdfrwt beam="1">  1       21 0.85635800E-01 0.21369519E+03</pdfrwt>
<pdfrwt beam="2">  1       21 0.43588514E-01 0.21369519E+03</pdfrwt>
<totfact> 0.58657923E+03</totfact>
</mgrwt>
</event>
<event>
12    2  0.4090627E-002  0.2389477E+03  0.7546771E-02  0.1120580E+00
         21   -1    0    0  501  502  0.00000000000E+00  0.00000000000E+00  0.21717832168E+03  0.21717832168E+03  0.00000000000E+00 0. -1.
         21   -1    0    0  502  503 -0.00000000000E+00 -0.00000000000E+00 -0.36474660370E+03  0.36474660370E+03  0.00000000000E+00 0.  1.
         -6    2    1    2    0  503  0.13497924875E+03 -0.95227134252E+02 -0.22800894349E+03  0.33027882159E+03  0.17265114246E+03 0.  0.
        -24    2    3    3    0    0  0.16195014904E+03 -0.55333386766E+02 -0.19566971177E+03  0.27208211671E+03  0.80326880090E+02 0.  0.
          6    2    1    2  501    0 -0.13497924875E+03  0.95227134252E+02  0.80440661471E+02  0.25164610379E+03  0.17195190270E+03 0.  0.
         24    2    5    5    0    0 -0.22413196095E+02  0.12302678401E+02  0.72692134735E+02  0.11154003235E+03  0.80643196295E+02 0.  0.
          5    1    5    5  501    0 -0.11256605265E+03  0.82924455851E+02  0.77485267359E+01  0.14010607144E+03  0.47000000000E+01 0. -1.
        -15    1    6    6    0    0  0.20937080373E+02  0.27247501982E+02  0.49145553385E+02  0.59993590035E+02  0.17770000000E+01 0.  1.
         16    1    6    6    0    0 -0.43350276468E+02 -0.14944823581E+02  0.23546581351E+02  0.51546442312E+02  0.00000000000E+00 0. -1.
         -5    1    3    3    0  503 -0.26970900291E+02 -0.39893747486E+02 -0.32339231713E+02  0.58196704879E+02  0.47000000000E+01 0.  1.
         15    1    4    4    0    0 -0.12787981957E+01 -0.19558938756E+02 -0.92993070443E+01  0.21767458524E+02  0.17770000000E+01 0. -1.
        -16    1    4    4    0    0  0.16322894724E+03 -0.35774448010E+02 -0.18637040473E+03  0.25031465819E+03  0.00000000000E+00 0.  1.
<mgrwt>
<rscale>  2 0.23882145E+03</rscale>
<asrwt>0</asrwt>
<pdfrwt beam="1">  1       21 0.33412050E-01 0.23894774E+03</pdfrwt>
<pdfrwt beam="2">  1       21 0.56114862E-01 0.23894774E+03</pdfrwt>
<totfact> 0.25159450E+04</totfact>
</mgrwt>
</event>
<event>
12    2  0.4090627E-002  0.2191858E+03  0.7546771E-02  0.1134498E+00
         21   -1    0    0  501  502  0.00000000000E+00  0.00000000000E+00  0.74741874613E+03  0.74741874613E+03  0.00000000000E+00 0. -1.
         21   -1    0    0  502  503 -0.00000000000E+00 -0.00000000000E+00 -0.64274516503E+02  0.64274516503E+02  0.00000000000E+00 0.  1.
         -6    2    1    2    0  503  0.34906636737E+02 -0.12964542456E+03  0.33724614201E+03  0.40219613163E+03  0.17320611593E+03 0.  0.
        -24    2    3    3    0    0  0.23972710930E+02 -0.11580347051E+03  0.35094463290E+03  0.37937313712E+03  0.82320757717E+02 0.  0.
          6    2    1    2  501    0 -0.34906636737E+02  0.12964542456E+03  0.34589808762E+03  0.40949713100E+03  0.17325127383E+03 0.  0.
         24    2    5    5    0    0 -0.30224882288E+02  0.11008901730E+03  0.12179554495E+03  0.18444511142E+03  0.78439206509E+02 0.  0.
          5    1    5    5  501    0 -0.46817544488E+01  0.19556407267E+02  0.22410254267E+03  0.22505201958E+03  0.47000000000E+01 0. -1.
        -15    1    6    6    0    0 -0.39366132866E+02  0.23089525500E+02  0.67455503063E+02  0.81463005267E+02  0.17770000000E+01 0.  1.
         16    1    6    6    0    0  0.91412505780E+01  0.86999491798E+02  0.54340041886E+02  0.10298210615E+03  0.00000000000E+00 0. -1.
         -5    1    3    3    0  503  0.10933925807E+02 -0.13841954056E+02 -0.13698490894E+02  0.22822994510E+02  0.47000000000E+01 0.  1.
         15    1    4    4    0    0  0.27856111197E+02 -0.39883505452E+01  0.40216318085E+02  0.49115983553E+02  0.17770000000E+01 0. -1.
        -16    1    4    4    0    0 -0.38834002671E+01 -0.11181511996E+03  0.31072831482E+03  0.33025715356E+03  0.00000000000E+00 0.  1.
<mgrwt>
<rscale>  2 0.21917687E+03</rscale>
<asrwt>0</asrwt>
<pdfrwt beam="1">  1       21 0.11498749E+00 0.21918580E+03</pdfrwt>
<pdfrwt beam="2">  1       21 0.98883877E-02 0.21918580E+03</pdfrwt>
<totfact> 0.47875998E+04</totfact>
</mgrwt>
</event>
<event>
12    2  0.4090627E-002  0.3420702E+03  0.7546771E-02  0.1066137E+00
         21   -1    0    0  501  502  0.00000000000E+00  0.00000000000E+00  0.23243345264E+03  0.23243345264E+03  0.00000000000E+00 0.  1.
         21   -1    0    0  502  503 -0.00000000000E+00 -0.00000000000E+00 -0.60685901457E+03  0.60685901457E+03  0.00000000000E+00 0. -1.
         -6    2    1    2    0  503  0.29461657586E+03  0.12006779585E+02 -0.11905165853E+02  0.34227734572E+03  0.17340403368E+03 0.  0.
        -24    2    3    3    0    0  0.58650749419E+02 -0.24294770057E+02  0.71906259790E+01  0.10272690632E+03  0.80442314240E+02 0.  0.
          6    2    1    2  501    0 -0.29461657586E+03 -0.12006779585E+02 -0.36252039607E+03  0.49701512149E+03  0.16929236219E+03 0.  0.
         24    2    5    5    0    0 -0.19891958965E+03  0.19369367170E+02 -0.32365138649E+03  0.38896297824E+03  0.81226860908E+02 0.  0.
          5    1    5    5  501    0 -0.95696986209E+02 -0.31376146755E+02 -0.38869009577E+02  0.10805214325E+03  0.47000000000E+01 0. -1.
        -15    1    6    6    0    0 -0.43848381442E+01  0.12670310798E+02 -0.58449333792E+02  0.59993715762E+02  0.17770000000E+01 0.  1.
         16    1    6    6    0    0 -0.19453475150E+03  0.66990563725E+01 -0.26520205270E+03  0.32896926248E+03  0.00000000000E+00 0. -1.
         -5    1    3    3    0  503  0.23596582644E+03  0.36301549642E+02 -0.19095791832E+02  0.23955043940E+03  0.47000000000E+01 0.  1.
         15    1    4    4    0    0  0.15844556774E+02  0.14610095968E+02  0.32944776362E+02  0.39408386190E+02  0.17770000000E+01 0. -1.
        -16    1    4    4    0    0  0.42806192646E+02 -0.38904866026E+02 -0.25754150383E+02  0.63318520129E+02  0.00000000000E+00 0.  1.
<mgrwt>
<rscale>  2 0.34155261E+03</rscale>
<asrwt>0</asrwt>
<pdfrwt beam="1">  1       21 0.35758993E-01 0.34207024E+03</pdfrwt>
<pdfrwt beam="2">  1       21 0.93362924E-01 0.34207024E+03</pdfrwt>
<totfact> 0.66842186E+03</totfact>
</mgrwt>
</event>
<event>
12    2  0.4090627E-002  0.1948705E+03  0.7546771E-02  0.1157959E+00
         21   -1    0    0  501  502  0.00000000000E+00  0.00000000000E+00  0.96215454437E+03  0.96215454437E+03  0.00000000000E+00 0.  1.
         21   -1    0    0  502  503 -0.00000000000E+00 -0.00000000000E+00 -0.37982131413E+02  0.37982131413E+02  0.00000000000E+00 0.  1.
         -6    2    1    2    0  503 -0.10983654113E+02 -0.83706008023E+02  0.33301126546E+03  0.37768507051E+03  0.15691454085E+03 0.  0.
        -24    2    3    3    0    0 -0.25287596792E+02 -0.20103029159E+02  0.28418521804E+03  0.29610066880E+03  0.76620973488E+02 0.  0.
          6    2    1    2  501    0  0.10983654113E+02  0.83706008023E+02  0.59116114750E+03  0.62245160527E+03  0.17563360200E+03 0.  0.
         24    2    5    5    0    0  0.69614743510E+02  0.53427439941E+02  0.27551298080E+03  0.29994540150E+03  0.79744200036E+02 0.  0.
          5    1    5    5  501    0 -0.58631089397E+02  0.30278568082E+02  0.31564816670E+03  0.32250620377E+03  0.47000000000E+01 0. -1.
        -15    1    6    6    0    0  0.61907369297E+02  0.16013857681E+02  0.89260322165E+02  0.10981588616E+03  0.17770000000E+01 0.  1.
         16    1    6    6    0    0  0.77073742123E+01  0.37413582260E+02  0.18625265864E+03  0.19012951534E+03  0.00000000000E+00 0. -1.
         -5    1    3    3    0  503  0.14303942679E+02 -0.63602978864E+02  0.48826047416E+02  0.81584401713E+02  0.47000000000E+01 0.  1.
         15    1    4    4    0    0  0.23127498666E+02 -0.23880246716E+02  0.90779149214E+02  0.96691049425E+02  0.17770000000E+01 0. -1.
        -16    1    4    4    0    0 -0.48415095458E+02  0.37772175568E+01  0.19340606883E+03  0.19940961938E+03  0.00000000000E+00 0.  1.
<mgrwt>
<rscale>  2 0.19055776E+03</rscale>
<asrwt>0</asrwt>
<pdfrwt beam="1">  1       21 0.14802376E+00 0.19487047E+03</pdfrwt>
<pdfrwt beam="2">  1       21 0.58434056E-02 0.19487047E+03</pdfrwt>
<totfact> 0.63776203E+04</totfact>
</mgrwt>
</event>
<event>
12    2  0.4090627E-002  0.2291922E+03  0.7546771E-02  0.1127415E+00
         21   -1    0    0  503  502  0.00000000000E+00  0.00000000000E+00  0.35229118028E+03  0.35229118028E+03  0.00000000000E+00 0.  1.
         21   -1    0    0  501  503 -0.00000000000E+00 -0.00000000000E+00 -0.89356668143E+03  0.89356668143E+03  0.00000000000E+00 0.  1.
          6    2    1    2  501    0  0.15350382946E+03  0.12093038120E+02 -0.83939657453E+03  0.86981900274E+03  0.16819280892E+03 0.  0.
         24    2    3    3    0    0  0.10568477973E+03  0.39854618372E+02 -0.75961481451E+03  0.77263574242E+03  0.84815451249E+02 0.  0.
         -6    2    1    2    0  502 -0.15350382946E+03 -0.12093038120E+02  0.29812107338E+03  0.37603885896E+03  0.16976272212E+03 0.  0.
        -24    2    5    5    0    0 -0.13385703120E+03  0.48580599071E+02  0.23322645337E+03  0.28493074385E+03  0.80704218175E+02 0.  0.
          5    1    3    3  501    0  0.47819049732E+02 -0.27761580252E+02 -0.79781760019E+02  0.97183260323E+02  0.47000000000E+01 0. -1.
        -15    1    4    4    0    0  0.28832767469E+02 -0.26590732587E+02 -0.18682436719E+03  0.19090546730E+03  0.17770000000E+01 0.  1.
         16    1    4    4    0    0  0.76852012259E+02  0.66445350960E+02 -0.57279044732E+03  0.58173027512E+03  0.00000000000E+00 0. -1.
         -5    1    5    5    0  502 -0.19646798259E+02 -0.60673637192E+02  0.64894620013E+02  0.91108115108E+02  0.47000000000E+01 0.  1.
         15    1    6    6    0    0  0.23074721328E+01 -0.11692468569E+01 -0.50932647196E+01  0.59825279239E+01  0.17770000000E+01 0. -1.
        -16    1    6    6    0    0 -0.13616450333E+03  0.49749845928E+02  0.23831971809E+03  0.27894821592E+03  0.00000000000E+00 0.  1.
<mgrwt>
<rscale>  2 0.22890151E+03</rscale>
<asrwt>0</asrwt>
<pdfrwt beam="1">  1       21 0.54198644E-01 0.22919217E+03</pdfrwt>
<pdfrwt beam="2">  1       21 0.13747180E+00 0.22919217E+03</pdfrwt>
<totfact> 0.11655084E+03</totfact>
</mgrwt>
</event>
<event>
12    2  0.4090627E-002  0.1739578E+03  0.7546771E-02  0.1173857E+00
         21   -1    0    0  501  502  0.00000000000E+00  0.00000000000E+00  0.33108219773E+02  0.33108219773E+02  0.00000000000E+00 0. -1.
         21   -1    0    0  502  503 -0.00000000000E+00 -0.00000000000E+00 -0.12670223739E+04  0.12670223739E+04  0.00000000000E+00 0. -1.
         -6    2    1    2    0  503  0.10861634823E+02 -0.16039479350E+02 -0.96046202109E+03  0.97603590344E+03  0.17257911475E+03 0.  0.
        -24    2    3    3    0    0 -0.53356435618E+02 -0.35336050943E+02 -0.50115420901E+03  0.51183543545E+03  0.82002597876E+02 0.  0.
          6    2    1    2  501    0 -0.10861634823E+02  0.16039479350E+02 -0.27345213309E+03  0.32409469028E+03  0.17287584900E+03 0.  0.
         24    2    5    5    0    0  0.35080451735E+02 -0.43017495289E+02 -0.15371502808E+03  0.18282379488E+03  0.81945635165E+02 0.  0.
          5    1    5    5  501    0 -0.45942086558E+02  0.59056974639E+02 -0.11973710501E+03  0.14127089540E+03  0.47000000000E+01 0. -1.
        -15    1    6    6    0    0  0.37460888564E+02  0.14928164445E+02 -0.73276589635E+02  0.83658738834E+02  0.17770000000E+01 0.  1.
         16    1    6    6    0    0 -0.23804368291E+01 -0.57945659735E+02 -0.80438438445E+02  0.99165056049E+02  0.00000000000E+00 0. -1.
         -5    1    3    3    0  503  0.64218070440E+02  0.19296571593E+02 -0.45930781208E+03  0.46420046799E+03  0.47000000000E+01 0.  1.
         15    1    4    4    0    0  0.16165931836E+02  0.39753956975E+01 -0.18474125571E+03  0.18549832995E+03  0.17770000000E+01 0. -1.
        -16    1    4    4    0    0 -0.69522367453E+02 -0.39311446641E+02 -0.31641295330E+03  0.32633710551E+03  0.00000000000E+00 0.  1.
<mgrwt>
<rscale>  2 0.17388398E+03</rscale>
<asrwt>0</asrwt>
<pdfrwt beam="1">  1       21 0.50935730E-02 0.17395775E+03</pdfrwt>
<pdfrwt beam="2">  1       21 0.19492649E+00 0.17395775E+03</pdfrwt>
<totfact> 0.38233826E+04</totfact>
</mgrwt>
</event>
<event>
12    2  0.4090627E-002  0.3291507E+03  0.7546771E-02  0.1071587E+00
         21   -1    0    0  501  502  0.00000000000E+00  0.00000000000E+00  0.20387913505E+03  0.20387913505E+03  0.00000000000E+00 0. -1.
         21   -1    0    0  502  503 -0.00000000000E+00 -0.00000000000E+00 -0.98925224553E+03  0.98925224553E+03  0.00000000000E+00 0.  1.
         -6    2    1    2    0  503  0.81157269208E+02 -0.26879627347E+03 -0.79880301593E+03  0.86370680747E+03  0.17048534261E+03 0.  0.
        -24    2    3    3    0    0  0.94450169580E+01 -0.44250766875E+02 -0.25051904651E+03  0.26688126113E+03  0.80115392784E+02 0.  0.
          6    2    1    2  501    0 -0.81157269208E+02  0.26879627347E+03  0.13429905446E+02  0.32942457310E+03  0.17176218449E+03 0.  0.
         24    2    5    5    0    0 -0.11433760822E+03  0.21948319235E+03 -0.19447586420E+02  0.26133834587E+03  0.81691872467E+02 0.  0.
          5    1    5    5  501    0  0.33180339008E+02  0.49313081120E+02  0.32877491867E+02  0.68086227225E+02  0.47000000000E+01 0. -1.
        -15    1    6    6    0    0 -0.54624717738E+02  0.51110967517E+02  0.21901853619E+02  0.77968196782E+02  0.17770000000E+01 0.  1.
         16    1    6    6    0    0 -0.59712890479E+02  0.16837222484E+03 -0.41349440040E+02  0.18337014909E+03  0.00000000000E+00 0. -1.
         -5    1    3    3    0  503  0.71712252250E+02 -0.22454550660E+03 -0.54828396941E+03  0.59682554635E+03  0.47000000000E+01 0.  1.
         15    1    4    4    0    0  0.22450125993E+02 -0.50245008937E+02 -0.24566660031E+03  0.25176140554E+03  0.17770000000E+01 0. -1.
        -16    1    4    4    0    0 -0.13005109035E+02  0.59942420619E+01 -0.48524461992E+01  0.15119855589E+02  0.00000000000E+00 0.  1.
<mgrwt>
<rscale>  2 0.32898446E+03</rscale>
<asrwt>0</asrwt>
<pdfrwt beam="1">  1       21 0.31366021E-01 0.32915071E+03</pdfrwt>
<pdfrwt beam="2">  1       21 0.15219265E+00 0.32915071E+03</pdfrwt>
<totfact> 0.25504538E+03</totfact>
</mgrwt>
</event>
<event>
12    2  0.4090627E-002  0.2862158E+03  0.7546771E-02  0.1093111E+00
         21   -1    0    0  501  502  0.00000000000E+00  0.00000000000E+00  0.85630513596E+03  0.85630513596E+03  0.00000000000E+00 0.  1.
         21   -1    0    0  502  503 -0.00000000000E+00 -0.00000000000E+00 -0.99699330065E+02  0.99699330065E+02  0.00000000000E+00 0.  1.
         -6    2    1    2    0  503  0.21880933171E+03  0.16946219055E+02  0.25802444783E+03  0.38111070205E+03  0.17465409686E+03 0.  0.
        -24    2    3    3    0    0  0.19547253861E+03 -0.37829389241E+02  0.23177995721E+03  0.31587392971E+03  0.80086296367E+02 0.  0.
          6    2    1    2  501    0 -0.21880933171E+03 -0.16946219055E+02  0.49858135807E+03  0.57489376398E+03  0.18372471601E+03 0.  0.
         24    2    5    5    0    0 -0.23942430771E+03  0.66897946802E+00  0.40538301436E+03  0.47771715299E+03  0.80955810640E+02 0.  0.
          5    1    5    5  501    0  0.20614975996E+02 -0.17615198523E+02  0.93198343709E+02  0.97176610995E+02  0.47000000000E+01 0. -1.
        -15    1    6    6    0    0 -0.21000966219E+03 -0.27545401828E+02  0.33339351052E+03  0.39499012388E+03  0.17770000000E+01 0.  1.
         16    1    6    6    0    0 -0.29414645514E+02  0.28214381297E+02  0.71989503837E+02  0.82727029110E+02  0.00000000000E+00 0. -1.
         -5    1    3    3    0  503  0.23336793105E+02  0.54775608297E+02  0.26244490625E+02  0.65236772336E+02  0.47000000000E+01 0.  1.
         15    1    4    4    0    0  0.30773167946E+01 -0.21182091941E+02  0.24153273598E+02  0.32321652992E+02  0.17770000000E+01 0. -1.
        -16    1    4    4    0    0  0.19239522181E+03 -0.16647297301E+02  0.20762668361E+03  0.28355227672E+03  0.00000000000E+00 0.  1.
<mgrwt>
<rscale>  2 0.28477080E+03</rscale>
<asrwt>0</asrwt>
<pdfrwt beam="1">  1       21 0.13173925E+00 0.28621577E+03</pdfrwt>
<pdfrwt beam="2">  1       21 0.15338359E-01 0.28621577E+03</pdfrwt>
<totfact> 0.14915970E+04</totfact>
</mgrwt>
</event>
<event>
12    2  0.4090627E-002  0.2342432E+03  0.7546771E-02  0.1123969E+00
         21   -1    0    0  503  502  0.00000000000E+00  0.00000000000E+00  0.11264671623E+04  0.11264671623E+04  0.00000000000E+00 0.  1.
         21   -1    0    0  501  503 -0.00000000000E+00 -0.00000000000E+00 -0.24640977995E+03  0.24640977995E+03  0.00000000000E+00 0. -1.
          6    2    1    2  501    0 -0.10403673906E+03 -0.11833079158E+03 -0.17505393439E+03  0.29242732322E+03  0.17333216699E+03 0.  0.
         24    2    3    3    0    0 -0.58797347977E+02 -0.13853935408E+03 -0.17357504057E+03  0.24263509862E+03  0.78059052099E+02 0.  0.
         -6    2    1    2    0  502  0.10403673906E+03  0.11833079158E+03  0.10551113168E+04  0.10804496191E+04  0.17113056201E+03 0.  0.
        -24    2    5    5    0    0  0.10499967038E+02  0.10791508434E+03  0.71291824503E+03  0.72551891734E+03  0.79808273955E+02 0.  0.
          5    1    3    3  501    0 -0.45239391086E+02  0.20208562500E+02 -0.14788938183E+01  0.49792224605E+02  0.47000000000E+01 0. -1.
        -15    1    4    4    0    0 -0.93004322064E+01 -0.10972244454E+03 -0.95270508873E+02  0.14561984914E+03  0.17770000000E+01 0. -1.
         16    1    4    4    0    0 -0.49496915771E+02 -0.28816909540E+02 -0.78304531699E+02  0.97015249476E+02  0.00000000000E+00 0. -1.
         -5    1    5    5    0  502  0.93536772025E+02  0.10415707234E+02  0.34219307176E+03  0.35493070174E+03  0.47000000000E+01 0.  1.
         15    1    6    6    0    0 -0.33197960466E+02  0.43459113281E+02  0.23409418110E+03  0.24040391523E+03  0.17770000000E+01 0. -1.
        -16    1    6    6    0    0  0.43697927504E+02  0.64455971060E+02  0.47882406393E+03  0.48511500211E+03  0.00000000000E+00 0.  1.
<mgrwt>
<rscale>  2 0.23383600E+03</rscale>
<asrwt>0</asrwt>
<pdfrwt beam="1">  1       21 0.17330264E+00 0.23424316E+03</pdfrwt>
<pdfrwt beam="2">  1       21 0.37909198E-01 0.23424316E+03</pdfrwt>
<totfact> 0.13041698E+03</totfact>
</mgrwt>
</event>
<event>
12    2  0.4090627E-002  0.1741836E+03  0.7546771E-02  0.1173623E+00
         21   -1    0    0  503  502  0.00000000000E+00  0.00000000000E+00  0.23751729341E+02  0.23751729341E+02  0.00000000000E+00 0. -1.
         21   -1    0    0  501  503 -0.00000000000E+00 -0.00000000000E+00 -0.24965218178E+04  0.24965218178E+04  0.00000000000E+00 0.  1.
          6    2    1    2  501    0 -0.24236813821E+02  0.19027803873E+02 -0.21182061324E+04  0.21253557681E+04  0.17143640640E+03 0.  0.
         24    2    3    3    0    0 -0.93800668703E+01 -0.16424400952E+02 -0.50825629956E+03  0.51494025158E+03  0.80506211306E+02 0.  0.
         -6    2    1    2    0  502  0.24236813821E+02 -0.19027803873E+02 -0.35456395608E+03  0.39491777900E+03  0.17115774233E+03 0.  0.
        -24    2    5    5    0    0  0.35203646852E+01 -0.53192488004E+02 -0.11325387964E+03  0.15027714481E+03  0.83156149813E+02 0.  0.
          5    1    3    3  501    0 -0.14856746951E+02  0.35452204825E+02 -0.16099498328E+04  0.16104155165E+04  0.47000000000E+01 0. -1.
        -15    1    4    4    0    0 -0.41476701525E+02 -0.65572794721E+01 -0.38162618192E+03  0.38393360772E+03  0.17770000000E+01 0.  1.
         16    1    4    4    0    0  0.32096634654E+02 -0.98671214798E+01 -0.12663011764E+03  0.13100664386E+03  0.00000000000E+00 0. -1.
         -5    1    5    5    0  502  0.20716449136E+02  0.34164684131E+02 -0.24131007644E+03  0.24464063419E+03  0.47000000000E+01 0.  1.
         15    1    6    6    0    0 -0.38770913878E+02 -0.17389572754E+02 -0.39632946203E+02  0.58133545886E+02  0.17770000000E+01 0. -1.
        -16    1    6    6    0    0  0.42291278563E+02 -0.35802915251E+02 -0.73620933434E+02  0.92143598924E+02  0.00000000000E+00 0.  1.
<mgrwt>
<rscale>  2 0.17411498E+03</rscale>
<asrwt>0</asrwt>
<pdfrwt beam="1">  1       21 0.36541150E-02 0.17418359E+03</pdfrwt>
<pdfrwt beam="2">  1       21 0.38407999E+00 0.17418359E+03</pdfrwt>
<totfact> 0.51096138E+03</totfact>
</mgrwt>
</event>
<event>
12    2  0.4090627E-002  0.2136026E+03  0.7546771E-02  0.1138791E+00
         21   -1    0    0  503  502  0.00000000000E+00  0.00000000000E+00  0.14388659122E+04  0.14388659122E+04  0.00000000000E+00 0.  1.
         21   -1    0    0  501  503 -0.00000000000E+00 -0.00000000000E+00 -0.39573270902E+02  0.39573270902E+02  0.00000000000E+00 0.  1.
          6    2    1    2  501    0  0.11686277307E+03 -0.41716263910E+02  0.36969655209E+03  0.42696794365E+03  0.17386468839E+03 0.  0.
         24    2    3    3    0    0  0.50679638487E+02 -0.31621116612E+02  0.78899141945E+02  0.12852641998E+03  0.82010031458E+02 0.  0.
         -6    2    1    2    0  502 -0.11686277307E+03  0.41716263910E+02  0.10295960892E+04  0.10514712394E+04  0.17356988819E+03 0.  0.
        -24    2    5    5    0    0 -0.19807779913E+02  0.74071095294E+01  0.73503200093E+03  0.73940252607E+03  0.77439264924E+02 0.  0.
          5    1    3    3  501    0  0.66183134583E+02 -0.10095147298E+02  0.29079741015E+03  0.29844152367E+03  0.47000000000E+01 0. -1.
        -15    1    4    4    0    0  0.46248723114E+02  0.94881803345E+01  0.10183996240E+02  0.48330543802E+02  0.17770000000E+01 0.  1.
         16    1    4    4    0    0  0.44309153729E+01 -0.41109296946E+02  0.68715145705E+02  0.80195876176E+02  0.00000000000E+00 0. -1.
         -5    1    5    5    0  502 -0.97054993157E+02  0.34309154381E+02  0.29456408827E+03  0.31206871337E+03  0.47000000000E+01 0.  1.
         15    1    6    6    0    0 -0.59593369726E+01  0.41547775141E+02  0.45988834715E+03  0.46180318415E+03  0.17770000000E+01 0. -1.
        -16    1    6    6    0    0 -0.13848442941E+02 -0.34140665611E+02  0.27514365378E+03  0.27759934192E+03  0.00000000000E+00 0.  1.
<mgrwt>
<rscale>  2 0.21354263E+03</rscale>
<asrwt>0</asrwt>
<pdfrwt beam="1">  1       21 0.22136395E+00 0.21360263E+03</pdfrwt>
<pdfrwt beam="2">  1       21 0.60881966E-02 0.21360263E+03</pdfrwt>
<totfact> 0.18665118E+04</totfact>
</mgrwt>
</event>
<event>
12    2  0.4090627E-002  0.1913817E+03  0.7546771E-02  0.1157793E+00
         21   -1    0    0  501  502  0.00000000000E+00  0.00000000000E+00  0.47823967643E+03  0.47823967643E+03  0.00000000000E+00 0. -1.
         21   -1    0    0  502  503 -0.00000000000E+00 -0.00000000000E+00 -0.16210062701E+03  0.16210062701E+03  0.00000000000E+00 0. -1.
         -6    2    1    2    0  503 -0.10785360292E+02  0.73069679320E+02 -0.75355058577E+02  0.20568262811E+03  0.17655440130E+03 0.  0.
        -24    2    3    3    0    0 -0.63067683928E+02  0.89968140128E+02 -0.60279266253E+02  0.14851297832E+03  0.79691378426E+02 0.  0.
          6    2    1    2  501    0  0.10785360292E+02 -0.73069679320E+02  0.39149410800E+03  0.43465767533E+03  0.17379342937E+03 0.  0.
         24    2    5    5    0    0 -0.46341890487E+02 -0.25088850734E+02  0.12516894853E+03  0.15804085867E+03  0.80824662617E+02 0.  0.
          5    1    5    5  501    0  0.57127250779E+02 -0.47980828586E+02  0.26632515948E+03  0.27661681667E+03  0.47000000000E+01 0. -1.
        -15    1    6    6    0    0 -0.26619493434E+02  0.27682061759E+02  0.65718680034E+02  0.76138010273E+02  0.17770000000E+01 0.  1.
         16    1    6    6    0    0 -0.19722397053E+02 -0.52770912493E+02  0.59450268494E+02  0.81902848393E+02  0.00000000000E+00 0. -1.
         -5    1    3    3    0  503  0.52282323635E+02 -0.16898460809E+02 -0.15075792324E+02  0.57169649786E+02  0.47000000000E+01 0.  1.
         15    1    4    4    0    0  0.17152543376E+01  0.55609424347E+02 -0.49315447153E+02  0.74367474278E+02  0.17770000000E+01 0. -1.
        -16    1    4    4    0    0 -0.64782938265E+02  0.34358715782E+02 -0.10963819100E+02  0.74145504043E+02  0.00000000000E+00 0.  1.
<mgrwt>
<rscale>  2 0.19074250E+03</rscale>
<asrwt>0</asrwt>
<pdfrwt beam="1">  1       21 0.73575334E-01 0.19138171E+03</pdfrwt>
<pdfrwt beam="2">  1       21 0.24938558E-01 0.19138171E+03</pdfrwt>
<totfact> 0.25271430E+04</totfact>
</mgrwt>
</event>
<event>
12    2  0.4090627E-002  0.1935140E+03  0.7546771E-02  0.1155954E+00
         21   -1    0    0  501  502  0.00000000000E+00  0.00000000000E+00  0.78434509698E+03  0.78434509698E+03  0.00000000000E+00 0. -1.
         21   -1    0    0  502  503 -0.00000000000E+00 -0.00000000000E+00 -0.65318534835E+02  0.65318534835E+02  0.00000000000E+00 0.  1.
         -6    2    1    2    0  503  0.70600965924E+02  0.45579882003E+02  0.58227357633E+03  0.61270569486E+03  0.17118331922E+03 0.  0.
        -24    2    3    3    0    0 -0.39831894667E+01 -0.17242855434E+02  0.16717958717E+03  0.18628500772E+03  0.80249036596E+02 0.  0.
          6    2    1    2  501    0 -0.70600965924E+02 -0.45579882003E+02  0.13675298581E+03  0.23695793696E+03  0.17431483794E+03 0.  0.
         24    2    5    5    0    0 -0.64013369247E+02 -0.13538218393E+02  0.16413837971E+03  0.19403807633E+03  0.80177132493E+02 0.  0.
          5    1    5    5  501    0 -0.65875966769E+01 -0.32041663610E+02 -0.27385393898E+02  0.42919860622E+02  0.47000000000E+01 0. -1.
        -15    1    6    6    0    0 -0.60226664377E+02 -0.42158938794E+02  0.10452270567E+03  0.12779976898E+03  0.17770000000E+01 0.  1.
         16    1    6    6    0    0 -0.37867048702E+01  0.28620720401E+02  0.59615674035E+02  0.66238307350E+02  0.00000000000E+00 0. -1.
         -5    1    3    3    0  503  0.74584155391E+02  0.62822737437E+02  0.41509398917E+03  0.42642068714E+03  0.47000000000E+01 0.  1.
         15    1    4    4    0    0 -0.43027645478E+01 -0.33928502398E+02  0.16606466691E+03  0.16955909997E+03  0.17770000000E+01 0. -1.
        -16    1    4    4    0    0  0.31957508111E+00  0.16685646964E+02  0.11149202538E+01  0.16725907748E+02  0.00000000000E+00 0.  1.
<mgrwt>
<rscale>  2 0.19280617E+03</rscale>
<asrwt>0</asrwt>
<pdfrwt beam="1">  1       21 0.12066847E+00 0.19351404E+03</pdfrwt>
<pdfrwt beam="2">  1       21 0.10049006E-01 0.19351404E+03</pdfrwt>
<totfact> 0.41884753E+04</totfact>
</mgrwt>
</event>
<event>
12    2  0.4090627E-002  0.2207775E+03  0.7546771E-02  0.1133420E+00
         21   -1    0    0  503  502  0.00000000000E+00  0.00000000000E+00  0.12225480330E+04  0.12225480330E+04  0.00000000000E+00 0.  1.
         21   -1    0    0  501  503 -0.00000000000E+00 -0.00000000000E+00 -0.43957813908E+02  0.43957813908E+02  0.00000000000E+00 0.  1.
          6    2    1    2  501    0 -0.12758490924E+03 -0.46977073382E+02  0.39430331951E+03  0.45190466631E+03  0.17394816806E+03 0.  0.
         24    2    3    3    0    0 -0.79129805138E+02 -0.53478372341E+02  0.38084575440E+03  0.40097962276E+03  0.81361580983E+02 0.  0.
         -6    2    1    2    0  502  0.12758490924E+03  0.46977073382E+02  0.78428689961E+03  0.81460118063E+03  0.17316000717E+03 0.  0.
        -24    2    5    5    0    0  0.69571944954E+02  0.78300999892E+02  0.32643329113E+03  0.35200123553E+03  0.79842809014E+02 0.  0.
          5    1    3    3  501    0 -0.48455104099E+02  0.65012989592E+01  0.13457565108E+02  0.50925043545E+02  0.47000000000E+01 0. -1.
        -15    1    4    4    0    0 -0.90772852902E+02 -0.27582088778E+02  0.25801100171E+03  0.27490601518E+03  0.17770000000E+01 0.  1.
         16    1    4    4    0    0  0.11643047763E+02 -0.25896283563E+02  0.12283475268E+03  0.12607360759E+03  0.00000000000E+00 0. -1.
         -5    1    5    5    0  502  0.58012964283E+02 -0.31323926510E+02  0.45785360848E+03  0.46259994509E+03  0.47000000000E+01 0.  1.
         15    1    6    6    0    0 -0.14151366110E+02 -0.23249763069E+01  0.24178453361E+02  0.28167747754E+02  0.17770000000E+01 0. -1.
        -16    1    6    6    0    0  0.83723311064E+02  0.80625976199E+02  0.30225483777E+03  0.32383348778E+03  0.00000000000E+00 0.  1.
<mgrwt>
<rscale>  2 0.22062226E+03</rscale>
<asrwt>0</asrwt>
<pdfrwt beam="1">  1       21 0.18808429E+00 0.22077753E+03</pdfrwt>
<pdfrwt beam="2">  1       21 0.67627415E-02 0.22077753E+03</pdfrwt>
<totfact> 0.25287664E+04</totfact>
</mgrwt>
</event>
<event>
12    2  0.4090627E-002  0.1880296E+03  0.7546771E-02  0.1162107E+00
         21   -1    0    0  503  502  0.00000000000E+00  0.00000000000E+00  0.51920064979E+03  0.51920064979E+03  0.00000000000E+00 0.  1.
         21   -1    0    0  501  503 -0.00000000000E+00 -0.00000000000E+00 -0.79187523475E+02  0.79187523475E+02  0.00000000000E+00 0.  1.
          6    2    1    2  501    0  0.59015969506E+02  0.43352940421E+02  0.98422309891E+02  0.21223120098E+03  0.17318420680E+03 0.  0.
         24    2    3    3    0    0  0.65735215417E+02  0.56864378146E+02  0.13134944780E+03  0.17570732350E+03  0.77882668468E+02 0.  0.
         -6    2    1    2    0  502 -0.59015969506E+02 -0.43352940421E+02  0.34159081642E+03  0.38615697229E+03  0.16453133222E+03 0.  0.
        -24    2    5    5    0    0 -0.19929751265E+01 -0.41175816550E+02  0.30457174376E+03  0.31797439756E+03  0.81512886011E+02 0.  0.
          5    1    3    3  501    0 -0.67192459113E+01 -0.13511437725E+02 -0.32927137907E+02  0.36523877474E+02  0.47000000000E+01 0. -1.
        -15    1    4    4    0    0  0.11056054254E+02  0.25438247971E+02 -0.23366923961E+01  0.27891910222E+02  0.17770000000E+01 0.  1.
         16    1    4    4    0    0  0.54679161163E+02  0.31426130175E+02  0.13368614019E+03  0.14781541328E+03  0.00000000000E+00 0. -1.
         -5    1    5    5    0  502 -0.57022994379E+02 -0.21771238711E+01  0.37019072664E+02  0.68182574733E+02  0.47000000000E+01 0.  1.
         15    1    6    6    0    0  0.24193494454E+02  0.10809895189E+02  0.47750379579E+02  0.54639138782E+02  0.17770000000E+01 0. -1.
        -16    1    6    6    0    0 -0.26186469580E+02 -0.51985711738E+02  0.25682136418E+03  0.26333525877E+03  0.00000000000E+00 0.  1.
<mgrwt>
<rscale>  2 0.18601284E+03</rscale>
<asrwt>0</asrwt>
<pdfrwt beam="1">  1       21 0.79877021E-01 0.18802960E+03</pdfrwt>
<pdfrwt beam="2">  1       21 0.12182696E-01 0.18802960E+03</pdfrwt>
<totfact> 0.78983116E+04</totfact>
</mgrwt>
</event>
<event>
12    2  0.4090627E-002  0.2608810E+03  0.7546771E-02  0.1106871E+00
         21   -1    0    0  501  502  0.00000000000E+00  0.00000000000E+00  0.25287996615E+03  0.25287996615E+03  0.00000000000E+00 0. -1.
         21   -1    0    0  502  503 -0.00000000000E+00 -0.00000000000E+00 -0.35215305823E+03  0.35215305823E+03  0.00000000000E+00 0. -1.
         -6    2    1    2    0  503 -0.13614740918E+03 -0.13754257860E+03 -0.19818686280E+03  0.32762317578E+03  0.17494237556E+03 0.  0.
        -24    2    3    3    0    0 -0.51756294121E+02 -0.11263661849E+03 -0.18728503053E+03  0.23883631247E+03  0.81248875003E+02 0.  0.
          6    2    1    2  501    0  0.13614740918E+03  0.13754257860E+03  0.98913770730E+02  0.27740984860E+03  0.17238970998E+03 0.  0.
         24    2    5    5    0    0  0.97237043538E+02  0.12729254198E+03  0.13358867661E+03  0.22408519292E+03  0.81913401157E+02 0.  0.
          5    1    5    5  501    0  0.38910365639E+02  0.10250036624E+02 -0.34674905883E+02  0.53324655676E+02  0.47000000000E+01 0. -1.
        -15    1    6    6    0    0  0.22224543464E+02 -0.46733314085E+01  0.14385773297E+01  0.22825371681E+02  0.17770000000E+01 0.  1.
         16    1    6    6    0    0  0.75012500074E+02  0.13196587339E+03  0.13215009928E+03  0.20125982124E+03  0.00000000000E+00 0. -1.
         -5    1    3    3    0  503 -0.84391115056E+02 -0.24905960110E+02 -0.10901832274E+02  0.88786863310E+02  0.47000000000E+01 0.  1.
         15    1    4    4    0    0 -0.68145474294E+02 -0.53222054387E+02 -0.11354955048E+03  0.14273419661E+03  0.17770000000E+01 0. -1.
        -16    1    4    4    0    0  0.16389180173E+02 -0.59414564104E+02 -0.73735480049E+02  0.96102115859E+02  0.00000000000E+00 0.  1.
<mgrwt>
<rscale>  2 0.26045377E+03</rscale>
<asrwt>0</asrwt>
<pdfrwt beam="1">  1       21 0.38904610E-01 0.26088103E+03</pdfrwt>
<pdfrwt beam="2">  1       21 0.54177394E-01 0.26088103E+03</pdfrwt>
<totfact> 0.19779380E+04</totfact>
</mgrwt>
</event>
<event>
12    2  0.4090627E-002  0.1801015E+03  0.7546771E-02  0.1168180E+00
         21   -1    0    0  503  502  0.00000000000E+00  0.00000000000E+00  0.78774164895E+03  0.78774164895E+03  0.00000000000E+00 0.  1.
         21   -1    0    0  501  503 -0.00000000000E+00 -0.00000000000E+00 -0.41340380665E+02  0.41340380665E+02  0.00000000000E+00 0. -1.
          6    2    1    2  501    0 -0.36680374422E+02  0.21139095533E+02  0.42150489761E+03  0.45760630397E+03  0.17304577282E+03 0.  0.
         24    2    3    3    0    0 -0.57751385733E+02  0.56329272512E+02  0.38763522810E+03  0.40420611121E+03  0.81322203499E+02 0.  0.
         -6    2    1    2    0  502  0.36680374422E+02 -0.21139095533E+02  0.32489637067E+03  0.37147572565E+03  0.17505499662E+03 0.  0.
        -24    2    5    5    0    0 -0.66042749192E+01 -0.15272945062E+02  0.58620860389E+02  0.10160036559E+03  0.81297907210E+02 0.  0.
          5    1    3    3  501    0  0.21071011311E+02 -0.35190176979E+02  0.33869669515E+02  0.53400192757E+02  0.47000000000E+01 0. -1.
        -15    1    4    4    0    0 -0.59359421095E+02  0.27223995281E+02  0.13587800193E+03  0.15076695901E+03  0.17770000000E+01 0.  1.
         16    1    4    4    0    0  0.16080353617E+01  0.29105277231E+02  0.25175722617E+03  0.25343915220E+03  0.00000000000E+00 0. -1.
         -5    1    5    5    0  502  0.43284649342E+02 -0.58661504711E+01  0.26627551028E+03  0.26987536006E+03  0.47000000000E+01 0.  1.
         15    1    6    6    0    0 -0.37857348181E+02 -0.47142605363E+01  0.56949301474E+02  0.68569553966E+02  0.17770000000E+01 0. -1.
        -16    1    6    6    0    0  0.31253073262E+02 -0.10558684525E+02  0.16715589150E+01  0.33030811622E+02  0.00000000000E+00 0.  1.
<mgrwt>
<rscale>  2 0.17961146E+03</rscale>
<asrwt>0</asrwt>
<pdfrwt beam="1">  1       21 0.12119101E+00 0.18010154E+03</pdfrwt>
<pdfrwt beam="2">  1       21 0.63600591E-02 0.18010154E+03</pdfrwt>
<totfact> 0.92458211E+04</totfact>
</mgrwt>
</event>
<event>
12    2  0.4090627E-002  0.3869249E+03  0.7546771E-02  0.1048483E+00
         21   -1    0    0  501  502  0.00000000000E+00  0.00000000000E+00  0.23451852801E+03  0.23451852801E+03  0.00000000000E+00 0. -1.
         21   -1    0    0  502  503 -0.00000000000E+00 -0.00000000000E+00 -0.63944042793E+03  0.63944042793E+03  0.00000000000E+00 0. -1.
         -6    2    1    2    0  503 -0.19674150303E+01  0.34613101052E+03 -0.23007407172E+03  0.45016100634E+03  0.17291704942E+03 0.  0.
        -24    2    3    3    0    0 -0.41722616900E+02  0.32059142371E+03 -0.22572435014E+03  0.40247708192E+03  0.80725965486E+02 0.  0.
          6    2    1    2  501    0  0.19674150303E+01 -0.34613101052E+03 -0.17484782820E+03  0.42379794961E+03  0.17094558169E+03 0.  0.
         24    2    5    5    0    0  0.66508475761E+02 -0.25367051848E+03 -0.97435736381E+02  0.28694323443E+03  0.63801158001E+02 0.  0.
          5    1    5    5  501    0 -0.64541060730E+02 -0.92460492037E+02 -0.77412091814E+02  0.13685471518E+03  0.47000000000E+01 0. -1.
        -15    1    6    6    0    0  0.60753942218E+02 -0.11273661420E+03 -0.35597435999E+02  0.13293201591E+03  0.17770000000E+01 0.  1.
         16    1    6    6    0    0  0.57545335424E+01 -0.14093390429E+03 -0.61838300382E+02  0.15401121851E+03  0.00000000000E+00 0. -1.
         -5    1    3    3    0  503  0.39755201870E+02  0.25539586814E+02 -0.43497215782E+01  0.47683924421E+02  0.47000000000E+01 0.  1.
         15    1    4    4    0    0 -0.21203554391E+02  0.30883469997E+03 -0.21030991600E+03  0.37424842167E+03  0.17770000000E+01 0. -1.
        -16    1    4    4    0    0 -0.20519062509E+02  0.11756723734E+02 -0.15414434144E+02  0.28228660244E+02  0.00000000000E+00 0.  1.
<mgrwt>
<rscale>  2 0.38670543E+03</rscale>
<asrwt>0</asrwt>
<pdfrwt beam="1">  1       21 0.36079774E-01 0.38692487E+03</pdfrwt>
<pdfrwt beam="2">  1       21 0.98375449E-01 0.38692487E+03</pdfrwt>
<totfact> 0.56899973E+03</totfact>
</mgrwt>
</event>
<event>
12    2  0.4090627E-002  0.1915706E+03  0.7546771E-02  0.1157475E+00
         21   -1    0    0  503  502  0.00000000000E+00  0.00000000000E+00  0.51896716270E+03  0.51896716270E+03  0.00000000000E+00 0. -1.
         21   -1    0    0  501  503 -0.00000000000E+00 -0.00000000000E+00 -0.88705961791E+02  0.88705961791E+02  0.00000000000E+00 0. -1.
          6    2    1    2  501    0  0.82003213007E+02 -0.21013521925E+02  0.74847529917E+02  0.20391805585E+03  0.16974782979E+03 0.  0.
         24    2    3    3    0    0  0.13049516856E+02 -0.63008840836E+02  0.65400306434E+02  0.12249595164E+03  0.81164365160E+02 0.  0.
         -6    2    1    2    0  502 -0.82003213007E+02  0.21013521925E+02  0.35541367099E+03  0.40375506864E+03  0.17185221231E+03 0.  0.
        -24    2    5    5    0    0 -0.11307178716E+03 -0.16022940333E+02  0.29173964494E+03  0.32367119117E+03  0.81296100127E+02 0.  0.
          5    1    3    3  501    0  0.68953696150E+02  0.41995318911E+02  0.94472234821E+01  0.81422104215E+02  0.47000000000E+01 0.  1.
        -15    1    4    4    0    0 -0.16064545026E+02 -0.41868606793E+02 -0.32406771764E+01  0.44996772764E+02  0.17770000000E+01 0.  1.
         16    1    4    4    0    0  0.29114061882E+02 -0.21140234043E+02  0.68640983611E+02  0.77499178871E+02  0.00000000000E+00 0. -1.
         -5    1    5    5    0  502  0.31068574155E+02  0.37036462258E+02  0.63674026051E+02  0.80083877467E+02  0.47000000000E+01 0.  1.
         15    1    6    6    0    0 -0.11623615561E+03 -0.33697803208E+02  0.23795427420E+03  0.26696775115E+03  0.17770000000E+01 0. -1.
        -16    1    6    6    0    0  0.31643684478E+01  0.17674862875E+02  0.53785370733E+02  0.56703440021E+02  0.00000000000E+00 0.  1.
<mgrwt>
<rscale>  2 0.19109743E+03</rscale>
<asrwt>0</asrwt>
<pdfrwt beam="1">  1       21 0.79841100E-01 0.19157056E+03</pdfrwt>
<pdfrwt beam="2">  1       21 0.13647071E-01 0.19157056E+03</pdfrwt>
<totfact> 0.64367460E+04</totfact>
</mgrwt>
</event>
<event>
12    2  0.4090627E-002  0.2184756E+03  0.7546771E-02  0.1135396E+00
         21   -1    0    0  503  502  0.00000000000E+00  0.00000000000E+00  0.48831343209E+03  0.48831343209E+03  0.00000000000E+00 0.  1.
         21   -1    0    0  501  503 -0.00000000000E+00 -0.00000000000E+00 -0.12391821478E+03  0.12391821478E+03  0.00000000000E+00 0. -1.
          6    2    1    2  501    0 -0.18693018552E+02 -0.12469849259E+03  0.38537951815E+02  0.21991220229E+03  0.17600301130E+03 0.  0.
         24    2    3    3    0    0  0.79042651706E+01 -0.14716197217E+03  0.61570030431E+02  0.17790517833E+03  0.78359813477E+02 0.  0.
         -6    2    1    2    0  502  0.18693018552E+02  0.12469849259E+03  0.32585726550E+03  0.39231944458E+03  0.17841649621E+03 0.  0.
        -24    2    5    5    0    0 -0.39284314170E+02  0.10823681059E+03  0.28964365052E+03  0.32185048692E+03  0.80223607120E+02 0.  0.
          5    1    3    3  501    0 -0.26597283722E+02  0.22463479581E+02 -0.23032078615E+02  0.42007023955E+02  0.47000000000E+01 0. -1.
        -15    1    4    4    0    0 -0.35296578848E+02 -0.60718312999E+02  0.24592118335E+02  0.74434481425E+02  0.17770000000E+01 0.  1.
         16    1    4    4    0    0  0.43200844019E+02 -0.86443659174E+02  0.36977912096E+02  0.10347069691E+03  0.00000000000E+00 0. -1.
         -5    1    5    5    0  502  0.57977332721E+02  0.16461682007E+02  0.36213614984E+02  0.70468957663E+02  0.47000000000E+01 0.  1.
         15    1    6    6    0    0 -0.87534981395E+01  0.19831055541E+02  0.51140837251E+01  0.22342920017E+02  0.17770000000E+01 0. -1.
        -16    1    6    6    0    0 -0.30530816030E+02  0.88405755045E+02  0.28452956679E+03  0.29950756690E+03  0.00000000000E+00 0.  1.
<mgrwt>
<rscale>  2 0.21798232E+03</rscale>
<asrwt>0</asrwt>
<pdfrwt beam="1">  1       21 0.75125143E-01 0.21847560E+03</pdfrwt>
<pdfrwt beam="2">  1       21 0.19064341E-01 0.21847560E+03</pdfrwt>
<totfact> 0.39454641E+04</totfact>
</mgrwt>
</event>
<event>
12    2  0.4090627E-002  0.1823787E+03  0.7546771E-02  0.1166727E+00
         21   -1    0    0  501  502  0.00000000000E+00  0.00000000000E+00  0.50193233431E+03  0.50193233431E+03  0.00000000000E+00 0.  1.
         21   -1    0    0  502  503 -0.00000000000E+00 -0.00000000000E+00 -0.16866504817E+03  0.16866504817E+03  0.00000000000E+00 0.  1.
         -6    2    1    2    0  503 -0.38745993109E+02 -0.17630786779E+02 -0.96016967247E+02  0.20610982257E+03  0.17734120879E+03 0.  0.
        -24    2    3    3    0    0 -0.30288646225E+02  0.54074940145E+02 -0.22786335037E+02  0.10316297471E+03  0.79258318458E+02 0.  0.
          6    2    1    2  501    0  0.38745993109E+02  0.17630786779E+02  0.42928425338E+03  0.46448755991E+03  0.17219647639E+03 0.  0.
         24    2    5    5    0    0  0.41045582979E+02  0.58738938014E+02  0.39900545770E+03  0.41316442984E+03  0.79777741840E+02 0.  0.
          5    1    5    5  501    0 -0.22995898698E+01 -0.41108151235E+02  0.30278795685E+02  0.51323130065E+02  0.47000000000E+01 0. -1.
        -15    1    6    6    0    0 -0.13542458307E+02 -0.75669549768E+01  0.12611230599E+03  0.12707528649E+03  0.17770000000E+01 0.  1.
         16    1    6    6    0    0  0.54588041286E+02  0.66305892991E+02  0.27289315170E+03  0.28608914335E+03  0.00000000000E+00 0. -1.
         -5    1    3    3    0  503 -0.84573468849E+01 -0.71705726924E+02 -0.73230632209E+02  0.10294684786E+03  0.47000000000E+01 0.  1.
         15    1    4    4    0    0 -0.51356630195E+02  0.51091391995E+02 -0.66175881243E+00  0.72466747234E+02  0.17770000000E+01 0. -1.
        -16    1    4    4    0    0  0.21067983970E+02  0.29835481501E+01 -0.22124576225E+02  0.30696227476E+02  0.00000000000E+00 0.  1.
<mgrwt>
<rscale>  2 0.18111604E+03</rscale>
<asrwt>0</asrwt>
<pdfrwt beam="1">  1       21 0.77220358E-01 0.18237873E+03</pdfrwt>
<pdfrwt beam="2">  1       21 0.25948469E-01 0.18237873E+03</pdfrwt>
<totfact> 0.21137128E+04</totfact>
</mgrwt>
</event>
<event>
12    2  0.4090627E-002  0.1854065E+03  0.7546771E-02  0.1163017E+00
         21   -1    0    0  503  502  0.00000000000E+00  0.00000000000E+00  0.84502186985E+03  0.84502186985E+03  0.00000000000E+00 0.  1.
         21   -1    0    0  501  503 -0.00000000000E+00 -0.00000000000E+00 -0.69426086361E+02  0.69426086361E+02  0.00000000000E+00 0.  1.
          6    2    1    2  501    0 -0.52302097238E+02  0.33843540065E+02  0.92838610113E+02  0.20735136351E+03  0.17462727692E+03 0.  0.
         24    2    3    3    0    0 -0.46171686293E+02 -0.12147705800E+02 -0.10734561633E+02  0.93763210346E+02  0.79980731614E+02 0.  0.
         -6    2    1    2    0  502  0.52302097238E+02 -0.33843540065E+02  0.68275717338E+03  0.70709659270E+03  0.17305299485E+03 0.  0.
        -24    2    5    5    0    0  0.26008260007E+02  0.36604558229E+02  0.51574319065E+03  0.52387524881E+03  0.80236614727E+02 0.  0.
          5    1    3    3  501    0 -0.61304109444E+01  0.45991245865E+02  0.10357317175E+03  0.11358815317E+03  0.47000000000E+01 0. -1.
        -15    1    4    4    0    0  0.29099775897E+01  0.26534464971E+02  0.90044439260E+01  0.28227354469E+02  0.17770000000E+01 0.  1.
         16    1    4    4    0    0 -0.49081663883E+02 -0.38682170772E+02 -0.19739005559E+02  0.65535855877E+02  0.00000000000E+00 0. -1.
         -5    1    5    5    0  502  0.26293837231E+02 -0.70448098294E+02  0.16701398273E+03  0.18322134389E+03  0.47000000000E+01 0.  1.
         15    1    6    6    0    0  0.32726326903E+02  0.58640900415E+02  0.33496035880E+03  0.34163045440E+03  0.17770000000E+01 0. -1.
        -16    1    6    6    0    0 -0.67180668954E+01 -0.22036342186E+02  0.18078283185E+03  0.18224479441E+03  0.00000000000E+00 0.  1.
<mgrwt>
<rscale>  2 0.18503491E+03</rscale>
<asrwt>0</asrwt>
<pdfrwt beam="1">  1       21 0.13000336E+00 0.18540653E+03</pdfrwt>
<pdfrwt beam="2">  1       21 0.10680937E-01 0.18540653E+03</pdfrwt>
<totfact> 0.31344780E+04</totfact>
</mgrwt>
</event>
<event>
12    2  0.4090627E-002  0.2054373E+03  0.7546771E-02  0.1149400E+00
         21   -1    0    0  503  502  0.00000000000E+00  0.00000000000E+00  0.83112354978E+03  0.83112354978E+03  0.00000000000E+00 0. -1.
         21   -1    0    0  501  503 -0.00000000000E+00 -0.00000000000E+00 -0.97296364577E+02  0.97296364577E+02  0.00000000000E+00 0. -1.
          6    2    1    2  501    0 -0.61247914872E+02 -0.30401299197E+02  0.38980140847E+02  0.20910266318E+03  0.19372384030E+03 0.  0.
         24    2    3    3    0    0 -0.25325338432E+02  0.56103876715E+02 -0.12485222644E+02  0.10212439157E+03  0.80526348607E+02 0.  0.
         -6    2    1    2    0  502  0.61247914872E+02  0.30401299197E+02  0.69484704436E+03  0.71931725118E+03  0.17300100208E+03 0.  0.
        -24    2    5    5    0    0 -0.10772556963E+02  0.26439422417E+02  0.55597749463E+03  0.56276219162E+03  0.82311716920E+02 0.  0.
          5    1    3    3  501    0 -0.35922576440E+02 -0.86505175913E+02  0.51465363491E+02  0.10697827161E+03  0.47000000000E+01 0. -1.
        -15    1    4    4    0    0  0.22503831311E+02 -0.49076935733E+01 -0.80850469100E+01  0.24475162766E+02  0.17770000000E+01 0.  1.
         16    1    4    4    0    0 -0.47829169743E+02  0.61011570288E+02 -0.44001757337E+01  0.77649228804E+02  0.00000000000E+00 0. -1.
         -5    1    5    5    0  502  0.72020471835E+02  0.39618767803E+01  0.13886954972E+03  0.15655505955E+03  0.47000000000E+01 0.  1.
         15    1    6    6    0    0  0.32046936929E+02  0.29470004295E+02  0.24646665199E+03  0.25028874443E+03  0.17770000000E+01 0. -1.
        -16    1    6    6    0    0 -0.42819493892E+02 -0.30305818776E+01  0.30951084264E+03  0.31247344719E+03  0.00000000000E+00 0.  1.
<mgrwt>
<rscale>  2 0.20040180E+03</rscale>
<asrwt>0</asrwt>
<pdfrwt beam="1">  1       21 0.12786516E+00 0.20543727E+03</pdfrwt>
<pdfrwt beam="2">  1       21 0.14968672E-01 0.20543727E+03</pdfrwt>
<totfact> 0.17597192E+04</totfact>
</mgrwt>
</event>
<event>
12    2  0.4090627E-002  0.1847590E+03  0.7546771E-02  0.1163516E+00
         21   -1    0    0  501  502  0.00000000000E+00  0.00000000000E+00  0.17664350228E+03  0.17664350228E+03  0.00000000000E+00 0. -1.
         21   -1    0    0  502  503 -0.00000000000E+00 -0.00000000000E+00 -0.20458076718E+03  0.20458076718E+03  0.00000000000E+00 0.  1.
         -6    2    1    2    0  503 -0.55651364591E+02 -0.32072141183E+02 -0.60941784601E+02  0.19455024370E+03  0.17323452195E+03 0.  0.
        -24    2    3    3    0    0 -0.22542960175E+02 -0.86808918225E+02 -0.41818984792E+02  0.12761704808E+03  0.80581078016E+02 0.  0.
          6    2    1    2  501    0  0.55651364591E+02  0.32072141183E+02  0.33004519695E+02  0.18667402576E+03  0.17214005040E+03 0.  0.
         24    2    5    5    0    0  0.46779058019E+02 -0.46323493354E+02  0.26132806751E+02  0.10733989831E+03  0.80652240362E+02 0.  0.
          5    1    5    5  501    0  0.88723065721E+01  0.78395634537E+02  0.68717129446E+01  0.79334127443E+02  0.47000000000E+01 0. -1.
        -15    1    6    6    0    0 -0.73912344046E+01  0.62942773121E+01 -0.17522836702E+02  0.20111086694E+02  0.17770000000E+01 0.  1.
         16    1    6    6    0    0  0.54170292423E+02 -0.52617770666E+02  0.43655643453E+02  0.87228811619E+02  0.00000000000E+00 0. -1.
         -5    1    3    3    0  503 -0.33108404416E+02  0.54736777043E+02 -0.19122799809E+02  0.66933195625E+02  0.47000000000E+01 0.  1.
         15    1    4    4    0    0 -0.19522871086E+01  0.14994772323E+02  0.10306138737E+01  0.15260226601E+02  0.17770000000E+01 0. -1.
        -16    1    4    4    0    0 -0.20590673066E+02 -0.10180369055E+03 -0.42849598666E+02  0.11235682148E+03  0.00000000000E+00 0.  1.
<mgrwt>
<rscale>  2 0.18450203E+03</rscale>
<asrwt>0</asrwt>
<pdfrwt beam="1">  1       21 0.27175924E-01 0.18475902E+03</pdfrwt>
<pdfrwt beam="2">  1       21 0.31473964E-01 0.18475902E+03</pdfrwt>
<totfact> 0.12557102E+05</totfact>
</mgrwt>
</event>
<event>
12    2  0.4090627E-002  0.2629707E+03  0.7546771E-02  0.1105389E+00
         21   -1    0    0  501  502  0.00000000000E+00  0.00000000000E+00  0.25198631701E+03  0.25198631701E+03  0.00000000000E+00 0.  1.
         21   -1    0    0  502  503 -0.00000000000E+00 -0.00000000000E+00 -0.29537066137E+03  0.29537066137E+03  0.00000000000E+00 0. -1.
         -6    2    1    2    0  503 -0.20916449113E+02  0.19671104559E+03 -0.94762133615E+02  0.27941436180E+03  0.17308896648E+03 0.  0.
        -24    2    3    3    0    0 -0.61873127409E+02  0.14852471960E+03 -0.19837669980E+02  0.18125562933E+03  0.81069068007E+02 0.  0.
          6    2    1    2  501    0  0.20916449113E+02 -0.19671104559E+03  0.51377789255E+02  0.26794261658E+03  0.17326521650E+03 0.  0.
         24    2    5    5    0    0 -0.99285484736E+01 -0.19762977729E+03  0.68615324270E+01  0.21357309326E+03  0.80064227902E+02 0.  0.
          5    1    5    5  501    0  0.30844997586E+02  0.91873170325E+00  0.44516256828E+02  0.54369523319E+02  0.47000000000E+01 0. -1.
        -15    1    6    6    0    0 -0.38387212896E+02 -0.56205816296E+02 -0.79789287465E+01  0.68552847734E+02  0.17770000000E+01 0.  1.
         16    1    6    6    0    0  0.28458664422E+02 -0.14142396099E+03  0.14840461174E+02  0.14502024552E+03  0.00000000000E+00 0. -1.
         -5    1    3    3    0  503  0.40956678297E+02  0.48186325986E+02 -0.74924463634E+02  0.98158732470E+02  0.47000000000E+01 0.  1.
         15    1    4    4    0    0 -0.71092107235E+02  0.93451129306E+02 -0.36515058201E+02  0.12297848789E+03  0.17770000000E+01 0. -1.
        -16    1    4    4    0    0  0.92189798252E+01  0.55073590294E+02  0.16677388221E+02  0.58277141443E+02  0.00000000000E+00 0.  1.
<mgrwt>
<rscale>  2 0.26294163E+03</rscale>
<asrwt>0</asrwt>
<pdfrwt beam="1">  1       21 0.38767126E-01 0.26297066E+03</pdfrwt>
<pdfrwt beam="2">  1       21 0.45441640E-01 0.26297066E+03</pdfrwt>
<totfact> 0.28787498E+04</totfact>
</mgrwt>
</event>
<event>
12    2  0.4090627E-002  0.1900181E+03  0.7546771E-02  0.1158724E+00
         21   -1    0    0  501  502  0.00000000000E+00  0.00000000000E+00  0.26580974133E+03  0.26580974133E+03  0.00000000000E+00 0. -1.
         21   -1    0    0  502  503 -0.00000000000E+00 -0.00000000000E+00 -0.14907709084E+03  0.14907709084E+03  0.00000000000E+00 0. -1.
         -6    2    1    2    0  503  0.27425772499E+02 -0.70018152868E+02 -0.56459802209E+01  0.18887044997E+03  0.17316308802E+03 0.  0.
        -24    2    3    3    0    0  0.30016280812E+02  0.18851262132E+02 -0.35032520960E+02  0.95114690512E+02  0.81013453380E+02 0.  0.
          6    2    1    2  501    0 -0.27425772499E+02  0.70018152868E+02  0.12237863071E+03  0.22601638220E+03  0.17450547567E+03 0.  0.
         24    2    5    5    0    0 -0.27523306115E+01 -0.26182111086E+02  0.27491310151E+02  0.88579257950E+02  0.79983964271E+02 0.  0.
          5    1    5    5  501    0 -0.24673441888E+02  0.96200263954E+02  0.94887320557E+02  0.13743712425E+03  0.47000000000E+01 0. -1.
        -15    1    6    6    0    0 -0.12193471494E+02  0.51311093421E+01 -0.24068138426E+02  0.27521665038E+02  0.17770000000E+01 0.  1.
         16    1    6    6    0    0  0.94411408826E+01 -0.31313220428E+02  0.51559448576E+02  0.61057592913E+02  0.00000000000E+00 0. -1.
         -5    1    3    3    0  503 -0.25905083122E+01 -0.88869415000E+02  0.29386540740E+02  0.93755759463E+02  0.47000000000E+01 0.  1.
         15    1    4    4    0    0  0.45797172305E+02 -0.14942162301E+02 -0.31644925735E+02  0.57664618781E+02  0.17770000000E+01 0. -1.
        -16    1    4    4    0    0 -0.15780891493E+02  0.33793424433E+02 -0.33875952254E+01  0.37450071731E+02  0.00000000000E+00 0.  1.
<mgrwt>
<rscale>  2 0.18970933E+03</rscale>
<asrwt>0</asrwt>
<pdfrwt beam="1">  1       21 0.40893806E-01 0.19001809E+03</pdfrwt>
<pdfrwt beam="2">  1       21 0.22934937E-01 0.19001809E+03</pdfrwt>
<totfact> 0.10288567E+05</totfact>
</mgrwt>
</event>
<event>
12    2  0.4090627E-002  0.1872594E+03  0.7546771E-02  0.1165324E+00
         21   -1    0    0  501  502  0.00000000000E+00  0.00000000000E+00  0.73436144468E+03  0.73436144468E+03  0.00000000000E+00 0.  1.
         21   -1    0    0  502  503 -0.00000000000E+00 -0.00000000000E+00 -0.53367144855E+02  0.53367144855E+02  0.00000000000E+00 0.  1.
         -6    2    1    2    0  503  0.32803498678E+02  0.62930430263E+02  0.18329183364E+03  0.26203429857E+03  0.17329099449E+03 0.  0.
        -24    2    3    3    0    0  0.75037235648E+02  0.77760816842E+00  0.81566936583E+02  0.13547717110E+03  0.77908326504E+02 0.  0.
          6    2    1    2  501    0 -0.32803498678E+02 -0.62930430263E+02  0.49770246618E+03  0.52569429096E+03  0.15365687138E+03 0.  0.
         24    2    5    5    0    0  0.10490024130E+02 -0.11757119233E+02  0.39239319067E+03  0.40077363459E+03  0.79992622388E+02 0.  0.
          5    1    5    5  501    0 -0.43293522808E+02 -0.51173311030E+02  0.10530927551E+03  0.12492065637E+03  0.47000000000E+01 0. -1.
        -15    1    6    6    0    0 -0.25277597542E+02 -0.20786409160E+01  0.30217181609E+03  0.30323957831E+03  0.17770000000E+01 0.  1.
         16    1    6    6    0    0  0.35767621672E+02 -0.96784783166E+01  0.90221374578E+02  0.97534056274E+02  0.00000000000E+00 0. -1.
         -5    1    3    3    0  503 -0.42233736969E+02  0.62152822094E+02  0.10172489706E+03  0.12655712747E+03  0.47000000000E+01 0.  1.
         15    1    4    4    0    0 -0.68731149575E+01 -0.21805127754E+02  0.21391088081E+02  0.31359841898E+02  0.17770000000E+01 0. -1.
        -16    1    4    4    0    0  0.81910350605E+02  0.22582735922E+02  0.60175848502E+02  0.10411732921E+03  0.00000000000E+00 0.  1.
<mgrwt>
<rscale>  2 0.18258584E+03</rscale>
<asrwt>0</asrwt>
<pdfrwt beam="1">  1       21 0.11297868E+00 0.18725939E+03</pdfrwt>
<pdfrwt beam="2">  1       21 0.82103305E-02 0.18725939E+03</pdfrwt>
<totfact> 0.70385870E+04</totfact>
</mgrwt>
</event>
<event>
12    2  0.4090627E-002  0.2488351E+03  0.7546771E-02  0.1115113E+00
         21   -1    0    0  503  502  0.00000000000E+00  0.00000000000E+00  0.10859803677E+04  0.10859803677E+04  0.00000000000E+00 0.  1.
         21   -1    0    0  501  503 -0.00000000000E+00 -0.00000000000E+00 -0.61980676303E+02  0.61980676303E+02  0.00000000000E+00 0.  1.
          6    2    1    2  501    0 -0.15555645417E+03  0.79070779200E+02  0.32032923064E+03  0.40158914586E+03  0.16796734061E+03 0.  0.
         24    2    3    3    0    0 -0.27627052443E+02  0.59419544733E+01  0.66975711036E+02  0.10846143866E+03  0.80495819504E+02 0.  0.
         -6    2    1    2    0  502  0.15555645417E+03 -0.79070779200E+02  0.70367046076E+03  0.74637189815E+03  0.17739474187E+03 0.  0.
        -24    2    5    5    0    0  0.10009353470E+03 -0.12308063050E+03  0.52158653123E+03  0.55095017510E+03  0.79536335007E+02 0.  0.
          5    1    3    3  501    0 -0.12792940173E+03  0.73128824727E+02  0.25335351961E+03  0.29312770720E+03  0.47000000000E+01 0. -1.
        -15    1    4    4    0    0 -0.46154569351E+02 -0.53912356220E+01  0.72425471510E+02  0.86069253198E+02  0.17770000000E+01 0.  1.
         16    1    4    4    0    0  0.18527516908E+02  0.11333190095E+02 -0.54497604742E+01  0.22392185462E+02  0.00000000000E+00 0. -1.
         -5    1    5    5    0  502  0.55462919469E+02  0.44009851296E+02  0.18208392953E+03  0.19542172305E+03  0.47000000000E+01 0.  1.
         15    1    6    6    0    0  0.13295661819E+02 -0.75868071825E+01  0.78684190125E+01  0.17303294865E+02  0.17770000000E+01 0. -1.
        -16    1    6    6    0    0  0.86797872880E+02 -0.11549382331E+03  0.51371811222E+03  0.53364688023E+03  0.00000000000E+00 0.  1.
<mgrwt>
<rscale>  2 0.24716061E+03</rscale>
<asrwt>0</asrwt>
<pdfrwt beam="1">  1       21 0.16707389E+00 0.24883507E+03</pdfrwt>
<pdfrwt beam="2">  1       21 0.95354895E-02 0.24883507E+03</pdfrwt>
<totfact> 0.19050422E+04</totfact>
</mgrwt>
</event>
<event>
12    2  0.4090627E-002  0.1766869E+03  0.7546771E-02  0.1171245E+00
         21   -1    0    0  503  502  0.00000000000E+00  0.00000000000E+00  0.67157415435E+03  0.67157415435E+03  0.00000000000E+00 0.  1.
         21   -1    0    0  501  503 -0.00000000000E+00 -0.00000000000E+00 -0.47461038946E+02  0.47461038946E+02  0.00000000000E+00 0.  1.
          6    2    1    2  501    0  0.36061359005E+02 -0.74261161370E+01  0.36951043501E+03  0.40958053179E+03  0.17280822209E+03 0.  0.
         24    2    3    3    0    0  0.84375106487E+02  0.23682607789E+02  0.24306648898E+03  0.27061243333E+03  0.80434734423E+02 0.  0.
         -6    2    1    2    0  502 -0.36061359005E+02  0.74261161370E+01  0.25460268039E+03  0.30945466151E+03  0.17200027283E+03 0.  0.
        -24    2    5    5    0    0 -0.35477198150E+02  0.63134038118E+02  0.10971436550E+03  0.15415357456E+03  0.80508038079E+02 0.  0.
          5    1    3    3  501    0 -0.48313747482E+02 -0.31108723926E+02  0.12644394604E+03  0.13896809846E+03  0.47000000000E+01 0. -1.
        -15    1    4    4    0    0  0.28406702650E+02  0.40232203197E+02  0.17054417237E+03  0.17752195185E+03  0.17770000000E+01 0.  1.
         16    1    4    4    0    0  0.55968403836E+02 -0.16549595408E+02  0.72522316607E+02  0.93090481480E+02  0.00000000000E+00 0. -1.
         -5    1    5    5    0  502 -0.58416085530E+00 -0.55707921981E+02  0.14488831489E+03  0.15530108694E+03  0.47000000000E+01 0.  1.
         15    1    6    6    0    0  0.16997687574E+02 -0.81313352070E+01  0.12461323836E+02  0.22660148187E+02  0.17770000000E+01 0. -1.
        -16    1    6    6    0    0 -0.52474885724E+02  0.71265373325E+02  0.97253041665E+02  0.13149342637E+03  0.00000000000E+00 0.  1.
<mgrwt>
<rscale>  2 0.17648901E+03</rscale>
<asrwt>0</asrwt>
<pdfrwt beam="1">  1       21 0.10331909E+00 0.17668687E+03</pdfrwt>
<pdfrwt beam="2">  1       21 0.73016988E-02 0.17668687E+03</pdfrwt>
<totfact> 0.10749064E+05</totfact>
</mgrwt>
</event>
<event>
12    2  0.4090627E-002  0.1776210E+03  0.7546771E-02  0.1170341E+00
         21   -1    0    0  503  502  0.00000000000E+00  0.00000000000E+00  0.16146349974E+04  0.16146349974E+04  0.00000000000E+00 0.  1.
         21   -1    0    0  501  503 -0.00000000000E+00 -0.00000000000E+00 -0.36896590739E+02  0.36896590739E+02  0.00000000000E+00 0.  1.
          6    2    1    2  501    0 -0.18411202329E+02 -0.31155191955E+02  0.22196036588E+03  0.28428086590E+03  0.17389533731E+03 0.  0.
         24    2    3    3    0    0  0.61088859150E+01  0.68806342473E+01  0.22384212146E+03  0.23874417952E+03  0.82515612464E+02 0.  0.
         -6    2    1    2    0  502  0.18411202329E+02  0.31155191955E+02  0.13557780408E+04  0.13672507222E+04  0.17300526941E+03 0.  0.
        -24    2    5    5    0    0 -0.34331747116E+02 -0.59171331238E+01  0.55213422250E+03  0.56101151910E+03  0.93102328610E+02 0.  0.
          5    1    3    3  501    0 -0.24520088244E+02 -0.38035826202E+02 -0.18817555806E+01  0.45536686380E+02  0.47000000000E+01 0. -1.
        -15    1    4    4    0    0 -0.30609596279E+02  0.26403776544E+01  0.36278296364E+02  0.47573012250E+02  0.17770000000E+01 0.  1.
         16    1    4    4    0    0  0.36718482194E+02  0.42402565929E+01  0.18756382510E+03  0.19117116727E+03  0.00000000000E+00 0. -1.
         -5    1    5    5    0  502  0.52742949445E+02  0.37072325079E+02  0.80364381828E+03  0.80623920313E+03  0.47000000000E+01 0.  1.
         15    1    6    6    0    0 -0.24207670955E+02  0.17399512530E+02  0.51582365351E+03  0.51668748158E+03  0.17770000000E+01 0. -1.
        -16    1    6    6    0    0 -0.10124076160E+02 -0.23316645654E+02  0.36310568986E+02  0.44324037528E+02  0.00000000000E+00 0.  1.
<mgrwt>
<rscale>  2 0.17740274E+03</rscale>
<asrwt>0</asrwt>
<pdfrwt beam="1">  1       21 0.24840533E+00 0.17762096E+03</pdfrwt>
<pdfrwt beam="2">  1       21 0.56763998E-02 0.17762096E+03</pdfrwt>
<totfact> 0.14936856E+04</totfact>
</mgrwt>
</event>
<event>
12    2  0.4090627E-002  0.5698841E+03  0.7546771E-02  0.9970383E-01
         21   -1    0    0  501  502  0.00000000000E+00  0.00000000000E+00  0.82572767629E+03  0.82572767629E+03  0.00000000000E+00 0. -1.
         21   -1    0    0  502  503 -0.00000000000E+00 -0.00000000000E+00 -0.39373308726E+03  0.39373308726E+03  0.00000000000E+00 0.  1.
         -6    2    1    2    0  503 -0.40699833735E+03 -0.35826078956E+03  0.18573001999E+03  0.59938599922E+03  0.17541235929E+03 0.  0.
        -24    2    3    3    0    0 -0.11317894640E+03 -0.15286451921E+03  0.32612144487E+02  0.20953392962E+03  0.81632594911E+02 0.  0.
          6    2    1    2  501    0  0.40699833735E+03  0.35826078956E+03  0.24626456904E+03  0.62007476434E+03  0.17276583999E+03 0.  0.
         24    2    5    5    0    0  0.81386040739E+02  0.94037680518E+02  0.50926394069E+02  0.15745579407E+03  0.82049110225E+02 0.  0.
          5    1    5    5  501    0  0.32561229661E+03  0.26422310904E+03  0.19533817497E+03  0.46261897027E+03  0.47000000000E+01 0. -1.
        -15    1    6    6    0    0 -0.11307356676E+02  0.40168786279E+02  0.15291805278E+02  0.44479037127E+02  0.17770000000E+01 0.  1.
         16    1    6    6    0    0  0.92693397415E+02  0.53868894240E+02  0.35634588791E+02  0.11297675694E+03  0.00000000000E+00 0. -1.
         -5    1    3    3    0  503 -0.29381939095E+03 -0.20539627035E+03  0.15311787550E+03  0.38985206960E+03  0.47000000000E+01 0.  1.
         15    1    4    4    0    0 -0.19531203001E+02 -0.15275649817E+02 -0.23187121813E+02  0.33994318863E+02  0.17770000000E+01 0. -1.
        -16    1    4    4    0    0 -0.93647743398E+02 -0.13758886939E+03  0.55799266300E+02  0.17553961076E+03  0.00000000000E+00 0.  1.
<mgrwt>
<rscale>  2 0.56968178E+03</rscale>
<asrwt>0</asrwt>
<pdfrwt beam="1">  1       21 0.12703503E+00 0.56988414E+03</pdfrwt>
<pdfrwt beam="2">  1       21 0.60574321E-01 0.56988414E+03</pdfrwt>
<totfact> 0.94302887E+02</totfact>
</mgrwt>
</event>
<event>
12    2  0.4090627E-002  0.1845059E+03  0.7546771E-02  0.1163538E+00
         21   -1    0    0  503  502  0.00000000000E+00  0.00000000000E+00  0.10893903264E+03  0.10893903264E+03  0.00000000000E+00 0.  1.
         21   -1    0    0  501  503 -0.00000000000E+00 -0.00000000000E+00 -0.37719928494E+03  0.37719928494E+03  0.00000000000E+00 0.  1.
          6    2    1    2  501    0 -0.10168378384E+02  0.59720666937E+02 -0.23498292476E+03  0.29876312228E+03  0.17427700459E+03 0.  0.
         24    2    3    3    0    0  0.59091409665E+01  0.98414293632E+02 -0.11014128048E+03  0.16699359044E+03  0.77688264520E+02 0.  0.
         -6    2    1    2    0  502  0.10168378384E+02 -0.59720666937E+02 -0.33277327532E+02  0.18737519529E+03  0.17416121642E+03 0.  0.
        -24    2    5    5    0    0  0.10630238695E+02  0.33943855538E+02  0.22157274470E+01  0.87100058610E+02  0.79475300933E+02 0.  0.
          5    1    3    3  501    0 -0.16077519351E+02 -0.38693626695E+02 -0.12484164428E+03  0.13176953184E+03  0.47000000000E+01 0. -1.
        -15    1    4    4    0    0 -0.37840350830E+01  0.45218794383E+02 -0.12643981082E+01  0.45429227580E+02  0.17770000000E+01 0.  1.
         16    1    4    4    0    0  0.96931760495E+01  0.53195499249E+02 -0.10887688237E+03  0.12156436286E+03  0.00000000000E+00 0. -1.
         -5    1    5    5    0  502 -0.46186031024E+00 -0.93664522475E+02 -0.35493054979E+02  0.10027513668E+03  0.47000000000E+01 0.  1.
         15    1    6    6    0    0 -0.28666700537E+02 -0.68860242182E+01  0.65933707272E+01  0.30262638942E+02  0.17770000000E+01 0. -1.
        -16    1    6    6    0    0  0.39296939231E+02  0.40829879756E+02 -0.43776432802E+01  0.56837419668E+02  0.00000000000E+00 0.  1.
<mgrwt>
<rscale>  2 0.18447856E+03</rscale>
<asrwt>0</asrwt>
<pdfrwt beam="1">  1       21 0.16759851E-01 0.18450590E+03</pdfrwt>
<pdfrwt beam="2">  1       21 0.58030659E-01 0.18450590E+03</pdfrwt>
<totfact> 0.89414337E+04</totfact>
</mgrwt>
</event>
<event>
12    2  0.4090627E-002  0.1769033E+03  0.7546771E-02  0.1170850E+00
         21   -1    0    0  501  502  0.00000000000E+00  0.00000000000E+00  0.87466385884E+03  0.87466385884E+03  0.00000000000E+00 0. -1.
         21   -1    0    0  502  503 -0.00000000000E+00 -0.00000000000E+00 -0.53131436343E+02  0.53131436343E+02  0.00000000000E+00 0. -1.
         -6    2    1    2    0  503 -0.29263528535E+02 -0.27031306369E+02  0.14550870027E+03  0.22900860028E+03  0.17229367813E+03 0.  0.
        -24    2    3    3    0    0 -0.40715382376E+02 -0.30067919306E+02  0.17533067519E+03  0.19657703906E+03  0.73074376425E+02 0.  0.
          6    2    1    2  501    0  0.29263528535E+02  0.27031306369E+02  0.67602372223E+03  0.69878669490E+03  0.17235929427E+03 0.  0.
         24    2    5    5    0    0  0.57395363446E+02  0.26376075067E+01  0.21996810930E+03  0.24118942134E+03  0.80530634793E+02 0.  0.
          5    1    5    5  501    0 -0.28131834911E+02  0.24393698862E+02  0.45605561294E+03  0.45759727356E+03  0.47000000000E+01 0. -1.
        -15    1    6    6    0    0  0.77125226164E+02  0.10068902637E+02  0.17009728001E+03  0.18704525043E+03  0.17770000000E+01 0.  1.
         16    1    6    6    0    0 -0.19729862718E+02 -0.74312951308E+01  0.49870829284E+02  0.54144170911E+02  0.00000000000E+00 0. -1.
         -5    1    3    3    0  503  0.11451853841E+02  0.30366129370E+01 -0.29821974928E+02  0.32431561220E+02  0.47000000000E+01 0.  1.
         15    1    4    4    0    0 -0.21726269912E+02 -0.38333015267E+01  0.43505765137E+01  0.22556822690E+02  0.17770000000E+01 0. -1.
        -16    1    4    4    0    0 -0.18989112464E+02 -0.26234617779E+02  0.17098009868E+03  0.17402021637E+03  0.00000000000E+00 0.  1.
<mgrwt>
<rscale>  2 0.17688730E+03</rscale>
<asrwt>0</asrwt>
<pdfrwt beam="1">  1       21 0.13456366E+00 0.17690328E+03</pdfrwt>
<pdfrwt beam="2">  1       21 0.81740678E-02 0.17690328E+03</pdfrwt>
<totfact> 0.46181613E+04</totfact>
</mgrwt>
</event>
<event>
12    2  0.4090627E-002  0.3145838E+03  0.7546771E-02  0.1078441E+00
         21   -1    0    0  501  502  0.00000000000E+00  0.00000000000E+00  0.56027244342E+03  0.56027244342E+03  0.00000000000E+00 0. -1.
         21   -1    0    0  502  503 -0.00000000000E+00 -0.00000000000E+00 -0.17535124849E+03  0.17535124849E+03  0.00000000000E+00 0.  1.
         -6    2    1    2    0  503  0.19790093593E+03 -0.16926937070E+03  0.18969352004E+03  0.36538481444E+03  0.17235292506E+03 0.  0.
        -24    2    3    3    0    0  0.10738234826E+03 -0.17375499731E+03  0.11993117070E+03  0.25091817761E+03  0.82792984870E+02 0.  0.
          6    2    1    2  501    0 -0.19790093593E+03  0.16926937070E+03  0.19522767490E+03  0.37023887747E+03  0.17648252335E+03 0.  0.
         24    2    5    5    0    0 -0.14185917576E+03  0.41840037231E+02  0.73743339988E+02  0.18541613120E+03  0.84062161854E+02 0.  0.
          5    1    5    5  501    0 -0.56041760176E+02  0.12742933346E+03  0.12148433491E+03  0.18482274627E+03  0.47000000000E+01 0. -1.
        -15    1    6    6    0    0 -0.18714117874E+02  0.78619308355E+01 -0.18758096705E+02  0.27695705177E+02  0.17770000000E+01 0.  1.
         16    1    6    6    0    0 -0.12314505788E+03  0.33978106396E+02  0.92501436693E+02  0.15772042602E+03  0.00000000000E+00 0. -1.
         -5    1    3    3    0  503  0.90518587673E+02  0.44856266116E+01  0.69762349336E+02  0.11446663682E+03  0.47000000000E+01 0.  1.
         15    1    4    4    0    0  0.90390757713E+02 -0.90890018051E+02  0.10346533691E+03  0.16474136740E+03  0.17770000000E+01 0. -1.
        -16    1    4    4    0    0  0.16991590546E+02 -0.82864979256E+02  0.16465833794E+02  0.86176810215E+02  0.00000000000E+00 0.  1.
<mgrwt>
<rscale>  2 0.31400774E+03</rscale>
<asrwt>0</asrwt>
<pdfrwt beam="1">  1       21 0.86195760E-01 0.31458382E+03</pdfrwt>
<pdfrwt beam="2">  1       21 0.26977115E-01 0.31458382E+03</pdfrwt>
<totfact> 0.14257743E+04</totfact>
</mgrwt>
</event>
<event>
12    2  0.4090627E-002  0.1806650E+03  0.7546771E-02  0.1167608E+00
         21   -1    0    0  501  502  0.00000000000E+00  0.00000000000E+00  0.82170416524E+02  0.82170416524E+02  0.00000000000E+00 0. -1.
         21   -1    0    0  502  503 -0.00000000000E+00 -0.00000000000E+00 -0.10389472315E+04  0.10389472315E+04  0.00000000000E+00 0.  1.
         -6    2    1    2    0  503 -0.28954083623E+02  0.48551002524E+02 -0.92125737912E+03  0.93880509286E+03  0.17159342938E+03 0.  0.
        -24    2    3    3    0    0  0.14778511930E+02  0.89132186183E+02 -0.63058220972E+03  0.64203326724E+03  0.80061488863E+02 0.  0.
          6    2    1    2  501    0  0.28954083623E+02 -0.48551002524E+02 -0.35519435851E+02  0.18231255515E+03  0.16964875077E+03 0.  0.
         24    2    5    5    0    0  0.83556239587E+00 -0.43762076672E+02 -0.88101651924E+02  0.12230785122E+03  0.72673873428E+02 0.  0.
          5    1    5    5  501    0  0.28118521227E+02 -0.47889258518E+01  0.52582216073E+02  0.60004703932E+02  0.47000000000E+01 0. -1.
        -15    1    6    6    0    0 -0.22561258845E+02 -0.47762455567E+02 -0.32994698788E+02  0.62306263245E+02  0.17770000000E+01 0.  1.
         16    1    6    6    0    0  0.23396821241E+02  0.40003788953E+01 -0.55106953136E+02  0.60001587974E+02  0.00000000000E+00 0. -1.
         -5    1    3    3    0  503 -0.43732595552E+02 -0.40581183659E+02 -0.29067516940E+03  0.29677182563E+03  0.47000000000E+01 0.  1.
         15    1    4    4    0    0  0.21404536353E+02  0.36313336962E+02 -0.96689388118E+02  0.10549316623E+03  0.17770000000E+01 0. -1.
        -16    1    4    4    0    0 -0.66260244232E+01  0.52818849221E+02 -0.53389282160E+03  0.53654010101E+03  0.00000000000E+00 0.  1.
<mgrwt>
<rscale>  2 0.18020173E+03</rscale>
<asrwt>0</asrwt>
<pdfrwt beam="1">  1       21 0.12641603E-01 0.18066500E+03</pdfrwt>
<pdfrwt beam="2">  1       21 0.15983804E+00 0.18066500E+03</pdfrwt>
<totfact> 0.13610831E+04</totfact>
</mgrwt>
</event>
<event>
12    2  0.4090627E-002  0.1849244E+03  0.7546771E-02  0.1163299E+00
         21   -1    0    0  503  502  0.00000000000E+00  0.00000000000E+00  0.28042183131E+03  0.28042183131E+03  0.00000000000E+00 0. -1.
         21   -1    0    0  501  503 -0.00000000000E+00 -0.00000000000E+00 -0.23830060878E+03  0.23830060878E+03  0.00000000000E+00 0. -1.
          6    2    1    2  501    0  0.64387348588E+02 -0.58257691530E+01 -0.16053757754E+03  0.24488638590E+03  0.17325518160E+03 0.  0.
         24    2    3    3    0    0  0.19089896356E+02 -0.39757884777E+02 -0.19682790880E+02  0.93013384428E+02  0.79491910790E+02 0.  0.
         -6    2    1    2    0  502 -0.64387348588E+02  0.58257691530E+01  0.20265880007E+03  0.27383605420E+03  0.17244107715E+03 0.  0.
        -24    2    5    5    0    0 -0.67052665178E+02 -0.51334051187E+02  0.17616479623E+03  0.21060337899E+03  0.78667039438E+02 0.  0.
          5    1    3    3  501    0  0.45297452232E+02  0.33932115624E+02 -0.14085478666E+03  0.15187300147E+03  0.47000000000E+01 0. -1.
        -15    1    4    4    0    0 -0.72560337077E+01  0.17903638245E+02 -0.22308484841E+02  0.29563770269E+02  0.17770000000E+01 0.  1.
         16    1    4    4    0    0  0.26345930064E+02 -0.57661523023E+02  0.26256939615E+01  0.63449614159E+02  0.00000000000E+00 0. -1.
         -5    1    5    5    0  502  0.26653165902E+01  0.57159820340E+02  0.26494003842E+02  0.63232675204E+02  0.47000000000E+01 0.  1.
         15    1    6    6    0    0  0.43437016261E+01  0.95624321863E+01  0.61591846162E+02  0.62506168461E+02  0.17770000000E+01 0. -1.
        -16    1    6    6    0    0 -0.71396366804E+02 -0.60896483373E+02  0.11457295007E+03  0.14809721053E+03  0.00000000000E+00 0.  1.
<mgrwt>
<rscale>  2 0.18473346E+03</rscale>
<asrwt>0</asrwt>
<pdfrwt beam="1">  1       21 0.43141820E-01 0.18492439E+03</pdfrwt>
<pdfrwt beam="2">  1       21 0.36661632E-01 0.18492439E+03</pdfrwt>
<totfact> 0.37213313E+04</totfact>
</mgrwt>
</event>
<event>
12    2  0.4090627E-002  0.2054512E+03  0.7546771E-02  0.1145492E+00
         21   -1    0    0  503  502  0.00000000000E+00  0.00000000000E+00  0.12278540226E+03  0.12278540226E+03  0.00000000000E+00 0.  1.
         21   -1    0    0  501  503 -0.00000000000E+00 -0.00000000000E+00 -0.74581719337E+03  0.74581719337E+03  0.00000000000E+00 0.  1.
          6    2    1    2  501    0 -0.57195076847E+02  0.94388657704E+02 -0.63172860153E+03  0.66429754787E+03  0.17329082665E+03 0.  0.
         24    2    3    3    0    0 -0.40990834594E+02  0.52313817285E+01 -0.47601834112E+03  0.48407720351E+03  0.77650898237E+02 0.  0.
         -6    2    1    2    0  502  0.57195076847E+02 -0.94388657704E+02  0.86968104190E+01  0.20430504777E+03  0.17171028657E+03 0.  0.
        -24    2    5    5    0    0  0.99682516572E+02 -0.93994722251E+02 -0.63064430863E+01  0.15900024300E+03  0.80434408852E+02 0.  0.
          5    1    3    3  501    0 -0.16204242253E+02  0.89157275975E+02 -0.15571026040E+03  0.18022034436E+03  0.47000000000E+01 0. -1.
        -15    1    4    4    0    0 -0.48165114207E+02  0.28584061056E+02 -0.22500487218E+03  0.23187771994E+03  0.17770000000E+01 0.  1.
         16    1    4    4    0    0  0.71742796128E+01 -0.23352679327E+02 -0.25101346895E+03  0.25219948357E+03  0.00000000000E+00 0. -1.
         -5    1    5    5    0  502 -0.42487439725E+02 -0.39393545306E+00  0.15003253505E+02  0.45304804770E+02  0.47000000000E+01 0.  1.
         15    1    6    6    0    0  0.24928272019E+02  0.12250142367E+02 -0.84088499429E+01  0.29074924252E+02  0.17770000000E+01 0. -1.
        -16    1    6    6    0    0  0.74754244552E+02 -0.10624486462E+03  0.21024068566E+01  0.12992531874E+03  0.00000000000E+00 0.  1.
<mgrwt>
<rscale>  2 0.20511757E+03</rscale>
<asrwt>0</asrwt>
<pdfrwt beam="1">  1       21 0.18890062E-01 0.20545123E+03</pdfrwt>
<pdfrwt beam="2">  1       21 0.11474111E+00 0.20545123E+03</pdfrwt>
<totfact> 0.15006099E+04</totfact>
</mgrwt>
</event>
<event>
12    2  0.4090627E-002  0.2087862E+03  0.7546771E-02  0.1143602E+00
         21   -1    0    0  501  502  0.00000000000E+00  0.00000000000E+00  0.16837174608E+03  0.16837174608E+03  0.00000000000E+00 0. -1.
         21   -1    0    0  502  503 -0.00000000000E+00 -0.00000000000E+00 -0.48757384488E+03  0.48757384488E+03  0.00000000000E+00 0. -1.
         -6    2    1    2    0  503  0.26624618799E+02 -0.10388080620E+03 -0.38844193945E+03  0.44099753791E+03  0.17914127357E+03 0.  0.
        -24    2    3    3    0    0  0.81140345817E+02 -0.10378455298E+03 -0.27219089304E+03  0.31251263783E+03  0.78875074596E+02 0.  0.
          6    2    1    2  501    0 -0.26624618799E+02  0.10388080620E+03  0.69239840653E+02  0.21494805304E+03  0.17294050349E+03 0.  0.
         24    2    5    5    0    0 -0.51448733988E+02  0.24545655241E+02  0.82831210741E+02  0.13058503855E+03  0.83318553757E+02 0.  0.
          5    1    5    5  501    0  0.24824115189E+02  0.79335150963E+02 -0.13591370088E+02  0.84363014492E+02  0.47000000000E+01 0. -1.
        -15    1    6    6    0    0  0.22264320452E+02  0.45911627759E+01  0.30189005580E+02  0.37832691256E+02  0.17770000000E+01 0.  1.
         16    1    6    6    0    0 -0.73713054439E+02  0.19954492465E+02  0.52642205161E+02  0.92752347294E+02  0.00000000000E+00 0. -1.
         -5    1    3    3    0  503 -0.54515727018E+02 -0.96253221660E-01 -0.11625104642E+03  0.12848490008E+03  0.47000000000E+01 0.  1.
         15    1    4    4    0    0  0.21152269999E+02 -0.68876866186E+01 -0.12175850255E+03  0.12378670940E+03  0.17770000000E+01 0. -1.
        -16    1    4    4    0    0  0.59988075818E+02 -0.96896866364E+02 -0.15043239049E+03  0.18872592842E+03  0.00000000000E+00 0.  1.
<mgrwt>
<rscale>  2 0.20744959E+03</rscale>
<asrwt>0</asrwt>
<pdfrwt beam="1">  1       21 0.25903346E-01 0.20878623E+03</pdfrwt>
<pdfrwt beam="2">  1       21 0.75011360E-01 0.20878623E+03</pdfrwt>
<totfact> 0.22281164E+04</totfact>
</mgrwt>
</event>
<event>
12    2  0.4090627E-002  0.1927195E+03  0.7546771E-02  0.1158854E+00
         21   -1    0    0  503  502  0.00000000000E+00  0.00000000000E+00  0.54573867049E+03  0.54573867049E+03  0.00000000000E+00 0. -1.
         21   -1    0    0  501  503 -0.00000000000E+00 -0.00000000000E+00 -0.67611239192E+02  0.67611239192E+02  0.00000000000E+00 0.  1.
          6    2    1    2  501    0 -0.51840098166E+02 -0.10589200376E+02  0.15864335259E+03  0.24024014391E+03  0.17247633601E+03 0.  0.
         24    2    3    3    0    0 -0.61488263196E+02  0.45336894870E+02  0.14411186886E+03  0.18146881385E+03  0.79539041395E+02 0.  0.
         -6    2    1    2    0  502  0.51840098166E+02  0.10589200376E+02  0.31948407870E+03  0.37310976577E+03  0.18531404108E+03 0.  0.
        -24    2    5    5    0    0  0.32285027464E+02  0.54278593828E+02  0.30702340382E+03  0.32342553981E+03  0.79700819067E+02 0.  0.
          5    1    3    3  501    0  0.96481650296E+01 -0.55926095246E+02  0.14531483729E+02  0.58771330062E+02  0.47000000000E+01 0. -1.
        -15    1    4    4    0    0 -0.27451855003E+02  0.18062555383E+02  0.21743214203E+01  0.32980989263E+02  0.17770000000E+01 0.  1.
         16    1    4    4    0    0 -0.34036408192E+02  0.27274339487E+02  0.14193754744E+03  0.14848782459E+03  0.00000000000E+00 0. -1.
         -5    1    5    5    0  502  0.19555070702E+02 -0.43689393452E+02  0.12460674880E+02  0.49684225956E+02  0.47000000000E+01 0.  1.
         15    1    6    6    0    0  0.58505173249E+02  0.45091114298E+02  0.22592213037E+03  0.23769735086E+03  0.17770000000E+01 0. -1.
        -16    1    6    6    0    0 -0.26220145785E+02  0.91874795297E+01  0.81101273454E+02  0.85728188952E+02  0.00000000000E+00 0.  1.
<mgrwt>
<rscale>  2 0.18956546E+03</rscale>
<asrwt>0</asrwt>
<pdfrwt beam="1">  1       21 0.83959793E-01 0.19271954E+03</pdfrwt>
<pdfrwt beam="2">  1       21 0.10401729E-01 0.19271954E+03</pdfrwt>
<totfact> 0.93279101E+04</totfact>
</mgrwt>
</event>
<event>
12    2  0.4090627E-002  0.3131707E+03  0.7546771E-02  0.1079011E+00
         21   -1    0    0  501  502  0.00000000000E+00  0.00000000000E+00  0.20163800669E+03  0.20163800669E+03  0.00000000000E+00 0. -1.
         21   -1    0    0  502  503 -0.00000000000E+00 -0.00000000000E+00 -0.48469255154E+03  0.48469255154E+03  0.00000000000E+00 0.  1.
         -6    2    1    2    0  503 -0.11182619253E+03 -0.23471799967E+03 -0.15382544826E+03  0.34890996920E+03  0.17458024336E+03 0.  0.
        -24    2    3    3    0    0 -0.53939948260E+02 -0.71921139048E+02 -0.12528683624E+03  0.17372384680E+03  0.80006345706E+02 0.  0.
          6    2    1    2  501    0  0.11182619253E+03  0.23471799967E+03 -0.12922909660E+03  0.33742058903E+03  0.17191526340E+03 0.  0.
         24    2    5    5    0    0  0.10468677837E+03  0.25010729250E+03 -0.14145712156E+03  0.31598659353E+03  0.79526289497E+02 0.  0.
          5    1    5    5  501    0  0.71394141606E+01 -0.15389292836E+02  0.12228024963E+02  0.21433995499E+02  0.47000000000E+01 0. -1.
        -15    1    6    6    0    0  0.58988534650E+02  0.87955884013E+02 -0.92300818503E+02  0.14049371366E+03  0.17770000000E+01 0.  1.
         16    1    6    6    0    0  0.45698243718E+02  0.16215140849E+03 -0.49156303057E+02  0.17549287987E+03  0.00000000000E+00 0. -1.
         -5    1    3    3    0  503 -0.57886244269E+02 -0.16279686062E+03 -0.28538612016E+02  0.17518612239E+03  0.47000000000E+01 0.  1.
         15    1    4    4    0    0 -0.14507568281E+02 -0.35267777039E+02 -0.90104143034E+00  0.38187108288E+02  0.17770000000E+01 0. -1.
        -16    1    4    4    0    0 -0.39432379979E+02 -0.36653362008E+02 -0.12438579481E+03  0.13553673852E+03  0.00000000000E+00 0.  1.
<mgrwt>
<rscale>  2 0.31280062E+03</rscale>
<asrwt>0</asrwt>
<pdfrwt beam="1">  1       21 0.31021232E-01 0.31317072E+03</pdfrwt>
<pdfrwt beam="2">  1       21 0.74568085E-01 0.31317072E+03</pdfrwt>
<totfact> 0.15114249E+04</totfact>
</mgrwt>
</event>
<event>
12    2  0.4090627E-002  0.1914242E+03  0.7546771E-02  0.1157585E+00
         21   -1    0    0  501  502  0.00000000000E+00  0.00000000000E+00  0.37459155441E+02  0.37459155441E+02  0.00000000000E+00 0.  1.
         21   -1    0    0  502  503 -0.00000000000E+00 -0.00000000000E+00 -0.10325478832E+04  0.10325478832E+04  0.00000000000E+00 0. -1.
         -6    2    1    2    0  503 -0.73070075445E+02  0.28560823065E+02 -0.62797939382E+03  0.65598712472E+03  0.17264423592E+03 0.  0.
        -24    2    3    3    0    0 -0.57853609388E+00  0.67952745064E+02 -0.39310310085E+03  0.40699774785E+03  0.80617669206E+02 0.  0.
          6    2    1    2  501    0  0.73070075445E+02 -0.28560823065E+02 -0.36710933390E+03  0.41401991388E+03  0.17460890446E+03 0.  0.
         24    2    5    5    0    0 -0.46264073339E+01  0.13129637635E+02 -0.27397663564E+03  0.28568197158E+03  0.79732057411E+02 0.  0.
          5    1    5    5  501    0  0.77696482779E+02 -0.41690460700E+02 -0.93132698253E+02  0.12833794230E+03  0.47000000000E+01 0. -1.
        -15    1    6    6    0    0  0.14311240820E+02 -0.18415939612E+02 -0.25928878398E+02  0.34920236391E+02  0.17770000000E+01 0.  1.
         16    1    6    6    0    0 -0.18937648153E+02  0.31545577248E+02 -0.24804775724E+03  0.25076173519E+03  0.00000000000E+00 0. -1.
         -5    1    3    3    0  503 -0.72491539351E+02 -0.39391921999E+02 -0.23487629297E+03  0.24898937687E+03  0.47000000000E+01 0.  1.
         15    1    4    4    0    0 -0.21792195898E+02  0.19926525313E+02 -0.28795411914E+03  0.28946968524E+03  0.17770000000E+01 0. -1.
        -16    1    4    4    0    0  0.21213659804E+02  0.48026219751E+02 -0.10514898171E+03  0.11752806261E+03  0.00000000000E+00 0.  1.
<mgrwt>
<rscale>  2 0.19097503E+03</rscale>
<asrwt>0</asrwt>
<pdfrwt beam="1">  1       21 0.57629473E-02 0.19142420E+03</pdfrwt>
<pdfrwt beam="2">  1       21 0.15885351E+00 0.19142420E+03</pdfrwt>
<totfact> 0.54248907E+04</totfact>
</mgrwt>
</event>
<event>
12    2  0.4090627E-002  0.1750752E+03  0.7546771E-02  0.1178025E+00
         21   -1    0    0  501  502  0.00000000000E+00  0.00000000000E+00  0.10178228289E+04  0.10178228289E+04  0.00000000000E+00 0. -1.
         21   -1    0    0  502  503 -0.00000000000E+00 -0.00000000000E+00 -0.31015171052E+02  0.31015171052E+02  0.00000000000E+00 0. -1.
         -6    2    1    2    0  503 -0.22649320588E+02 -0.16567527089E+02  0.71312523917E+03  0.73430165134E+03  0.17281155561E+03 0.  0.
        -24    2    3    3    0    0 -0.44350237184E+02 -0.53709798100E+02  0.28523340242E+03  0.30422724845E+03  0.79651986093E+02 0.  0.
          6    2    1    2  501    0  0.22649320588E+02  0.16567527089E+02  0.27368241872E+03  0.31453634865E+03  0.15245843245E+03 0.  0.
         24    2    5    5    0    0  0.56495874848E+02 -0.22852026438E+02  0.14986399040E+03  0.18017644530E+03  0.79311643755E+02 0.  0.
          5    1    5    5  501    0 -0.33846554260E+02  0.39419553528E+02  0.12381842832E+03  0.13435990335E+03  0.47000000000E+01 0. -1.
        -15    1    6    6    0    0  0.39654541215E+02 -0.44126386774E+02  0.13864468393E+03  0.15081487579E+03  0.17770000000E+01 0.  1.
         16    1    6    6    0    0  0.16841333633E+02  0.21274360335E+02  0.11219306464E+02  0.29361569504E+02  0.00000000000E+00 0. -1.
         -5    1    3    3    0  503  0.21700916596E+02  0.37142271010E+02  0.42789183674E+03  0.43007440290E+03  0.47000000000E+01 0.  1.
         15    1    4    4    0    0  0.22912270373E+02 -0.76313271846E+01  0.69881052819E+02  0.73957613268E+02  0.17770000000E+01 0. -1.
        -16    1    4    4    0    0 -0.67262507556E+02 -0.46078470915E+02  0.21535234960E+03  0.23026963518E+03  0.00000000000E+00 0.  1.
<mgrwt>
<rscale>  2 0.16983022E+03</rscale>
<asrwt>0</asrwt>
<pdfrwt beam="1">  1       21 0.15658810E+00 0.17507515E+03</pdfrwt>
<pdfrwt beam="2">  1       21 0.47715656E-02 0.17507515E+03</pdfrwt>
<totfact> 0.78371102E+04</totfact>
</mgrwt>
</event>
<event>
12    2  0.4090627E-002  0.2086900E+03  0.7546771E-02  0.1145030E+00
         21   -1    0    0  503  502  0.00000000000E+00  0.00000000000E+00  0.99318388660E+02  0.99318388660E+02  0.00000000000E+00 0. -1.
         21   -1    0    0  501  503 -0.00000000000E+00 -0.00000000000E+00 -0.46744469743E+03  0.46744469743E+03  0.00000000000E+00 0. -1.
          6    2    1    2  501    0 -0.19368219030E+02  0.96399642851E+02 -0.28446728996E+03  0.35280750577E+03  0.18407465339E+03 0.  0.
         24    2    3    3    0    0  0.13154950750E+02  0.11335563119E+03 -0.12090001150E+03  0.18511252464E+03  0.81408120890E+02 0.  0.
         -6    2    1    2    0  502  0.19368219030E+02 -0.96399642851E+02 -0.83659018808E+02  0.21395558032E+03  0.17061693899E+03 0.  0.
        -24    2    5    5    0    0  0.25533543910E+02 -0.61175039678E+02  0.18481931299E+02  0.10563361768E+03  0.80140701621E+02 0.  0.
          5    1    3    3  501    0 -0.32523169780E+02 -0.16955988343E+02 -0.16356727846E+03  0.16769498113E+03  0.47000000000E+01 0. -1.
        -15    1    4    4    0    0  0.30605076443E+02  0.58470982573E+02 -0.20086613225E+02  0.69008378238E+02  0.17770000000E+01 0.  1.
         16    1    4    4    0    0 -0.17450125694E+02  0.54884648620E+02 -0.10081339828E+03  0.11610414641E+03  0.00000000000E+00 0. -1.
         -5    1    5    5    0  502 -0.61653248792E+01 -0.35224603173E+02 -0.10214095011E+03  0.10832196263E+03  0.47000000000E+01 0.  1.
         15    1    6    6    0    0  0.54380237512E+02 -0.41269787944E+02  0.65206604684E+01  0.68600891910E+02  0.17770000000E+01 0. -1.
        -16    1    6    6    0    0 -0.28846693603E+02 -0.19905251733E+02  0.11961270831E+02  0.37032725774E+02  0.00000000000E+00 0.  1.
<mgrwt>
<rscale>  2 0.20568355E+03</rscale>
<asrwt>0</asrwt>
<pdfrwt beam="1">  1       21 0.15279752E-01 0.20868995E+03</pdfrwt>
<pdfrwt beam="2">  1       21 0.71914571E-01 0.20868995E+03</pdfrwt>
<totfact> 0.65724108E+04</totfact>
</mgrwt>
</event>
<event>
12    2  0.4090627E-002  0.1835856E+03  0.7546771E-02  0.1164475E+00
         21   -1    0    0  501  502  0.00000000000E+00  0.00000000000E+00  0.28044724724E+03  0.28044724724E+03  0.00000000000E+00 0. -1.
         21   -1    0    0  502  503 -0.00000000000E+00 -0.00000000000E+00 -0.12737259826E+03  0.12737259826E+03  0.00000000000E+00 0. -1.
         -6    2    1    2    0  503 -0.29394892811E+02  0.53968648521E+02  0.27086570817E+02  0.18516163211E+03  0.17255281203E+03 0.  0.
        -24    2    3    3    0    0 -0.53947941510E+02  0.91269631441E+02 -0.11546303679E+01  0.13211569945E+03  0.78820675291E+02 0.  0.
          6    2    1    2  501    0  0.29394892811E+02 -0.53968648521E+02  0.12598807817E+03  0.22265821339E+03  0.17299424674E+03 0.  0.
         24    2    5    5    0    0  0.47932115820E+02 -0.39913929667E+01  0.80951273004E+01  0.93189326882E+02  0.79405923040E+02 0.  0.
          5    1    5    5  501    0 -0.18537223009E+02 -0.49977255554E+02  0.11789295087E+03  0.12946888651E+03  0.47000000000E+01 0. -1.
        -15    1    6    6    0    0  0.18036763673E+02 -0.36820671825E+02 -0.14300169105E+02  0.43459628196E+02  0.17770000000E+01 0.  1.
         16    1    6    6    0    0  0.29895352147E+02  0.32829278858E+02  0.22395296405E+02  0.49729698686E+02  0.00000000000E+00 0. -1.
         -5    1    3    3    0  503  0.24553048699E+02 -0.37300982920E+02  0.28241201185E+02  0.53045932658E+02  0.47000000000E+01 0.  1.
         15    1    4    4    0    0 -0.38983397356E+02 -0.58898014088E+00  0.49713989395E+00  0.39031487854E+02  0.17770000000E+01 0. -1.
        -16    1    4    4    0    0 -0.14964544155E+02  0.91858611582E+02 -0.16517702619E+01  0.93084211596E+02  0.00000000000E+00 0.  1.
<mgrwt>
<rscale>  2 0.18348157E+03</rscale>
<asrwt>0</asrwt>
<pdfrwt beam="1">  1       21 0.43145730E-01 0.18358563E+03</pdfrwt>
<pdfrwt beam="2">  1       21 0.19595784E-01 0.18358563E+03</pdfrwt>
<totfact> 0.12424532E+05</totfact>
</mgrwt>
</event>
<event>
12    2  0.4090627E-002  0.2563460E+03  0.7546771E-02  0.1109389E+00
         21   -1    0    0  501  502  0.00000000000E+00  0.00000000000E+00  0.12436029848E+03  0.12436029848E+03  0.00000000000E+00 0. -1.
         21   -1    0    0  502  503 -0.00000000000E+00 -0.00000000000E+00 -0.53219526500E+03  0.53219526500E+03  0.00000000000E+00 0. -1.
         -6    2    1    2    0  503 -0.41480475441E+02  0.18357582258E+03 -0.23314890443E+03  0.34651360882E+03  0.17404757104E+03 0.  0.
        -24    2    3    3    0    0 -0.60247833657E+02  0.13362431464E+03 -0.83198490705E+02  0.18728238244E+03  0.81654411958E+02 0.  0.
          6    2    1    2  501    0  0.41480475441E+02 -0.18357582258E+03 -0.17468606210E+03  0.31004195466E+03  0.17375293057E+03 0.  0.
         24    2    5    5    0    0 -0.67845382534E+01 -0.18987507813E+03 -0.13042569157E+03  0.24408543438E+03  0.80425512136E+02 0.  0.
          5    1    5    5  501    0  0.48265013694E+02  0.62992555547E+01 -0.44260370531E+02  0.65956520276E+02  0.47000000000E+01 0. -1.
        -15    1    6    6    0    0  0.15732454433E+02 -0.19712489858E+02 -0.46707223440E+02  0.53111343698E+02  0.17770000000E+01 0.  1.
         16    1    6    6    0    0 -0.22516992687E+02 -0.17016258827E+03 -0.83718468127E+02  0.19097409068E+03  0.00000000000E+00 0. -1.
         -5    1    3    3    0  503  0.18767358216E+02  0.49951507934E+02 -0.14995041372E+03  0.15923122638E+03  0.47000000000E+01 0.  1.
         15    1    4    4    0    0 -0.54045054349E+02  0.94430148249E+02 -0.96488355305E+02  0.14543411304E+03  0.17770000000E+01 0. -1.
        -16    1    4    4    0    0 -0.62027793081E+01  0.39194166393E+02  0.13289864599E+02  0.41848269397E+02  0.00000000000E+00 0.  1.
<mgrwt>
<rscale>  2 0.25629599E+03</rscale>
<asrwt>0</asrwt>
<pdfrwt beam="1">  1       21 0.19132354E-01 0.25634600E+03</pdfrwt>
<pdfrwt beam="2">  1       21 0.81876195E-01 0.25634600E+03</pdfrwt>
<totfact> 0.31699004E+04</totfact>
</mgrwt>
</event>
<event>
12    2  0.4090627E-002  0.1985521E+03  0.7546771E-02  0.1151134E+00
         21   -1    0    0  503  502  0.00000000000E+00  0.00000000000E+00  0.20140632736E+03  0.20140632736E+03  0.00000000000E+00 0. -1.
         21   -1    0    0  501  503 -0.00000000000E+00 -0.00000000000E+00 -0.29292896084E+03  0.29292896084E+03  0.00000000000E+00 0.  1.
          6    2    1    2  501    0  0.83556906682E+02  0.44913715387E+02 -0.18875693427E+03  0.27395644584E+03  0.17442464133E+03 0.  0.
         24    2    3    3    0    0  0.10811664902E+03  0.34718497272E+02 -0.20098685640E+03  0.24431214771E+03  0.79988281801E+02 0.  0.
         -6    2    1    2    0  502 -0.83556906682E+02 -0.44913715387E+02  0.97234300782E+02  0.22037884236E+03  0.17353191760E+03 0.  0.
        -24    2    5    5    0    0 -0.43822474710E+02 -0.92194959333E+02  0.89016613297E+02  0.15789715303E+03  0.81161774724E+02 0.  0.
          5    1    3    3  501    0 -0.24559742336E+02  0.10195218115E+02  0.12229922140E+02  0.29644298129E+02  0.47000000000E+01 0. -1.
        -15    1    4    4    0    0  0.44687455568E+02  0.41535092378E+02 -0.15225877351E+03  0.16403665573E+03  0.17770000000E+01 0.  1.
         16    1    4    4    0    0  0.63429193450E+02 -0.68165951064E+01 -0.48728082899E+02  0.80275491986E+02  0.00000000000E+00 0. -1.
         -5    1    5    5    0  502 -0.39734431973E+02  0.47281243947E+02  0.82176874845E+01  0.62481689325E+02  0.47000000000E+01 0.  1.
         15    1    6    6    0    0 -0.64830631300E+02 -0.87384009192E+02  0.72840158923E+02  0.13094969377E+03  0.17770000000E+01 0. -1.
        -16    1    6    6    0    0  0.21008156590E+02 -0.48109501412E+01  0.16176454375E+02  0.26947459263E+02  0.00000000000E+00 0.  1.
<mgrwt>
<rscale>  2 0.19835591E+03</rscale>
<asrwt>0</asrwt>
<pdfrwt beam="1">  1       21 0.30985589E-01 0.19855214E+03</pdfrwt>
<pdfrwt beam="2">  1       21 0.45065994E-01 0.19855214E+03</pdfrwt>
<totfact> 0.47127233E+04</totfact>
</mgrwt>
</event>
<event>
12    2  0.4090627E-002  0.2528791E+03  0.7546771E-02  0.1111974E+00
         21   -1    0    0  501  502  0.00000000000E+00  0.00000000000E+00  0.13452412850E+03  0.13452412850E+03  0.00000000000E+00 0.  1.
         21   -1    0    0  502  503 -0.00000000000E+00 -0.00000000000E+00 -0.56785187383E+03  0.56785187383E+03  0.00000000000E+00 0.  1.
         -6    2    1    2    0  503 -0.15791206145E+03  0.94971561117E+02 -0.69558353795E+02  0.25934554047E+03  0.16871848804E+03 0.  0.
        -24    2    3    3    0    0 -0.17168250503E+03  0.96427455033E+02 -0.27152140733E+02  0.21448886148E+03  0.80592160513E+02 0.  0.
          6    2    1    2  501    0  0.15791206145E+03 -0.94971561117E+02 -0.36376939153E+03  0.44303046187E+03  0.17318199488E+03 0.  0.
         24    2    5    5    0    0  0.95379305565E+01 -0.34962180693E+02 -0.17389647007E+03  0.19465609772E+03  0.79609596659E+02 0.  0.
          5    1    5    5  501    0  0.14837413090E+03 -0.60009380424E+02 -0.18987292146E+03  0.24837436414E+03  0.47000000000E+01 0. -1.
        -15    1    6    6    0    0 -0.53931637066E+01  0.82001978328E+00 -0.14781808906E+03  0.14792938799E+03  0.17770000000E+01 0.  1.
         16    1    6    6    0    0  0.14931094263E+02 -0.35782200476E+02 -0.26078381007E+02  0.46726709736E+02  0.00000000000E+00 0. -1.
         -5    1    3    3    0  503  0.13770443577E+02 -0.14558939158E+01 -0.42406213062E+02  0.44856678986E+02  0.47000000000E+01 0.  1.
         15    1    4    4    0    0 -0.69883302708E+02  0.63365154123E+02 -0.47351665622E+02  0.10556588805E+03  0.17770000000E+01 0. -1.
        -16    1    4    4    0    0 -0.10179920232E+03  0.33062300910E+02  0.20199524889E+02  0.10892297343E+03  0.00000000000E+00 0.  1.
<mgrwt>
<rscale>  2 0.25211672E+03</rscale>
<asrwt>0</asrwt>
<pdfrwt beam="1">  1       21 0.20696020E-01 0.25287906E+03</pdfrwt>
<pdfrwt beam="2">  1       21 0.87361827E-01 0.25287906E+03</pdfrwt>
<totfact> 0.23590838E+04</totfact>
</mgrwt>
</event>
<event>
12    2  0.4090627E-002  0.2542215E+03  0.7546771E-02  0.1111043E+00
         21   -1    0    0  501  502  0.00000000000E+00  0.00000000000E+00  0.39442621963E+02  0.39442621963E+02  0.00000000000E+00 0.  1.
         21   -1    0    0  502  503 -0.00000000000E+00 -0.00000000000E+00 -0.17243289993E+04  0.17243289993E+04  0.00000000000E+00 0. -1.
         -6    2    1    2    0  503 -0.79099053412E+02 -0.16873690504E+03 -0.10525031236E+04  0.10822020010E+04  0.16932082681E+03 0.  0.
        -24    2    3    3    0    0 -0.21801476603E+02 -0.21280561082E+02 -0.50433309721E+03  0.51164187838E+03  0.80606278358E+02 0.  0.
          6    2    1    2  501    0  0.79099053412E+02  0.16873690504E+03 -0.63238325372E+03  0.68156962026E+03  0.17291548310E+03 0.  0.
         24    2    5    5    0    0 -0.25672650787E+02  0.80879993071E+02 -0.30082890501E+03  0.32289661718E+03  0.81015659125E+02 0.  0.
          5    1    5    5  501    0  0.10477170420E+03  0.87856911968E+02 -0.33155434872E+03  0.35867300308E+03  0.47000000000E+01 0. -1.
        -15    1    6    6    0    0  0.14493780975E+02  0.71872754888E+02 -0.22448905556E+03  0.23616573921E+03  0.17770000000E+01 0.  1.
         16    1    6    6    0    0 -0.40166431763E+02  0.90072381831E+01 -0.76339849447E+02  0.86730877972E+02  0.00000000000E+00 0. -1.
         -5    1    3    3    0  503 -0.57297576810E+02 -0.14745634396E+03 -0.54817002642E+03  0.57056012264E+03  0.47000000000E+01 0.  1.
         15    1    4    4    0    0 -0.45880454794E+02 -0.30459488160E+02 -0.41579594647E+03  0.41943083266E+03  0.17770000000E+01 0. -1.
        -16    1    4    4    0    0  0.24078978191E+02  0.91789270783E+01 -0.88537150737E+02  0.92211045725E+02  0.00000000000E+00 0.  1.
<mgrwt>
<rscale>  2 0.25361150E+03</rscale>
<asrwt>0</asrwt>
<pdfrwt beam="1">  1       21 0.60680947E-02 0.25422149E+03</pdfrwt>
<pdfrwt beam="2">  1       21 0.26528143E+00 0.25422149E+03</pdfrwt>
<totfact> 0.99224871E+03</totfact>
</mgrwt>
</event>
<event>
11    2  0.4090627E-002  0.1806098E+03  0.7546771E-02  0.1168675E+00
         21   -1    0    0  501  502  0.00000000000E+00  0.00000000000E+00  0.35161530827E+02  0.35161530827E+02  0.00000000000E+00 0.  1.
         21   -1    0    0  502  503 -0.00000000000E+00 -0.00000000000E+00 -0.17746669208E+04  0.17746669208E+04  0.00000000000E+00 0.  1.
         -6    2    1    2    0  503 -0.19174308393E+02  0.18769652107E+02 -0.14985753039E+04  0.15087184993E+04  0.17257929968E+03 0.  0.
        -24    2    3    3    0    0 -0.68332404555E+02  0.45952184095E+02 -0.11360143860E+04  0.11418017272E+04  0.80009863470E+02 0.  0.
          6    2    1    2  501    0  0.19174308393E+02 -0.18769652107E+02 -0.24093008612E+03  0.30110995239E+03  0.17860555167E+03 0.  0.
          5    1    5    5  501    0  0.63087771818E+02 -0.76366158528E+02 -0.14709455986E+03  0.17739999059E+03  0.47000000000E+01 0. -1.
        -15    1    5    5    0    0 -0.16771681208E+02  0.64794531813E+01 -0.43139951718E+02  0.46770565180E+02  0.17770000000E+01 0.  1.
         16    1    5    5    0    0 -0.27141782217E+02  0.51117053240E+02 -0.50695574541E+02  0.76939396618E+02  0.00000000000E+00 0. -1.
         -5    1    3    3    0  503  0.49158096162E+02 -0.27182531988E+02 -0.36256091786E+03  0.36691677207E+03  0.47000000000E+01 0.  1.
         15    1    4    4    0    0 -0.64866441699E+02 -0.24540927493E+01 -0.73454263444E+03  0.73740742969E+03  0.17770000000E+01 0. -1.
        -16    1    4    4    0    0 -0.34659628565E+01  0.48406276844E+02 -0.40147175157E+03  0.40439429750E+03  0.00000000000E+00 0.  1.
<mgrwt>
<rscale>  2 0.17910174E+03</rscale>
<asrwt>0</asrwt>
<pdfrwt beam="1">  1       21 0.54094664E-02 0.18060979E+03</pdfrwt>
<pdfrwt beam="2">  1       21 0.27302567E+00 0.18060979E+03</pdfrwt>
<totfact> 0.11631809E+04</totfact>
</mgrwt>
</event>
<event>
12    2  0.4090627E-002  0.3039422E+03  0.7546771E-02  0.1083326E+00
         21   -1    0    0  501  502  0.00000000000E+00  0.00000000000E+00  0.86726732462E+03  0.86726732462E+03  0.00000000000E+00 0. -1.
         21   -1    0    0  502  503 -0.00000000000E+00 -0.00000000000E+00 -0.14171327793E+03  0.14171327793E+03  0.00000000000E+00 0.  1.
         -6    2    1    2    0  503  0.24079479436E+03  0.66938156236E+02  0.11111297961E+03  0.32361545761E+03  0.17296826419E+03 0.  0.
        -24    2    3    3    0    0  0.14577330755E+03  0.16866707851E+02  0.13034346691E+03  0.21439945814E+03  0.86274939917E+02 0.  0.
          6    2    1    2  501    0 -0.24079479436E+03 -0.66938156236E+02  0.61444106709E+03  0.68536514494E+03  0.17240854743E+03 0.  0.
         24    2    5    5    0    0 -0.13400040355E+03 -0.82744536112E+02  0.48643744150E+03  0.51784827500E+03  0.82113853993E+02 0.  0.
          5    1    5    5  501    0 -0.10679439080E+03  0.15806379876E+02  0.12800362559E+03  0.16751686994E+03  0.47000000000E+01 0. -1.
        -15    1    6    6    0    0 -0.96370509732E+02 -0.39468830185E+02  0.19756784546E+03  0.22334116278E+03  0.17770000000E+01 0.  1.
         16    1    6    6    0    0 -0.37629893820E+02 -0.43275705927E+02  0.28886959604E+03  0.29450711222E+03  0.00000000000E+00 0. -1.
         -5    1    3    3    0  503  0.95021486805E+02  0.50071448385E+02 -0.19230487299E+02  0.10921599947E+03  0.47000000000E+01 0.  1.
         15    1    4    4    0    0  0.14480696904E+03  0.17762453483E+02  0.84638330247E+02  0.16867533226E+03  0.17770000000E+01 0. -1.
        -16    1    4    4    0    0  0.96633850768E+00 -0.89574563287E+00  0.45705136661E+02  0.45724125881E+02  0.00000000000E+00 0.  1.
<mgrwt>
<rscale>  2 0.30386264E+03</rscale>
<asrwt>0</asrwt>
<pdfrwt beam="1">  1       21 0.13342574E+00 0.30394222E+03</pdfrwt>
<pdfrwt beam="2">  1       21 0.21802043E-01 0.30394222E+03</pdfrwt>
<totfact> 0.74133353E+03</totfact>
</mgrwt>
</event>
<event>
12    2  0.4090627E-002  0.1803203E+03  0.7546771E-02  0.1168964E+00
         21   -1    0    0  501  502  0.00000000000E+00  0.00000000000E+00  0.87324184736E+02  0.87324184736E+02  0.00000000000E+00 0.  1.
         21   -1    0    0  502  503 -0.00000000000E+00 -0.00000000000E+00 -0.49325922504E+03  0.49325922504E+03  0.00000000000E+00 0.  1.
         -6    2    1    2    0  503  0.11902661063E+02 -0.52388634028E+02 -0.35627894786E+03  0.39931201904E+03  0.17213122188E+03 0.  0.
        -24    2    3    3    0    0 -0.11004997040E+02 -0.52835106009E+02 -0.95789164310E+02  0.13777430193E+03  0.83027320118E+02 0.  0.
          6    2    1    2  501    0 -0.11902661063E+02  0.52388634028E+02 -0.49656092442E+02  0.18127139074E+03  0.16585339088E+03 0.  0.
         24    2    5    5    0    0  0.12905241792E+02 -0.30007636828E+02 -0.16488783152E+02  0.88931053393E+02  0.81054603534E+02 0.  0.
          5    1    5    5  501    0 -0.24807902855E+02  0.82396270856E+02 -0.33167309290E+02  0.92340337343E+02  0.47000000000E+01 0. -1.
        -15    1    6    6    0    0 -0.32458513659E+02 -0.22182319749E+02  0.18044299995E+01  0.39395737270E+02  0.17770000000E+01 0.  1.
         16    1    6    6    0    0  0.45363755451E+02 -0.78253170789E+01 -0.18293213151E+02  0.49535316123E+02  0.00000000000E+00 0. -1.
         -5    1    3    3    0  503  0.22907658103E+02  0.44647198090E+00 -0.26048978355E+03  0.26153771711E+03  0.47000000000E+01 0.  1.
         15    1    4    4    0    0 -0.11650371824E+02 -0.19073735150E+02 -0.10113125587E+03  0.10358680987E+03  0.17770000000E+01 0. -1.
        -16    1    4    4    0    0  0.64537478412E+00 -0.33761370859E+02  0.53420915618E+01  0.34187492057E+02  0.00000000000E+00 0.  1.
<mgrwt>
<rscale>  2 0.17880562E+03</rscale>
<asrwt>0</asrwt>
<pdfrwt beam="1">  1       21 0.13434490E-01 0.18032027E+03</pdfrwt>
<pdfrwt beam="2">  1       21 0.75886034E-01 0.18032027E+03</pdfrwt>
<totfact> 0.74586548E+04</totfact>
</mgrwt>
</event>
<event>
12    2  0.4090627E-002  0.2089642E+03  0.7546771E-02  0.1142552E+00
         21   -1    0    0  503  502  0.00000000000E+00  0.00000000000E+00  0.17210807214E+03  0.17210807214E+03  0.00000000000E+00 0.  1.
         21   -1    0    0  501  503 -0.00000000000E+00 -0.00000000000E+00 -0.46791893947E+03  0.46791893947E+03  0.00000000000E+00 0.  1.
          6    2    1    2  501    0  0.30945455054E+02  0.11304563153E+03 -0.36476889685E+03  0.41997869071E+03  0.17201400102E+03 0.  0.
         24    2    3    3    0    0  0.52498275160E+02  0.10187743400E+03 -0.36929278251E+03  0.39484289488E+03  0.79929168474E+02 0.  0.
         -6    2    1    2    0  502 -0.30945455054E+02 -0.11304563153E+03  0.68958029516E+02  0.22004832090E+03  0.17300034017E+03 0.  0.
        -24    2    5    5    0    0 -0.82802106487E+02 -0.94383226893E+02  0.64922709087E+02  0.16458868282E+03  0.84321373326E+02 0.  0.
          5    1    3    3  501    0 -0.21552820106E+02  0.11168197535E+02  0.45238856557E+01  0.25135795833E+02  0.47000000000E+01 0. -1.
        -15    1    4    4    0    0  0.10553645504E+02  0.12319414304E+02 -0.18477634577E+03  0.18549556083E+03  0.17770000000E+01 0.  1.
         16    1    4    4    0    0  0.41944629656E+02  0.89558019692E+02 -0.18451643674E+03  0.20934733405E+03  0.00000000000E+00 0. -1.
         -5    1    5    5    0  502  0.51856651432E+02 -0.18662404638E+02  0.40353204287E+01  0.55459638077E+02  0.47000000000E+01 0.  1.
         15    1    6    6    0    0 -0.79499594650E+02 -0.30559165051E+02  0.23292407047E+02  0.88316148428E+02  0.17770000000E+01 0. -1.
        -16    1    6    6    0    0 -0.33025118363E+01 -0.63824061842E+02  0.41630302040E+02  0.76272534390E+02  0.00000000000E+00 0.  1.
<mgrwt>
<rscale>  2 0.20875998E+03</rscale>
<asrwt>0</asrwt>
<pdfrwt beam="1">  1       21 0.26478165E-01 0.20896424E+03</pdfrwt>
<pdfrwt beam="2">  1       21 0.71987529E-01 0.20896424E+03</pdfrwt>
<totfact> 0.23410230E+04</totfact>
</mgrwt>
</event>
<event>
12    2  0.4090627E-002  0.2008576E+03  0.7546771E-02  0.1150947E+00
         21   -1    0    0  501  502  0.00000000000E+00  0.00000000000E+00  0.41171631004E+03  0.41171631004E+03  0.00000000000E+00 0. -1.
         21   -1    0    0  502  503 -0.00000000000E+00 -0.00000000000E+00 -0.21206547304E+03  0.21206547304E+03  0.00000000000E+00 0. -1.
         -6    2    1    2    0  503 -0.75657889392E+02 -0.31927746516E+02 -0.13219267752E+03  0.24045513956E+03  0.18330377226E+03 0.  0.
        -24    2    3    3    0    0 -0.11101927529E+03 -0.44586999044E+02 -0.54790512339E+02  0.15429326016E+03  0.80567548796E+02 0.  0.
          6    2    1    2  501    0  0.75657889392E+02  0.31927746516E+02  0.33184351452E+03  0.38332664352E+03  0.17342347095E+03 0.  0.
         24    2    5    5    0    0  0.18903400262E+02 -0.36662920573E+02  0.22312065391E+03  0.24272613830E+03  0.86206981883E+02 0.  0.
          5    1    5    5  501    0  0.56754489131E+02  0.68590667090E+02  0.10872286061E+03  0.14060050522E+03  0.47000000000E+01 0. -1.
        -15    1    6    6    0    0  0.13003937163E+02 -0.26542364793E+02  0.13099100610E+02  0.32378135777E+02  0.17770000000E+01 0.  1.
         16    1    6    6    0    0  0.58994630982E+01 -0.10120555780E+02  0.21002155330E+03  0.21034800252E+03  0.00000000000E+00 0. -1.
         -5    1    3    3    0  503  0.35361385897E+02  0.12659252528E+02 -0.77402165178E+02  0.86161879397E+02  0.47000000000E+01 0.  1.
         15    1    4    4    0    0 -0.49724233576E+02  0.17387036941E+02 -0.39338781542E+02  0.65768578520E+02  0.17770000000E+01 0. -1.
        -16    1    4    4    0    0 -0.61295041713E+02 -0.61974035985E+02 -0.15451730797E+02  0.88524681641E+02  0.00000000000E+00 0.  1.
<mgrwt>
<rscale>  2 0.19857541E+03</rscale>
<asrwt>0</asrwt>
<pdfrwt beam="1">  1       21 0.63340971E-01 0.20085759E+03</pdfrwt>
<pdfrwt beam="2">  1       21 0.32625457E-01 0.20085759E+03</pdfrwt>
<totfact> 0.20741809E+04</totfact>
</mgrwt>
</event>
<event>
12    2  0.4090627E-002  0.2292847E+03  0.7546771E-02  0.1127297E+00
         21   -1    0    0  503  502  0.00000000000E+00  0.00000000000E+00  0.40162811023E+03  0.40162811023E+03  0.00000000000E+00 0. -1.
         21   -1    0    0  501  503 -0.00000000000E+00 -0.00000000000E+00 -0.42586212807E+03  0.42586212807E+03  0.00000000000E+00 0. -1.
          6    2    1    2  501    0 -0.10580688973E+03 -0.10663466951E+03 -0.35673437097E+03  0.42359921117E+03  0.17207797538E+03 0.  0.
         24    2    3    3    0    0 -0.12717164663E+03 -0.50958753797E+02 -0.19679955852E+03  0.25284355339E+03  0.80189612553E+02 0.  0.
         -6    2    1    2    0  502  0.10580688973E+03  0.10663466951E+03  0.33250035314E+03  0.40389102713E+03  0.17322074444E+03 0.  0.
        -24    2    5    5    0    0  0.88812928067E+02  0.73915799650E+02  0.33802433675E+03  0.36631545564E+03  0.81088095145E+02 0.  0.
          5    1    3    3  501    0  0.21364756901E+02 -0.55675915717E+02 -0.15993481245E+03  0.17075565777E+03  0.47000000000E+01 0. -1.
        -15    1    4    4    0    0 -0.51992984320E+02  0.17362493725E+02 -0.49292292531E+02  0.73740181982E+02  0.17770000000E+01 0.  1.
         16    1    4    4    0    0 -0.75178662313E+02 -0.68321247522E+02 -0.14750726599E+03  0.17910337141E+03  0.00000000000E+00 0. -1.
         -5    1    5    5    0  502  0.16993961665E+02  0.32718869865E+02 -0.55239836110E+01  0.37575571496E+02  0.47000000000E+01 0.  1.
         15    1    6    6    0    0  0.41039694244E+02  0.78557302548E+02  0.17212487734E+03  0.19361207973E+03  0.17770000000E+01 0. -1.
        -16    1    6    6    0    0  0.47773233823E+02 -0.46415028986E+01  0.16589945941E+03  0.17270337591E+03  0.00000000000E+00 0.  1.
<mgrwt>
<rscale>  2 0.22906887E+03</rscale>
<asrwt>0</asrwt>
<pdfrwt beam="1">  1       21 0.61788940E-01 0.22928471E+03</pdfrwt>
<pdfrwt beam="2">  1       21 0.65517251E-01 0.22928471E+03</pdfrwt>
<totfact> 0.50721801E+03</totfact>
</mgrwt>
</event>
<event>
12    2  0.4090627E-002  0.2008896E+03  0.7546771E-02  0.1149177E+00
         21   -1    0    0  501  502  0.00000000000E+00  0.00000000000E+00  0.30082408474E+03  0.30082408474E+03  0.00000000000E+00 0.  1.
         21   -1    0    0  502  503 -0.00000000000E+00 -0.00000000000E+00 -0.14185123926E+03  0.14185123926E+03  0.00000000000E+00 0. -1.
         -6    2    1    2    0  503 -0.44384766857E+02 -0.89657997147E+02  0.25820499677E+02  0.20166456797E+03  0.17318584177E+03 0.  0.
        -24    2    3    3    0    0  0.28172502514E+02 -0.37081579718E+02  0.56243748126E+02  0.10692016943E+03  0.78101408286E+02 0.  0.
          6    2    1    2  501    0  0.44384766857E+02  0.89657997147E+02  0.13315234581E+03  0.24101075603E+03  0.17420698421E+03 0.  0.
         24    2    5    5    0    0  0.55632199910E+02  0.11645190777E+03  0.14397145915E+03  0.20964897020E+03  0.81048881341E+02 0.  0.
          5    1    5    5  501    0 -0.11247433053E+02 -0.26793910625E+02 -0.10819113344E+02  0.31361785829E+02  0.47000000000E+01 0. -1.
        -15    1    6    6    0    0 -0.67093848421E+01  0.13585536633E+02  0.62588700947E+02  0.64421160078E+02  0.17770000000E+01 0.  1.
         16    1    6    6    0    0  0.62341584752E+02  0.10286637114E+03  0.81382758202E+02  0.14522781012E+03  0.00000000000E+00 0. -1.
         -5    1    3    3    0  503 -0.72557269371E+02 -0.52576417429E+02 -0.30423248449E+02  0.94744398538E+02  0.47000000000E+01 0.  1.
         15    1    4    4    0    0  0.18725590939E+02 -0.32486349461E+02 -0.10797443927E+02  0.39060890692E+02  0.17770000000E+01 0. -1.
        -16    1    4    4    0    0  0.94469115746E+01 -0.45952302574E+01  0.67041192053E+02  0.67859278742E+02  0.00000000000E+00 0.  1.
<mgrwt>
<rscale>  2 0.20066803E+03</rscale>
<asrwt>0</asrwt>
<pdfrwt beam="1">  1       21 0.46280628E-01 0.20088961E+03</pdfrwt>
<pdfrwt beam="2">  1       21 0.21823268E-01 0.20088961E+03</pdfrwt>
<totfact> 0.87357509E+04</totfact>
</mgrwt>
</event>
<event>
12    2  0.4090627E-002  0.3034308E+03  0.7546771E-02  0.1083707E+00
         21   -1    0    0  503  502  0.00000000000E+00  0.00000000000E+00  0.62639612176E+03  0.62639612176E+03  0.00000000000E+00 0. -1.
         21   -1    0    0  501  503 -0.00000000000E+00 -0.00000000000E+00 -0.18686596489E+03  0.18686596489E+03  0.00000000000E+00 0. -1.
          6    2    1    2  501    0  0.24710913590E+03 -0.21328912680E+02  0.30747009163E+02  0.30498463467E+03  0.17479245193E+03 0.  0.
         24    2    3    3    0    0  0.20232255889E+03 -0.37723715772E+02 -0.34125904694E+02  0.22432974020E+03  0.82472773705E+02 0.  0.
         -6    2    1    2    0  502 -0.24710913590E+03  0.21328912680E+02  0.40878314770E+03  0.50827745198E+03  0.17240782692E+03 0.  0.
        -24    2    5    5    0    0 -0.21729820044E+03 -0.35524696983E+02  0.32218619297E+03  0.40037866898E+03  0.89546767770E+02 0.  0.
          5    1    3    3  501    0  0.44786577011E+02  0.16394803092E+02  0.64872913857E+02  0.80654894465E+02  0.47000000000E+01 0. -1.
        -15    1    4    4    0    0  0.12538297018E+03 -0.61890555018E+02 -0.32989411153E+02  0.14367598613E+03  0.17770000000E+01 0.  1.
         16    1    4    4    0    0  0.76939588703E+02  0.24166839246E+02 -0.11364935409E+01  0.80653754076E+02  0.00000000000E+00 0. -1.
         -5    1    5    5    0  502 -0.29810935456E+02  0.56853609663E+02  0.86596954731E+02  0.10789878300E+03  0.47000000000E+01 0.  1.
         15    1    6    6    0    0 -0.79860323601E+02  0.24701881461E+02  0.81588995076E+02  0.11682369657E+03  0.17770000000E+01 0. -1.
        -16    1    6    6    0    0 -0.13743787684E+03 -0.60226578444E+02  0.24059719790E+03  0.28355497241E+03  0.00000000000E+00 0.  1.
<mgrwt>
<rscale>  2 0.30308837E+03</rscale>
<asrwt>0</asrwt>
<pdfrwt beam="1">  1       21 0.96368633E-01 0.30343080E+03</pdfrwt>
<pdfrwt beam="2">  1       21 0.28748610E-01 0.30343080E+03</pdfrwt>
<totfact> 0.97326159E+03</totfact>
</mgrwt>
</event>
<event>
12    2  0.4090627E-002  0.1737498E+03  0.7546771E-02  0.1173996E+00
         21   -1    0    0  503  502  0.00000000000E+00  0.00000000000E+00  0.17519122740E+04  0.17519122740E+04  0.00000000000E+00 0. -1.
         21   -1    0    0  501  503 -0.00000000000E+00 -0.00000000000E+00 -0.17236853995E+02  0.17236853995E+02  0.00000000000E+00 0. -1.
          6    2    1    2  501    0 -0.65969354284E+01  0.17441776738E+02  0.85096913220E+03  0.86852603269E+03  0.17274626008E+03 0.  0.
         24    2    3    3    0    0  0.31548433005E+02 -0.32933967431E+02  0.26664295111E+03  0.28077441794E+03  0.75205455635E+02 0.  0.
         -6    2    1    2    0  502  0.65969354284E+01 -0.17441776738E+02  0.88370628779E+03  0.90062309529E+03  0.17273511964E+03 0.  0.
        -24    2    5    5    0    0  0.56619044735E+02  0.13838368260E+02  0.32083236794E+03  0.33464624193E+03  0.75216236661E+02 0.  0.
          5    1    3    3  501    0 -0.38145368434E+02  0.50375744168E+02  0.58432618109E+03  0.58775161475E+03  0.47000000000E+01 0. -1.
        -15    1    4    4    0    0  0.29258881905E+02 -0.37046367276E+02  0.27055859326E+03  0.27465182616E+03  0.17770000000E+01 0.  1.
         16    1    4    4    0    0  0.22895511001E+01  0.41123998457E+01 -0.39156421449E+01  0.61225917827E+01  0.00000000000E+00 0. -1.
         -5    1    5    5    0  502 -0.50022109307E+02 -0.31280144998E+02  0.56287391985E+03  0.56597685336E+03  0.47000000000E+01 0.  1.
         15    1    6    6    0    0  0.67056412159E+02 -0.78385597508E+01  0.27130409299E+03  0.27958375138E+03  0.17770000000E+01 0. -1.
        -16    1    6    6    0    0 -0.10437367424E+02  0.21676928011E+02  0.49528274953E+02  0.55062490559E+02  0.00000000000E+00 0.  1.
<mgrwt>
<rscale>  2 0.17374707E+03</rscale>
<asrwt>0</asrwt>
<pdfrwt beam="1">  1       21 0.26952482E+00 0.17374984E+03</pdfrwt>
<pdfrwt beam="2">  1       21 0.26518251E-02 0.17374984E+03</pdfrwt>
<totfact> 0.40340805E+04</totfact>
</mgrwt>
</event>
<event>
12    2  0.4090627E-002  0.1822724E+03  0.7546771E-02  0.1166804E+00
         21   -1    0    0  501  502  0.00000000000E+00  0.00000000000E+00  0.90858500936E+02  0.90858500936E+02  0.00000000000E+00 0. -1.
         21   -1    0    0  502  503 -0.00000000000E+00 -0.00000000000E+00 -0.44871847702E+03  0.44871847702E+03  0.00000000000E+00 0. -1.
         -6    2    1    2    0  503 -0.33868819172E+02 -0.23536343327E+02 -0.29969027047E+03  0.34824759714E+03  0.17251398301E+03 0.  0.
        -24    2    3    3    0    0 -0.12206689587E+02 -0.56737625961E+02 -0.29057329814E+03  0.30729906590E+03  0.81435329176E+02 0.  0.
          6    2    1    2  501    0  0.33868819172E+02  0.23536343327E+02 -0.58169705616E+02  0.19132938082E+03  0.17754481390E+03 0.  0.
         24    2    5    5    0    0  0.62982557170E+02  0.68988823778E+01 -0.10010116597E+03  0.13743362760E+03  0.69666071226E+02 0.  0.
          5    1    5    5  501    0 -0.29113737998E+02  0.16637460949E+02  0.41931460357E+02  0.53895753216E+02  0.47000000000E+01 0. -1.
        -15    1    6    6    0    0 -0.50408278838E+01  0.19471399738E+02 -0.43844457232E+02  0.48270482829E+02  0.17770000000E+01 0.  1.
         16    1    6    6    0    0  0.68023385054E+02 -0.12572517360E+02 -0.56256708741E+02  0.89163144770E+02  0.00000000000E+00 0. -1.
         -5    1    3    3    0  503 -0.21662129586E+02  0.33201282634E+02 -0.91169723267E+01  0.40948531245E+02  0.47000000000E+01 0.  1.
         15    1    4    4    0    0 -0.26279574530E+02 -0.72024058340E+02 -0.19597569632E+03  0.21044645945E+03  0.17770000000E+01 0. -1.
        -16    1    4    4    0    0  0.14072884943E+02  0.15286432379E+02 -0.94597601823E+02  0.96852606450E+02  0.00000000000E+00 0.  1.
<mgrwt>
<rscale>  2 0.18103567E+03</rscale>
<asrwt>0</asrwt>
<pdfrwt beam="1">  1       21 0.13978230E-01 0.18227237E+03</pdfrwt>
<pdfrwt beam="2">  1       21 0.69033614E-01 0.18227237E+03</pdfrwt>
<totfact> 0.85548990E+04</totfact>
</mgrwt>
</event>
<event>
12    2  0.4090627E-002  0.1895463E+03  0.7546771E-02  0.1159248E+00
         21   -1    0    0  501  502  0.00000000000E+00  0.00000000000E+00  0.12019583700E+04  0.12019583700E+04  0.00000000000E+00 0.  1.
         21   -1    0    0  502  503 -0.00000000000E+00 -0.00000000000E+00 -0.30890238422E+02  0.30890238422E+02  0.00000000000E+00 0.  1.
         -6    2    1    2    0  503  0.58957806755E+02 -0.47323736560E+02  0.70755385992E+03  0.73207591767E+03  0.17200908559E+03 0.  0.
        -24    2    3    3    0    0  0.27813689018E+02  0.39541703435E+02  0.31048795948E+03  0.32440082642E+03  0.80597615298E+02 0.  0.
          6    2    1    2  501    0 -0.58957806755E+02  0.47323736560E+02  0.46351427164E+03  0.50077269073E+03  0.17381671022E+03 0.  0.
         24    2    5    5    0    0 -0.52382827869E+02  0.93138739575E+02  0.40400361159E+03  0.42523559052E+03  0.78661323432E+02 0.  0.
          5    1    5    5  501    0 -0.65749788859E+01 -0.45815003014E+02  0.59510660049E+02  0.75537100209E+02  0.47000000000E+01 0. -1.
        -15    1    6    6    0    0  0.15283172216E+02  0.40013474489E+02  0.18588710914E+03  0.19076642411E+03  0.17770000000E+01 0.  1.
         16    1    6    6    0    0 -0.67666000085E+02  0.53125265085E+02  0.21811650245E+03  0.23446916641E+03  0.00000000000E+00 0. -1.
         -5    1    3    3    0  503  0.31144117738E+02 -0.86865439996E+02  0.39706590045E+03  0.40767509126E+03  0.47000000000E+01 0.  1.
         15    1    4    4    0    0 -0.24918583280E+02  0.29312142095E+02  0.16139786746E+03  0.16592940311E+03  0.17770000000E+01 0. -1.
        -16    1    4    4    0    0  0.52732272298E+02  0.10229561341E+02  0.14909009202E+03  0.15847142331E+03  0.00000000000E+00 0.  1.
<mgrwt>
<rscale>  2 0.18913090E+03</rscale>
<asrwt>0</asrwt>
<pdfrwt beam="1">  1       21 0.18491664E+00 0.18954632E+03</pdfrwt>
<pdfrwt beam="2">  1       21 0.47523453E-02 0.18954632E+03</pdfrwt>
<totfact> 0.49513863E+04</totfact>
</mgrwt>
</event>
<event>
12    2  0.4090627E-002  0.2809480E+03  0.7546771E-02  0.1095635E+00
         21   -1    0    0  503  502  0.00000000000E+00  0.00000000000E+00  0.29697249509E+03  0.29697249509E+03  0.00000000000E+00 0.  1.
         21   -1    0    0  501  503 -0.00000000000E+00 -0.00000000000E+00 -0.27992387857E+03  0.27992387857E+03  0.00000000000E+00 0.  1.
          6    2    1    2  501    0  0.15946459926E+03 -0.14805619011E+03  0.80332252340E+02  0.29220725026E+03  0.17771385002E+03 0.  0.
         24    2    3    3    0    0  0.47534567593E+02 -0.10607322164E+03  0.96340515944E+02  0.17150407658E+03  0.81370079316E+02 0.  0.
         -6    2    1    2    0  502 -0.15946459926E+03  0.14805619011E+03 -0.63283635822E+02  0.28468912340E+03  0.17231797519E+03 0.  0.
        -24    2    5    5    0    0 -0.35066968303E+02  0.10244331623E+03  0.63369553517E+01  0.13494126342E+03  0.80278653863E+02 0.  0.
          5    1    3    3  501    0  0.11193003167E+03 -0.41982968468E+02 -0.16008263604E+02  0.12070317367E+03  0.47000000000E+01 0. -1.
        -15    1    4    4    0    0  0.54884819802E+02 -0.29950448797E+02  0.26487468372E+02  0.67927288608E+02  0.17770000000E+01 0.  1.
         16    1    4    4    0    0 -0.73502522094E+01 -0.76122772841E+02  0.69853047572E+02  0.10357678798E+03  0.00000000000E+00 0. -1.
         -5    1    5    5    0  502 -0.12439763096E+03  0.45612873880E+02 -0.69620591174E+02  0.14974785998E+03  0.47000000000E+01 0.  1.
         15    1    6    6    0    0 -0.28685395600E+02  0.31191119471E+00  0.14674709990E+02  0.32271567232E+02  0.17770000000E+01 0. -1.
        -16    1    6    6    0    0 -0.63815727034E+01  0.10213140503E+03 -0.83377546383E+01  0.10266969619E+03  0.00000000000E+00 0.  1.
<mgrwt>
<rscale>  2 0.28009878E+03</rscale>
<asrwt>0</asrwt>
<pdfrwt beam="1">  1       21 0.45688076E-01 0.28094805E+03</pdfrwt>
<pdfrwt beam="2">  1       21 0.43065212E-01 0.28094805E+03</pdfrwt>
<totfact> 0.22790108E+04</totfact>
</mgrwt>
</event>
<event>
12    2  0.4090627E-002  0.1879359E+03  0.7546771E-02  0.1160707E+00
         21   -1    0    0  503  502  0.00000000000E+00  0.00000000000E+00  0.28101114778E+03  0.28101114778E+03  0.00000000000E+00 0. -1.
         21   -1    0    0  501  503 -0.00000000000E+00 -0.00000000000E+00 -0.16833027875E+03  0.16833027875E+03  0.00000000000E+00 0. -1.
          6    2    1    2  501    0 -0.66946536535E+02  0.18240716351E+02 -0.58337892005E+02  0.19524039543E+03  0.17291888236E+03 0.  0.
         24    2    3    3    0    0 -0.46871401410E+02 -0.58626123420E+02 -0.29086367369E+02  0.11045086895E+03  0.75626893817E+02 0.  0.
         -6    2    1    2    0  502  0.66946536535E+02 -0.18240716351E+02  0.17101876104E+03  0.25410103110E+03  0.17465782230E+03 0.  0.
        -24    2    5    5    0    0  0.40769704199E+02 -0.80344274589E+02  0.11876885263E+03  0.16869481689E+03  0.78959037795E+02 0.  0.
          5    1    3    3  501    0 -0.20075135125E+02  0.76866839771E+02 -0.29251524637E+02  0.84789526478E+02  0.47000000000E+01 0. -1.
        -15    1    4    4    0    0 -0.35186173762E+02 -0.54637956268E+02  0.13252160044E+02  0.66348704313E+02  0.17770000000E+01 0.  1.
         16    1    4    4    0    0 -0.11685227648E+02 -0.39881671519E+01 -0.42338527413E+02  0.44102164640E+02  0.00000000000E+00 0. -1.
         -5    1    5    5    0  502  0.26176832336E+02  0.62103558238E+02  0.52249908405E+02  0.85406214207E+02  0.47000000000E+01 0.  1.
         15    1    6    6    0    0  0.10530162260E+02 -0.67310420872E+01  0.78492504574E+02  0.79501083314E+02  0.17770000000E+01 0. -1.
        -16    1    6    6    0    0  0.30239541939E+02 -0.73613232502E+02  0.40276348061E+02  0.89193733576E+02  0.00000000000E+00 0.  1.
<mgrwt>
<rscale>  2 0.18753089E+03</rscale>
<asrwt>0</asrwt>
<pdfrwt beam="1">  1       21 0.43232484E-01 0.18793594E+03</pdfrwt>
<pdfrwt beam="2">  1       21 0.25896966E-01 0.18793594E+03</pdfrwt>
<totfact> 0.72977651E+04</totfact>
</mgrwt>
</event>
<event>
12    2  0.4090627E-002  0.2025317E+03  0.7546771E-02  0.1147821E+00
         21   -1    0    0  503  502  0.00000000000E+00  0.00000000000E+00  0.68207492579E+03  0.68207492579E+03  0.00000000000E+00 0.  1.
         21   -1    0    0  501  503 -0.00000000000E+00 -0.00000000000E+00 -0.73980381412E+02  0.73980381412E+02  0.00000000000E+00 0. -1.
          6    2    1    2  501    0 -0.23367718226E+02  0.10282328259E+03  0.13943607526E+03  0.24588920293E+03  0.17291733094E+03 0.  0.
         24    2    3    3    0    0  0.47320948877E+02  0.92359745239E+02  0.99714600624E+02  0.16399745232E+03  0.78629307820E+02 0.  0.
         -6    2    1    2    0  502  0.23367718226E+02 -0.10282328259E+03  0.46865846912E+03  0.51016610427E+03  0.17178479435E+03 0.  0.
        -24    2    5    5    0    0  0.29307262239E+02  0.11037044057E+02  0.14893925346E+03  0.17069310235E+03  0.77281964317E+02 0.  0.
          5    1    3    3  501    0 -0.70688667103E+02  0.10463537351E+02  0.39721474636E+02  0.81891750610E+02  0.47000000000E+01 0. -1.
        -15    1    4    4    0    0 -0.10011807143E+00  0.79140986548E+02  0.47897736412E+02  0.92523816705E+02  0.17770000000E+01 0.  1.
         16    1    4    4    0    0  0.47421066949E+02  0.13218758691E+02  0.51816864213E+02  0.71473635620E+02  0.00000000000E+00 0. -1.
         -5    1    5    5    0  502 -0.59395440135E+01 -0.11386032665E+03  0.31971921566E+03  0.33947300191E+03  0.47000000000E+01 0.  1.
         15    1    6    6    0    0 -0.18025460735E+02  0.11457209118E+02  0.95087234438E+01  0.23446927859E+02  0.17770000000E+01 0. -1.
        -16    1    6    6    0    0  0.47332722975E+02 -0.42016506061E+00  0.13943053002E+03  0.14724617449E+03  0.00000000000E+00 0.  1.
<mgrwt>
<rscale>  2 0.20228973E+03</rscale>
<asrwt>0</asrwt>
<pdfrwt beam="1">  1       21 0.10493460E+00 0.20253168E+03</pdfrwt>
<pdfrwt beam="2">  1       21 0.11381598E-01 0.20253168E+03</pdfrwt>
<totfact> 0.46948234E+04</totfact>
</mgrwt>
</event>
<event>
12    2  0.4090627E-002  0.2059232E+03  0.7546771E-02  0.1144888E+00
         21   -1    0    0  501  502  0.00000000000E+00  0.00000000000E+00  0.20589832622E+02  0.20589832622E+02  0.00000000000E+00 0.  1.
         21   -1    0    0  502  503 -0.00000000000E+00 -0.00000000000E+00 -0.23558940307E+04  0.23558940307E+04  0.00000000000E+00 0.  1.
         -6    2    1    2    0  503 -0.14086728925E+02  0.10973243754E+03 -0.15916185652E+04  0.16048844219E+04  0.17367989748E+03 0.  0.
        -24    2    3    3    0    0  0.30760578162E+02  0.87005489847E+02 -0.60255361989E+03  0.61453127724E+03  0.77856646648E+02 0.  0.
          6    2    1    2  501    0  0.14086728925E+02 -0.10973243754E+03 -0.74368563292E+03  0.77159944146E+03  0.17337166341E+03 0.  0.
         24    2    5    5    0    0  0.25538911343E+02 -0.13586556101E+03 -0.70691044913E+03  0.72481700067E+03  0.80781276959E+02 0.  0.
          5    1    5    5  501    0 -0.11452182418E+02  0.26133123461E+02 -0.36775183780E+02  0.46782440787E+02  0.47000000000E+01 0. -1.
        -15    1    6    6    0    0  0.33763068389E+02 -0.55233103515E+02 -0.46966701634E+03  0.47411064582E+03  0.17770000000E+01 0.  1.
         16    1    6    6    0    0 -0.82241570459E+01 -0.80632457490E+02 -0.23724343279E+03  0.25070635485E+03  0.00000000000E+00 0. -1.
         -5    1    3    3    0  503 -0.44847307087E+02  0.22726947698E+02 -0.98906494530E+03  0.99035314466E+03  0.47000000000E+01 0.  1.
         15    1    4    4    0    0  0.20249770309E+02  0.63244812595E+02 -0.19221442597E+03  0.20337035870E+03  0.17770000000E+01 0. -1.
        -16    1    4    4    0    0  0.10510807853E+02  0.23760677251E+02 -0.41033919391E+03  0.41116091853E+03  0.00000000000E+00 0.  1.
<mgrwt>
<rscale>  2 0.20585816E+03</rscale>
<asrwt>0</asrwt>
<pdfrwt beam="1">  1       21 0.31676670E-02 0.20592317E+03</pdfrwt>
<pdfrwt beam="2">  1       21 0.36244519E+00 0.20592317E+03</pdfrwt>
<totfact> 0.83953683E+03</totfact>
</mgrwt>
</event>
<event>
12    2  0.4090627E-002  0.1888334E+03  0.7546771E-02  0.1159652E+00
         21   -1    0    0  503  502  0.00000000000E+00  0.00000000000E+00  0.51678737006E+03  0.51678737006E+03  0.00000000000E+00 0.  1.
         21   -1    0    0  501  503 -0.00000000000E+00 -0.00000000000E+00 -0.85700397765E+02  0.85700397765E+02  0.00000000000E+00 0.  1.
          6    2    1    2  501    0 -0.49722050517E+02 -0.54588086738E+02  0.81977288012E+02  0.20585995743E+03  0.17379846030E+03 0.  0.
         24    2    3    3    0    0  0.29242544254E+01 -0.20808982934E+02 -0.20311019968E+02  0.85869752717E+02  0.80743494257E+02 0.  0.
         -6    2    1    2    0  502  0.49722050517E+02  0.54588086738E+02  0.34910968428E+03  0.39662781039E+03  0.17315861745E+03 0.  0.
        -24    2    5    5    0    0  0.12540777182E+02  0.17087920210E+02  0.63875472207E+02  0.10650825691E+03  0.82550982613E+02 0.  0.
          5    1    3    3  501    0 -0.52646304942E+02 -0.33779103804E+02  0.10228830798E+03  0.11999020471E+03  0.47000000000E+01 0. -1.
        -15    1    4    4    0    0  0.50794997465E+01 -0.41197815214E+02  0.15713198836E+02  0.44419856402E+02  0.17770000000E+01 0.  1.
         16    1    4    4    0    0 -0.21552453211E+01  0.20388832280E+02 -0.36024218804E+02  0.41449896315E+02  0.00000000000E+00 0. -1.
         -5    1    5    5    0  502  0.37181273335E+02  0.37500166528E+02  0.28523421208E+03  0.29011955349E+03  0.47000000000E+01 0.  1.
         15    1    6    6    0    0  0.32625798003E+02  0.10549769935E+02 -0.47898606954E+01  0.34667576141E+02  0.17770000000E+01 0. -1.
        -16    1    6    6    0    0 -0.20085020821E+02  0.65381502752E+01  0.68665332902E+02  0.71840680766E+02  0.00000000000E+00 0.  1.
<mgrwt>
<rscale>  2 0.18868603E+03</rscale>
<asrwt>0</asrwt>
<pdfrwt beam="1">  1       21 0.79505747E-01 0.18883338E+03</pdfrwt>
<pdfrwt beam="2">  1       21 0.13184677E-01 0.18883338E+03</pdfrwt>
<totfact> 0.69233981E+04</totfact>
</mgrwt>
</event>
<event>
12    2  0.4090627E-002  0.1972298E+03  0.7546771E-02  0.1152443E+00
         21   -1    0    0  501  502  0.00000000000E+00  0.00000000000E+00  0.16370217775E+04  0.16370217775E+04  0.00000000000E+00 0.  1.
         21   -1    0    0  502  503 -0.00000000000E+00 -0.00000000000E+00 -0.27058279602E+02  0.27058279602E+02  0.00000000000E+00 0.  1.
         -6    2    1    2    0  503  0.68408230704E+02  0.65456054200E+02  0.50908765322E+03  0.54595770752E+03  0.17301849229E+03 0.  0.
        -24    2    3    3    0    0  0.74182410996E+02  0.49002409718E+01  0.44020200794E+03  0.45393776512E+03  0.82186643307E+02 0.  0.
          6    2    1    2  501    0 -0.68408230704E+02 -0.65456054200E+02  0.11008758447E+04  0.11181223496E+04  0.17118931682E+03 0.  0.
         24    2    5    5    0    0 -0.67316504523E+02  0.23845113992E+02  0.61234782561E+03  0.62147599058E+03  0.78501248967E+02 0.  0.
          5    1    5    5  501    0 -0.10917261806E+01 -0.89301168192E+02  0.48852801905E+03  0.49664635900E+03  0.47000000000E+01 0. -1.
        -15    1    6    6    0    0  0.13321982658E+02 -0.11393622129E+02  0.81449793647E+02  0.83333765433E+02  0.17770000000E+01 0.  1.
         16    1    6    6    0    0 -0.80638487181E+02  0.35238736121E+02  0.53089803196E+03  0.53814222514E+03  0.00000000000E+00 0. -1.
         -5    1    3    3    0  503 -0.57741802926E+01  0.60555813228E+02  0.68885645277E+02  0.92019942398E+02  0.47000000000E+01 0.  1.
         15    1    4    4    0    0  0.24918792057E+02  0.17977662823E+02  0.34120141718E+03  0.34258678809E+03  0.17770000000E+01 0. -1.
        -16    1    4    4    0    0  0.49263618940E+02 -0.13077421851E+02  0.99000590760E+02  0.11135097702E+03  0.00000000000E+00 0.  1.
<mgrwt>
<rscale>  2 0.19682787E+03</rscale>
<asrwt>0</asrwt>
<pdfrwt beam="1">  1       21 0.25184943E+00 0.19722976E+03</pdfrwt>
<pdfrwt beam="2">  1       21 0.41628135E-02 0.19722976E+03</pdfrwt>
<totfact> 0.23672944E+04</totfact>
</mgrwt>
</event>
<event>
12    2  0.4090627E-002  0.1808228E+03  0.7546771E-02  0.1167041E+00
         21   -1    0    0  503  502  0.00000000000E+00  0.00000000000E+00  0.72644403304E+03  0.72644403304E+03  0.00000000000E+00 0.  1.
         21   -1    0    0  501  503 -0.00000000000E+00 -0.00000000000E+00 -0.72580131466E+02  0.72580131466E+02  0.00000000000E+00 0.  1.
          6    2    1    2  501    0  0.52309051099E+02  0.87090906501E+01  0.80476220250E+02  0.19780015187E+03  0.17273214225E+03 0.  0.
         24    2    3    3    0    0  0.13429198968E+02  0.25249614921E+02 -0.21765454068E+02  0.87072188766E+02  0.79309171141E+02 0.  0.
         -6    2    1    2    0  502 -0.52309051099E+02 -0.87090906501E+01  0.57338768132E+03  0.60122401264E+03  0.17287219324E+03 0.  0.
        -24    2    5    5    0    0  0.17810309536E+02  0.51104939497E+01  0.13945338914E+03  0.16141864024E+03  0.79154313854E+02 0.  0.
          5    1    3    3  501    0  0.38879852132E+02 -0.16540524271E+02  0.10224167432E+03  0.11072796310E+03  0.47000000000E+01 0. -1.
        -15    1    4    4    0    0 -0.67077039338E+01  0.38682463835E+02  0.15821555878E+02  0.42365146758E+02  0.17770000000E+01 0.  1.
         16    1    4    4    0    0  0.20136902901E+02 -0.13432848914E+02 -0.37587009946E+02  0.44707042008E+02  0.00000000000E+00 0. -1.
         -5    1    5    5    0  502 -0.70119360635E+02 -0.13819584600E+02  0.43393429218E+03  0.43980537240E+03  0.47000000000E+01 0.  1.
         15    1    6    6    0    0  0.42857084087E+01  0.37310712303E+02  0.10821817037E+03  0.11456346135E+03  0.17770000000E+01 0. -1.
        -16    1    6    6    0    0  0.13524601127E+02 -0.32200218354E+02  0.31235218767E+02  0.46855178893E+02  0.00000000000E+00 0.  1.
<mgrwt>
<rscale>  2 0.18078931E+03</rscale>
<asrwt>0</asrwt>
<pdfrwt beam="1">  1       21 0.11176062E+00 0.18082279E+03</pdfrwt>
<pdfrwt beam="2">  1       21 0.11166175E-01 0.18082279E+03</pdfrwt>
<totfact> 0.42200964E+04</totfact>
</mgrwt>
</event>
<event>
12    2  0.4090627E-002  0.2796808E+03  0.7546771E-02  0.1096339E+00
         21   -1    0    0  503  502  0.00000000000E+00  0.00000000000E+00  0.28149292767E+03  0.28149292767E+03  0.00000000000E+00 0. -1.
         21   -1    0    0  501  503 -0.00000000000E+00 -0.00000000000E+00 -0.10137947437E+04  0.10137947437E+04  0.00000000000E+00 0.  1.
          6    2    1    2  501    0  0.19215518486E+03  0.10464001242E+03 -0.91860535842E+03  0.95923655893E+03  0.16859959726E+03 0.  0.
         24    2    3    3    0    0  0.13094204626E+03  0.13433577711E+03 -0.75221997304E+03  0.77941700146E+03  0.80399339790E+02 0.  0.
         -6    2    1    2    0  502 -0.19215518486E+03 -0.10464001242E+03  0.18630354236E+03  0.33605111248E+03  0.17420732772E+03 0.  0.
        -24    2    5    5    0    0 -0.14497760450E+03 -0.34163916691E+01  0.93767195965E+02  0.19094077208E+03  0.81461118727E+02 0.  0.
          5    1    3    3  501    0  0.61213138607E+02 -0.29695764693E+02 -0.16638538538E+03  0.17981955747E+03  0.47000000000E+01 0. -1.
        -15    1    4    4    0    0  0.12285245882E+03  0.11787532067E+03 -0.53537772440E+03  0.56180048360E+03  0.17770000000E+01 0.  1.
         16    1    4    4    0    0  0.80895874347E+01  0.16460456445E+02 -0.21684224864E+03  0.21761651786E+03  0.00000000000E+00 0. -1.
         -5    1    5    5    0  502 -0.47177580367E+02 -0.10122362075E+03  0.92536346398E+02  0.14511034040E+03  0.47000000000E+01 0.  1.
         15    1    6    6    0    0 -0.75601204155E+02  0.27904229342E+02  0.80039000377E+02  0.11359395844E+03  0.17770000000E+01 0. -1.
        -16    1    6    6    0    0 -0.69376400340E+02 -0.31320621011E+02  0.13728195589E+02  0.77346813630E+02  0.00000000000E+00 0.  1.
<mgrwt>
<rscale>  2 0.27881222E+03</rscale>
<asrwt>0</asrwt>
<pdfrwt beam="1">  1       21 0.43306604E-01 0.27968078E+03</pdfrwt>
<pdfrwt beam="2">  1       21 0.15596842E+00 0.27968078E+03</pdfrwt>
<totfact> 0.12824469E+03</totfact>
</mgrwt>
</event>
<event>
12    2  0.4090627E-002  0.3723168E+03  0.7546771E-02  0.1053831E+00
         21   -1    0    0  501  502  0.00000000000E+00  0.00000000000E+00  0.34175787701E+03  0.34175787701E+03  0.00000000000E+00 0. -1.
         21   -1    0    0  502  503 -0.00000000000E+00 -0.00000000000E+00 -0.62735129996E+03  0.62735129996E+03  0.00000000000E+00 0.  1.
         -6    2    1    2    0  503  0.23572112129E+03  0.23020460567E+03 -0.43105683941E+03  0.56958738772E+03  0.17338161944E+03 0.  0.
        -24    2    3    3    0    0  0.15171274997E+03  0.11141251896E+03 -0.15578532013E+03  0.25819460417E+03  0.83461846225E+02 0.  0.
          6    2    1    2  501    0 -0.23572112129E+03 -0.23020460567E+03  0.14546341647E+03  0.39952178925E+03  0.17291456579E+03 0.  0.
         24    2    5    5    0    0 -0.36113602565E+02 -0.41650846396E+02  0.29387146502E+02  0.10137506008E+03  0.79839295656E+02 0.  0.
          5    1    5    5  501    0 -0.19960751872E+03 -0.18855375927E+03  0.11607626997E+03  0.29814672917E+03  0.47000000000E+01 0. -1.
        -15    1    6    6    0    0  0.55922282779E+01 -0.51561731901E+02  0.51986534316E+01  0.52154280172E+02  0.17770000000E+01 0.  1.
         16    1    6    6    0    0 -0.41705830842E+02  0.99108855042E+01  0.24188493070E+02  0.49220779908E+02  0.00000000000E+00 0. -1.
         -5    1    3    3    0  503  0.84008371321E+02  0.11879208671E+03 -0.27527151929E+03  0.31139278355E+03  0.47000000000E+01 0.  1.
         15    1    4    4    0    0  0.15574379331E+03  0.88851029342E+02 -0.12022498941E+03  0.21588849061E+03  0.17770000000E+01 0. -1.
        -16    1    4    4    0    0 -0.40310433465E+01  0.22561489615E+02 -0.35560330720E+02  0.42306113566E+02  0.00000000000E+00 0.  1.
<mgrwt>
<rscale>  2 0.37226246E+03</rscale>
<asrwt>0</asrwt>
<pdfrwt beam="1">  1       21 0.52578136E-01 0.37231679E+03</pdfrwt>
<pdfrwt beam="2">  1       21 0.96515583E-01 0.37231679E+03</pdfrwt>
<totfact> 0.27403265E+03</totfact>
</mgrwt>
</event>
<event>
12    2  0.4090627E-002  0.1820604E+03  0.7546771E-02  0.1165900E+00
         21   -1    0    0  503  502  0.00000000000E+00  0.00000000000E+00  0.93427012865E+02  0.93427012865E+02  0.00000000000E+00 0. -1.
         21   -1    0    0  501  503 -0.00000000000E+00 -0.00000000000E+00 -0.52421884872E+03  0.52421884872E+03  0.00000000000E+00 0. -1.
          6    2    1    2  501    0 -0.10631228621E+02 -0.53519139195E+02 -0.39116465788E+03  0.43132272555E+03  0.17335565385E+03 0.  0.
         24    2    3    3    0    0 -0.59862599489E+02 -0.40774414139E+02 -0.34869719726E+03  0.36490186207E+03  0.79483016421E+02 0.  0.
         -6    2    1    2    0  502  0.10631228621E+02  0.53519139195E+02 -0.39627177979E+02  0.18632313603E+03  0.17369132536E+03 0.  0.
        -24    2    5    5    0    0  0.19288839777E+01 -0.38763609272E+02 -0.28098653872E+02  0.92798629433E+02  0.79471462035E+02 0.  0.
          5    1    3    3  501    0  0.49231370868E+02 -0.12744725056E+02 -0.42467460616E+02  0.66420863480E+02  0.47000000000E+01 0. -1.
        -15    1    4    4    0    0 -0.20593151772E+02  0.22281845190E+02 -0.66936548630E+02  0.73513385151E+02  0.17770000000E+01 0.  1.
         16    1    4    4    0    0 -0.39269447717E+02 -0.63056259328E+02 -0.28176064863E+03  0.29138847692E+03  0.00000000000E+00 0. -1.
         -5    1    5    5    0  502  0.87023446433E+01  0.92282748467E+02 -0.11528524106E+02  0.93524506601E+02  0.47000000000E+01 0.  1.
         15    1    6    6    0    0 -0.27664153913E+02  0.96614351832E+01 -0.19881487650E+02  0.35455324307E+02  0.17770000000E+01 0. -1.
        -16    1    6    6    0    0  0.29593037890E+02 -0.48425044455E+02 -0.82171662221E+01  0.57343305126E+02  0.00000000000E+00 0.  1.
<mgrwt>
<rscale>  2 0.18198032E+03</rscale>
<asrwt>0</asrwt>
<pdfrwt beam="1">  1       21 0.14373387E-01 0.18206042E+03</pdfrwt>
<pdfrwt beam="2">  1       21 0.80649053E-01 0.18206042E+03</pdfrwt>
<totfact> 0.57530886E+04</totfact>
</mgrwt>
</event>
<event>
12    2  0.4090627E-002  0.2304724E+03  0.7546771E-02  0.1126344E+00
         21   -1    0    0  501  502  0.00000000000E+00  0.00000000000E+00  0.13702962931E+04  0.13702962931E+04  0.00000000000E+00 0.  1.
         21   -1    0    0  502  503 -0.00000000000E+00 -0.00000000000E+00 -0.88690127730E+02  0.88690127730E+02  0.00000000000E+00 0. -1.
         -6    2    1    2    0  503 -0.74713823689E+02 -0.13220724588E+03  0.93408450781E+02  0.24868181069E+03  0.17336837363E+03 0.  0.
        -24    2    3    3    0    0 -0.82517139939E+02 -0.15378397425E+03  0.59138454533E+02  0.20717314178E+03  0.94682441628E+02 0.  0.
          6    2    1    2  501    0  0.74713823689E+02  0.13220724588E+03  0.11881977146E+04  0.12103046102E+04  0.17309687768E+03 0.  0.
         24    2    5    5    0    0  0.41107591779E+01  0.68538332792E+02  0.33264164271E+03  0.34946966351E+03  0.82244646308E+02 0.  0.
          5    1    5    5  501    0  0.70603064511E+02  0.63668913091E+02  0.85555607192E+03  0.86083494667E+03  0.47000000000E+01 0. -1.
        -15    1    6    6    0    0 -0.90405998425E+01 -0.17567983847E+02  0.70305598195E+02  0.73050676715E+02  0.17770000000E+01 0.  1.
         16    1    6    6    0    0  0.13151359020E+02  0.86106316639E+02  0.26233604451E+03  0.27641898679E+03  0.00000000000E+00 0. -1.
         -5    1    3    3    0  503  0.78033162497E+01  0.21576728365E+02  0.34269996248E+02  0.41508668905E+02  0.47000000000E+01 0.  1.
         15    1    4    4    0    0 -0.68859015627E+02 -0.57463400145E+02 -0.63054658747E+01  0.89925096710E+02  0.17770000000E+01 0. -1.
        -16    1    4    4    0    0 -0.13658124311E+02 -0.96320574103E+02  0.65443920408E+02  0.11724804507E+03  0.00000000000E+00 0.  1.
<mgrwt>
<rscale>  2 0.23042129E+03</rscale>
<asrwt>0</asrwt>
<pdfrwt beam="1">  1       21 0.21081480E+00 0.23047235E+03</pdfrwt>
<pdfrwt beam="2">  1       21 0.13644636E-01 0.23047235E+03</pdfrwt>
<totfact> 0.51663067E+03</totfact>
</mgrwt>
</event>
<event>
12    2  0.4090627E-002  0.2078669E+03  0.7546771E-02  0.1143525E+00
         21   -1    0    0  501  502  0.00000000000E+00  0.00000000000E+00  0.77223401281E+02  0.77223401281E+02  0.00000000000E+00 0. -1.
         21   -1    0    0  502  503 -0.00000000000E+00 -0.00000000000E+00 -0.74643852515E+03  0.74643852515E+03  0.00000000000E+00 0. -1.
         -6    2    1    2    0  503  0.60298576624E+02 -0.98147131443E+02 -0.54335697144E+03  0.58176063581E+03  0.17303138793E+03 0.  0.
        -24    2    3    3    0    0  0.39355248488E+02 -0.13790354665E+03 -0.39665086371E+03  0.42825504115E+03  0.74190624975E+02 0.  0.
          6    2    1    2  501    0 -0.60298576624E+02  0.98147131443E+02 -0.12585815242E+03  0.24190129062E+03  0.17148522420E+03 0.  0.
         24    2    5    5    0    0 -0.10545680727E+03  0.54641612193E+02 -0.76845562067E+02  0.16217475793E+03  0.79300490019E+02 0.  0.
          5    1    5    5  501    0  0.45158230650E+02  0.43505519250E+02 -0.49012590358E+02  0.79726532687E+02  0.47000000000E+01 0. -1.
        -15    1    6    6    0    0 -0.24075147195E+02 -0.20165917383E+02 -0.24479083978E+02  0.39858000674E+02  0.17770000000E+01 0.  1.
         16    1    6    6    0    0 -0.81381660079E+02  0.74807529576E+02 -0.52366478089E+02  0.12231675726E+03  0.00000000000E+00 0. -1.
         -5    1    3    3    0  503  0.20943328137E+02  0.39756415205E+02 -0.14670610774E+03  0.15350559466E+03  0.47000000000E+01 0.  1.
         15    1    4    4    0    0  0.80013065355E+01 -0.11406124111E+03 -0.34394021684E+03  0.36245278054E+03  0.17770000000E+01 0. -1.
        -16    1    4    4    0    0  0.31353941952E+02 -0.23842305543E+02 -0.52710646861E+02  0.65802260615E+02  0.00000000000E+00 0.  1.
<mgrwt>
<rscale>  2 0.20754481E+03</rscale>
<asrwt>0</asrwt>
<pdfrwt beam="1">  1       21 0.11880523E-01 0.20786688E+03</pdfrwt>
<pdfrwt beam="2">  1       21 0.11483670E+00 0.20786688E+03</pdfrwt>
<totfact> 0.34845181E+04</totfact>
</mgrwt>
</event>
<event>
12    2  0.4090627E-002  0.1916607E+03  0.7546771E-02  0.1157202E+00
         21   -1    0    0  501  502  0.00000000000E+00  0.00000000000E+00  0.49694752650E+03  0.49694752650E+03  0.00000000000E+00 0. -1.
         21   -1    0    0  502  503 -0.00000000000E+00 -0.00000000000E+00 -0.74615081611E+02  0.74615081611E+02  0.00000000000E+00 0. -1.
         -6    2    1    2    0  503 -0.62517871806E+02 -0.63867890413E+02  0.24630799256E+03  0.31209202733E+03  0.16954708668E+03 0.  0.
        -24    2    3    3    0    0 -0.82954689651E+02 -0.53881695768E+02  0.93559006367E+02  0.15758723650E+03  0.79345647393E+02 0.  0.
          6    2    1    2  501    0  0.62517871806E+02  0.63867890413E+02  0.17602445233E+03  0.25947058078E+03  0.16838284578E+03 0.  0.
         24    2    5    5    0    0  0.56385557153E+02  0.74247637621E+02  0.51952861043E+02  0.13472606507E+03  0.82219037283E+02 0.  0.
          5    1    5    5  501    0  0.61323146529E+01 -0.10379747208E+02  0.12407159128E+03  0.12474451571E+03  0.47000000000E+01 0. -1.
        -15    1    6    6    0    0  0.32063368608E+02  0.43033543630E+01  0.51295144196E+02  0.60670651986E+02  0.17770000000E+01 0.  1.
         16    1    6    6    0    0  0.24322188545E+02  0.69944283258E+02  0.65771684653E+00  0.74055413087E+02  0.00000000000E+00 0. -1.
         -5    1    3    3    0  503  0.20436817845E+02 -0.99861946449E+01  0.15274898619E+03  0.15450479083E+03  0.47000000000E+01 0.  1.
         15    1    4    4    0    0 -0.98965846132E+01 -0.50873555659E+02  0.52201764641E+02  0.73581539893E+02  0.17770000000E+01 0. -1.
        -16    1    4    4    0    0 -0.73058105038E+02 -0.30081401091E+01  0.41357241726E+02  0.84005696604E+02  0.00000000000E+00 0.  1.
<mgrwt>
<rscale>  2 0.19140285E+03</rscale>
<asrwt>0</asrwt>
<pdfrwt beam="1">  1       21 0.76453463E-01 0.19166065E+03</pdfrwt>
<pdfrwt beam="2">  1       21 0.11479244E-01 0.19166065E+03</pdfrwt>
<totfact> 0.96792508E+04</totfact>
</mgrwt>
</event>
<event>
12    2  0.4090627E-002  0.1860024E+03  0.7546771E-02  0.1162124E+00
         21   -1    0    0  503  502  0.00000000000E+00  0.00000000000E+00  0.15070728868E+04  0.15070728868E+04  0.00000000000E+00 0.  1.
         21   -1    0    0  501  503 -0.00000000000E+00 -0.00000000000E+00 -0.38242898535E+02  0.38242898535E+02  0.00000000000E+00 0.  1.
          6    2    1    2  501    0  0.66095207341E+02  0.23111595827E+02  0.24588990455E+03  0.30831596666E+03  0.17231995776E+03 0.  0.
         24    2    3    3    0    0  0.98227404355E+02  0.30727386842E+02  0.22449718438E+03  0.26869000504E+03  0.10584204150E+03 0.  0.
         -6    2    1    2    0  502 -0.66095207341E+02 -0.23111595827E+02  0.12229400837E+04  0.12369998186E+04  0.17228865532E+03 0.  0.
        -24    2    5    5    0    0 -0.25861422236E+02 -0.55115108731E+02  0.39995905081E+03  0.41240121765E+03  0.80006459862E+02 0.  0.
          5    1    3    3  501    0 -0.32132197013E+02 -0.76157910150E+01  0.21392720177E+02  0.39625961619E+02  0.47000000000E+01 0. -1.
        -15    1    4    4    0    0 -0.89406599776E+01  0.69281181513E+01 -0.63334294561E+01  0.13084505326E+02  0.17770000000E+01 0.  1.
         16    1    4    4    0    0  0.10716806433E+03  0.23799268691E+02  0.23083061383E+03  0.25560549972E+03  0.00000000000E+00 0. -1.
         -5    1    5    5    0  502 -0.40233785105E+02  0.32003512904E+02  0.82298103287E+03  0.82459860099E+03  0.47000000000E+01 0.  1.
         15    1    6    6    0    0 -0.40086258495E+02 -0.63950043260E+01  0.96165786998E+02  0.10439741624E+03  0.17770000000E+01 0. -1.
        -16    1    6    6    0    0  0.14224836259E+02 -0.48720104405E+02  0.30379326381E+03  0.30800380140E+03  0.00000000000E+00 0.  1.
<mgrwt>
<rscale>  2 0.18599514E+03</rscale>
<asrwt>0</asrwt>
<pdfrwt beam="1">  1       21 0.23185732E+00 0.18600239E+03</pdfrwt>
<pdfrwt beam="2">  1       21 0.58835240E-02 0.18600239E+03</pdfrwt>
<totfact> 0.17477512E+04</totfact>
</mgrwt>
</event>
<event>
12    2  0.4090627E-002  0.1998739E+03  0.7546771E-02  0.1149939E+00
         21   -1    0    0  501  502  0.00000000000E+00  0.00000000000E+00  0.81768601373E+02  0.81768601373E+02  0.00000000000E+00 0. -1.
         21   -1    0    0  502  503 -0.00000000000E+00 -0.00000000000E+00 -0.52167097977E+03  0.52167097977E+03  0.00000000000E+00 0. -1.
         -6    2    1    2    0  503  0.94120377714E+02  0.30997821221E+02 -0.29696076773E+03  0.35771235448E+03  0.17306912074E+03 0.  0.
        -24    2    3    3    0    0  0.14489747493E+02 -0.32650392656E+02 -0.19901867344E+03  0.21626668918E+03  0.76725794530E+02 0.  0.
          6    2    1    2  501    0 -0.94120377714E+02 -0.30997821221E+02 -0.14294161067E+03  0.24572722667E+03  0.17358011246E+03 0.  0.
         24    2    5    5    0    0 -0.51570429903E+02 -0.59849209141E+02 -0.15633015292E+03  0.19239577528E+03  0.79596360196E+02 0.  0.
          5    1    5    5  501    0 -0.42549947811E+02  0.28851387919E+02  0.13388542254E+02  0.53331451389E+02  0.47000000000E+01 0. -1.
        -15    1    6    6    0    0 -0.58580851037E+02 -0.70159182795E+02 -0.10340049734E+03  0.13801756271E+03  0.17770000000E+01 0.  1.
         16    1    6    6    0    0  0.70104211339E+01  0.10309973654E+02 -0.52929655586E+02  0.54378212564E+02  0.00000000000E+00 0. -1.
         -5    1    3    3    0  503  0.79630630221E+02  0.63648213878E+02 -0.97942094289E+02  0.14144566530E+03  0.47000000000E+01 0.  1.
         15    1    4    4    0    0  0.32400485031E+02  0.13445332053E+02 -0.86551736347E+02  0.93407329359E+02  0.17770000000E+01 0. -1.
        -16    1    4    4    0    0 -0.17910737537E+02 -0.46095724709E+02 -0.11246693709E+03  0.12285935982E+03  0.00000000000E+00 0.  1.
<mgrwt>
<rscale>  2 0.19976288E+03</rscale>
<asrwt>0</asrwt>
<pdfrwt beam="1">  1       21 0.12579785E-01 0.19987387E+03</pdfrwt>
<pdfrwt beam="2">  1       21 0.80257073E-01 0.19987387E+03</pdfrwt>
<totfact> 0.73386986E+04</totfact>
</mgrwt>
</event>
<event>
12    2  0.4090627E-002  0.1874674E+03  0.7546771E-02  0.1160965E+00
         21   -1    0    0  503  502  0.00000000000E+00  0.00000000000E+00  0.84541361539E+03  0.84541361539E+03  0.00000000000E+00 0.  1.
         21   -1    0    0  501  503 -0.00000000000E+00 -0.00000000000E+00 -0.49781443254E+02  0.49781443254E+02  0.00000000000E+00 0.  1.
          6    2    1    2  501    0  0.51544136078E+02  0.47369431054E+02  0.58094948012E+03  0.61018157781E+03  0.17296993522E+03 0.  0.
         24    2    3    3    0    0 -0.17782488964E+02  0.60176919768E+02  0.21797339492E+03  0.24039252831E+03  0.79615878994E+02 0.  0.
         -6    2    1    2    0  502 -0.51544136078E+02 -0.47369431054E+02  0.21468269202E+03  0.28501348084E+03  0.17390619610E+03 0.  0.
        -24    2    5    5    0    0 -0.39128462690E+02 -0.13257625280E+02  0.22861418315E+03  0.24584792602E+03  0.80436041487E+02 0.  0.
          5    1    3    3  501    0  0.69326625043E+02 -0.12807488714E+02  0.36297608520E+03  0.36978904951E+03  0.47000000000E+01 0. -1.
        -15    1    4    4    0    0 -0.42437873069E+02  0.24579050813E+02  0.16405984114E+03  0.17124220278E+03  0.17770000000E+01 0.  1.
         16    1    4    4    0    0  0.24655384105E+02  0.35597868955E+02  0.53913553774E+02  0.69150325524E+02  0.00000000000E+00 0. -1.
         -5    1    5    5    0  502 -0.12415673389E+02 -0.34111805774E+02 -0.13931491129E+02  0.39165554815E+02  0.47000000000E+01 0.  1.
         15    1    6    6    0    0 -0.30916600636E+02 -0.44261188580E+02  0.17719455884E+03  0.18524567045E+03  0.17770000000E+01 0. -1.
        -16    1    6    6    0    0 -0.82118620541E+01  0.31003563300E+02  0.51419624308E+02  0.60602255566E+02  0.00000000000E+00 0.  1.
<mgrwt>
<rscale>  2 0.18724997E+03</rscale>
<asrwt>0</asrwt>
<pdfrwt beam="1">  1       21 0.13006362E+00 0.18746740E+03</pdfrwt>
<pdfrwt beam="2">  1       21 0.76586842E-02 0.18746740E+03</pdfrwt>
<totfact> 0.56036332E+04</totfact>
</mgrwt>
</event>
<event>
12    2  0.4090627E-002  0.1801270E+03  0.7546771E-02  0.1167833E+00
         21   -1    0    0  501  502  0.00000000000E+00  0.00000000000E+00  0.14535543085E+03  0.14535543085E+03  0.00000000000E+00 0. -1.
         21   -1    0    0  502  503 -0.00000000000E+00 -0.00000000000E+00 -0.54886502402E+03  0.54886502402E+03  0.00000000000E+00 0. -1.
         -6    2    1    2    0  503 -0.26927520683E+02  0.39311617860E+02 -0.46929919689E+03  0.50245491335E+03  0.17305695328E+03 0.  0.
        -24    2    3    3    0    0 -0.65751968877E+02  0.15402622082E+02 -0.17738677525E+03  0.20696560769E+03  0.82511408615E+02 0.  0.
          6    2    1    2  501    0  0.26927520683E+02 -0.39311617860E+02  0.65789603717E+02  0.19176554152E+03  0.17371026535E+03 0.  0.
         24    2    5    5    0    0  0.30365632503E+01 -0.52590747736E+02 -0.24323368423E+02  0.97481126663E+02  0.78332217766E+02 0.  0.
          5    1    5    5  501    0  0.23890957432E+02  0.13279129876E+02  0.90112972140E+02  0.94284414858E+02  0.47000000000E+01 0. -1.
        -15    1    6    6    0    0  0.33584606295E+02 -0.44533576217E+02  0.27516912658E+01  0.55873918106E+02  0.17770000000E+01 0.  1.
         16    1    6    6    0    0 -0.30548043044E+02 -0.80571715184E+01 -0.27075059689E+02  0.41607208557E+02  0.00000000000E+00 0. -1.
         -5    1    3    3    0  503  0.38824448194E+02  0.23908995778E+02 -0.29191242163E+03  0.29548930566E+03  0.47000000000E+01 0.  1.
         15    1    4    4    0    0 -0.21674484312E+02 -0.33861327510E+02 -0.74462903085E+02  0.84641918904E+02  0.17770000000E+01 0. -1.
        -16    1    4    4    0    0 -0.44077484565E+02  0.49263949592E+02 -0.10292387217E+03  0.12232368878E+03  0.00000000000E+00 0.  1.
<mgrwt>
<rscale>  2 0.17996935E+03</rscale>
<asrwt>0</asrwt>
<pdfrwt beam="1">  1       21 0.22362374E-01 0.18012704E+03</pdfrwt>
<pdfrwt beam="2">  1       21 0.84440773E-01 0.18012704E+03</pdfrwt>
<totfact> 0.22937898E+04</totfact>
</mgrwt>
</event>
<event>
12    2  0.4090627E-002  0.1824475E+03  0.7546771E-02  0.1165495E+00
         21   -1    0    0  503  502  0.00000000000E+00  0.00000000000E+00  0.15169980903E+03  0.15169980903E+03  0.00000000000E+00 0. -1.
         21   -1    0    0  501  503 -0.00000000000E+00 -0.00000000000E+00 -0.22744081758E+03  0.22744081758E+03  0.00000000000E+00 0. -1.
          6    2    1    2  501    0 -0.62491175756E+02 -0.21718578819E+01 -0.73909578621E+02  0.19684946723E+03  0.17139784982E+03 0.  0.
         24    2    3    3    0    0 -0.52316375375E+02  0.39917498249E+02  0.97694011472E+01  0.10251335475E+03  0.77994467141E+02 0.  0.
         -6    2    1    2    0  502  0.62491175756E+02  0.21718578819E+01 -0.18314299329E+01  0.18229115938E+03  0.17122163601E+03 0.  0.
        -24    2    5    5    0    0  0.99080229563E+02  0.35298708870E+02 -0.69298233332E+01  0.13244910154E+03  0.80198823607E+02 0.  0.
          5    1    3    3  501    0 -0.10174800381E+02 -0.42089356131E+02 -0.83678979768E+02  0.94336112477E+02  0.47000000000E+01 0. -1.
        -15    1    4    4    0    0  0.18394280457E+02  0.19604370277E+02 -0.51916174629E+01  0.27437046276E+02  0.17770000000E+01 0.  1.
         16    1    4    4    0    0 -0.70710655832E+02  0.20313127972E+02  0.14961018610E+02  0.75076308474E+02  0.00000000000E+00 0. -1.
         -5    1    5    5    0  502 -0.36589053806E+02 -0.33126850988E+02  0.50983934003E+01  0.49842057844E+02  0.47000000000E+01 0.  1.
         15    1    6    6    0    0  0.27359169007E+02  0.17761164068E+02 -0.39917858232E+02  0.51580773672E+02  0.17770000000E+01 0. -1.
        -16    1    6    6    0    0  0.71721060556E+02  0.17537544802E+02  0.32988034898E+02  0.80868327863E+02  0.00000000000E+00 0.  1.
<mgrwt>
<rscale>  2 0.18240609E+03</rscale>
<asrwt>0</asrwt>
<pdfrwt beam="1">  1       21 0.23338432E-01 0.18244749E+03</pdfrwt>
<pdfrwt beam="2">  1       21 0.34990895E-01 0.18244749E+03</pdfrwt>
<totfact> 0.13639011E+05</totfact>
</mgrwt>
</event>
<event>
12    2  0.4090627E-002  0.1854635E+03  0.7546771E-02  0.1164614E+00
         21   -1    0    0  503  502  0.00000000000E+00  0.00000000000E+00  0.17990682950E+03  0.17990682950E+03  0.00000000000E+00 0.  1.
         21   -1    0    0  501  503 -0.00000000000E+00 -0.00000000000E+00 -0.18452578328E+03  0.18452578328E+03  0.00000000000E+00 0.  1.
          6    2    1    2  501    0  0.19774688568E+02 -0.61716918898E+02 -0.20574385340E+02  0.17828402619E+03  0.16480859285E+03 0.  0.
         24    2    3    3    0    0  0.51908469231E+02 -0.87846833506E+02 -0.33603313374E+02  0.13461257942E+03  0.81116018975E+02 0.  0.
         -6    2    1    2    0  502 -0.19774688568E+02  0.61716918898E+02  0.15955431560E+02  0.18614858659E+03  0.17377198885E+03 0.  0.
        -24    2    5    5    0    0 -0.16004678776E+02 -0.25334091586E+02 -0.25441693436E+02  0.89567515164E+02  0.80480395555E+02 0.  0.
          5    1    3    3  501    0 -0.32133780663E+02  0.26129914608E+02  0.13028928034E+02  0.43671446769E+02  0.47000000000E+01 0. -1.
        -15    1    4    4    0    0  0.51145296031E+02 -0.10216659872E+03 -0.22464364965E+02  0.11645454316E+03  0.17770000000E+01 0.  1.
         16    1    4    4    0    0  0.76317320029E+00  0.14319765217E+02 -0.11138948409E+02  0.18158036261E+02  0.00000000000E+00 0. -1.
         -5    1    5    5    0  502 -0.37700097922E+01  0.87051010484E+02  0.41397124996E+02  0.96581071427E+02  0.47000000000E+01 0.  1.
         15    1    6    6    0    0 -0.10044374508E+02 -0.71133166112E+01 -0.53865804853E+02  0.55282650027E+02  0.17770000000E+01 0. -1.
        -16    1    6    6    0    0 -0.59603042676E+01 -0.18220774975E+02  0.28424111417E+02  0.34284865138E+02  0.00000000000E+00 0.  1.
<mgrwt>
<rscale>  2 0.18333449E+03</rscale>
<asrwt>0</asrwt>
<pdfrwt beam="1">  1       21 0.27677974E-01 0.18546353E+03</pdfrwt>
<pdfrwt beam="2">  1       21 0.28388582E-01 0.18546353E+03</pdfrwt>
<totfact> 0.14814017E+05</totfact>
</mgrwt>
</event>
<event>
12    2  0.4090627E-002  0.2191921E+03  0.7546771E-02  0.1134521E+00
         21   -1    0    0  501  502  0.00000000000E+00  0.00000000000E+00  0.23199013656E+03  0.23199013656E+03  0.00000000000E+00 0.  1.
         21   -1    0    0  502  503 -0.00000000000E+00 -0.00000000000E+00 -0.20840157409E+03  0.20840157409E+03  0.00000000000E+00 0.  1.
         -6    2    1    2    0  503  0.13240590131E+03 -0.20073250106E+02  0.30321354413E+02  0.22127939032E+03  0.17352500101E+03 0.  0.
        -24    2    3    3    0    0  0.14901857731E+03 -0.33479100361E+01  0.63279957029E+02  0.18048628440E+03  0.79706969644E+02 0.  0.
          6    2    1    2  501    0 -0.13240590131E+03  0.20073250106E+02 -0.67327919360E+01  0.21911232033E+03  0.17329345159E+03 0.  0.
         24    2    5    5    0    0 -0.56063456767E+02  0.43599755608E+02  0.52708326157E+02  0.11942780890E+03  0.80254495313E+02 0.  0.
          5    1    5    5  501    0 -0.76342444543E+02 -0.23526505502E+02 -0.59441118093E+02  0.99684511435E+02  0.47000000000E+01 0. -1.
        -15    1    6    6    0    0 -0.74164023970E+02  0.24086872247E+02  0.27316103005E+02  0.82642646851E+02  0.17770000000E+01 0.  1.
         16    1    6    6    0    0  0.18100567204E+02  0.19512883361E+02  0.25392223152E+02  0.36785162046E+02  0.00000000000E+00 0. -1.
         -5    1    3    3    0  503 -0.16612676000E+02 -0.16725340069E+02 -0.32958602616E+02  0.40793105921E+02  0.47000000000E+01 0.  1.
         15    1    4    4    0    0  0.40040623250E+02 -0.14408829967E+02  0.56477997766E+02  0.70737457206E+02  0.17770000000E+01 0. -1.
        -16    1    4    4    0    0  0.10897795406E+03  0.11060919931E+02  0.68019592631E+01  0.10974882719E+03  0.00000000000E+00 0.  1.
<mgrwt>
<rscale>  2 0.21914629E+03</rscale>
<asrwt>0</asrwt>
<pdfrwt beam="1">  1       21 0.35690790E-01 0.21919212E+03</pdfrwt>
<pdfrwt beam="2">  1       21 0.32061781E-01 0.21919212E+03</pdfrwt>
<totfact> 0.70015774E+04</totfact>
</mgrwt>
</event>
<event>
12    2  0.4090627E-002  0.2130819E+03  0.7546771E-02  0.1141104E+00
         21   -1    0    0  501  502  0.00000000000E+00  0.00000000000E+00  0.17775323609E+03  0.17775323609E+03  0.00000000000E+00 0.  1.
         21   -1    0    0  502  503 -0.00000000000E+00 -0.00000000000E+00 -0.24578965148E+03  0.24578965148E+03  0.00000000000E+00 0.  1.
         -6    2    1    2    0  503 -0.11179565283E+03  0.52512511507E+02 -0.15779331034E+02  0.21366535240E+03  0.17363197768E+03 0.  0.
        -24    2    3    3    0    0 -0.38670978279E+02  0.93096276623E+02  0.20067196224E+02  0.12255375305E+03  0.66741057385E+02 0.  0.
          6    2    1    2  501    0  0.11179565283E+03 -0.52512511507E+02 -0.52257084358E+02  0.20987753517E+03  0.16143712413E+03 0.  0.
         24    2    5    5    0    0  0.17318388763E+02 -0.48318459799E+02  0.10613564553E+02  0.96218606840E+02  0.80689357433E+02 0.  0.
          5    1    5    5  501    0  0.94477264067E+02 -0.41940517086E+01 -0.62870648911E+02  0.11365892833E+03  0.47000000000E+01 0. -1.
        -15    1    6    6    0    0  0.27699059513E+02 -0.59874955269E+02 -0.13665305775E+02  0.67395448491E+02  0.17770000000E+01 0.  1.
         16    1    6    6    0    0 -0.10380670750E+02  0.11556495470E+02  0.24278870328E+02  0.28823158349E+02  0.00000000000E+00 0. -1.
         -5    1    3    3    0  503 -0.73124674552E+02 -0.40583765115E+02 -0.35846527258E+02  0.91111599348E+02  0.47000000000E+01 0.  1.
         15    1    4    4    0    0  0.98553346794E+01  0.43684003597E+02 -0.11760450014E+02  0.46334498006E+02  0.17770000000E+01 0. -1.
        -16    1    4    4    0    0 -0.48526312958E+02  0.49412273025E+02  0.31827646238E+02  0.76219255047E+02  0.00000000000E+00 0.  1.
<mgrwt>
<rscale>  2 0.21058481E+03</rscale>
<asrwt>0</asrwt>
<pdfrwt beam="1">  1       21 0.27346652E-01 0.21308190E+03</pdfrwt>
<pdfrwt beam="2">  1       21 0.37813792E-01 0.21308190E+03</pdfrwt>
<totfact> 0.85280186E+04</totfact>
</mgrwt>
</event>
<event>
12    2  0.4090627E-002  0.2261062E+03  0.7546771E-02  0.1129423E+00
         21   -1    0    0  501  502  0.00000000000E+00  0.00000000000E+00  0.63656534008E+03  0.63656534008E+03  0.00000000000E+00 0. -1.
         21   -1    0    0  502  503 -0.00000000000E+00 -0.00000000000E+00 -0.80294486527E+02  0.80294486527E+02  0.00000000000E+00 0. -1.
         -6    2    1    2    0  503  0.12203651817E+03 -0.80512796085E+02  0.28131514636E+03  0.36091855690E+03  0.17247832049E+03 0.  0.
        -24    2    3    3    0    0  0.11135901354E+03 -0.11333152384E+02  0.24538894800E+03  0.28209842028E+03  0.82671111541E+02 0.  0.
          6    2    1    2  501    0 -0.12203651817E+03  0.80512796085E+02  0.27495570719E+03  0.35594126971E+03  0.17239003586E+03 0.  0.
         24    2    5    5    0    0 -0.21364985207E+02  0.15456477402E+02  0.41414225212E+02  0.93394519673E+02  0.79448303748E+02 0.  0.
          5    1    5    5  501    0 -0.10067153296E+03  0.65056318683E+02  0.23354148198E+03  0.26254675003E+03  0.47000000000E+01 0. -1.
        -15    1    6    6    0    0  0.23953657489E+02  0.12355093208E+02 -0.60672846420E+01  0.27683852825E+02  0.17770000000E+01 0.  1.
         16    1    6    6    0    0 -0.45318642695E+02  0.31013841938E+01  0.47481509854E+02  0.65710666849E+02  0.00000000000E+00 0. -1.
         -5    1    3    3    0  503  0.10677504626E+02 -0.69179643701E+02  0.35926198361E+02  0.78820136617E+02  0.47000000000E+01 0.  1.
         15    1    4    4    0    0  0.47670266817E+02 -0.45260095111E+02  0.98372214544E+02  0.11832658565E+03  0.17770000000E+01 0. -1.
        -16    1    4    4    0    0  0.63688746726E+02  0.33926942727E+02  0.14701673346E+03  0.16377183463E+03  0.00000000000E+00 0.  1.
<mgrwt>
<rscale>  2 0.22608932E+03</rscale>
<asrwt>0</asrwt>
<pdfrwt beam="1">  1       21 0.97933126E-01 0.22610615E+03</pdfrwt>
<pdfrwt beam="2">  1       21 0.12352998E-01 0.22610615E+03</pdfrwt>
<totfact> 0.47259185E+04</totfact>
</mgrwt>
</event>
<event>
12    2  0.4090627E-002  0.2317304E+03  0.7546771E-02  0.1126013E+00
         21   -1    0    0  501  502  0.00000000000E+00  0.00000000000E+00  0.11016640616E+03  0.11016640616E+03  0.00000000000E+00 0. -1.
         21   -1    0    0  502  503 -0.00000000000E+00 -0.00000000000E+00 -0.51964928702E+03  0.51964928702E+03  0.00000000000E+00 0.  1.
         -6    2    1    2    0  503  0.14816214874E+03  0.37568817717E+02 -0.11688043459E+03  0.25656620482E+03  0.16971076301E+03 0.  0.
        -24    2    3    3    0    0  0.66957418180E+02  0.83640873145E+02 -0.72997042594E+02  0.15329624476E+03  0.81805127719E+02 0.  0.
          6    2    1    2  501    0 -0.14816214874E+03 -0.37568817717E+02 -0.29260244626E+03  0.37324948836E+03  0.17417103841E+03 0.  0.
         24    2    5    5    0    0 -0.17723444912E+02 -0.17376307270E+02 -0.18473230776E+03  0.20272075262E+03  0.79709607058E+02 0.  0.
          5    1    5    5  501    0 -0.13043870383E+03 -0.20192510448E+02 -0.10787013850E+03  0.17052873574E+03  0.47000000000E+01 0. -1.
        -15    1    6    6    0    0 -0.39870272341E+02 -0.12889555850E+02 -0.17145941682E+03  0.17651421646E+03  0.17770000000E+01 0.  1.
         16    1    6    6    0    0  0.22146827429E+02 -0.44867514199E+01 -0.13272890938E+02  0.26206536157E+02  0.00000000000E+00 0. -1.
         -5    1    3    3    0  503  0.81204730558E+02 -0.46072055427E+02 -0.43883392000E+02  0.10326996005E+03  0.47000000000E+01 0.  1.
         15    1    4    4    0    0  0.60724631486E+02  0.19349325143E+02 -0.12858113431E+02  0.65041264307E+02  0.17770000000E+01 0. -1.
        -16    1    4    4    0    0  0.62327866934E+01  0.64291548001E+02 -0.60138929163E+02  0.88254980455E+02  0.00000000000E+00 0.  1.
<mgrwt>
<rscale>  2 0.23089253E+03</rscale>
<asrwt>0</asrwt>
<pdfrwt beam="1">  1       21 0.16948678E-01 0.23173042E+03</pdfrwt>
<pdfrwt beam="2">  1       21 0.79946045E-01 0.23173042E+03</pdfrwt>
<totfact> 0.42389111E+04</totfact>
</mgrwt>
</event>
<event>
12    2  0.4090627E-002  0.1993985E+03  0.7546771E-02  0.1150252E+00
         21   -1    0    0  501  502  0.00000000000E+00  0.00000000000E+00  0.40252762557E+02  0.40252762557E+02  0.00000000000E+00 0. -1.
         21   -1    0    0  502  503 -0.00000000000E+00 -0.00000000000E+00 -0.99067108827E+03  0.99067108827E+03  0.00000000000E+00 0. -1.
         -6    2    1    2    0  503 -0.86643851668E+02  0.50154547349E+02 -0.44675424073E+03  0.48923317587E+03  0.17244452182E+03 0.  0.
        -24    2    3    3    0    0 -0.92155091211E+02 -0.19884681645E+02 -0.22776888496E+03  0.25920590922E+03  0.80131623086E+02 0.  0.
          6    2    1    2  501    0  0.86643851668E+02 -0.50154547349E+02 -0.50366408498E+03  0.54169067496E+03  0.17241995588E+03 0.  0.
         24    2    5    5    0    0  0.68429733301E+02 -0.43339547618E+01 -0.14449979900E+03  0.17912708725E+03  0.80653021700E+02 0.  0.
          5    1    5    5  501    0  0.18214118367E+02 -0.45820592587E+02 -0.35916428598E+03  0.36256358772E+03  0.47000000000E+01 0. -1.
        -15    1    6    6    0    0  0.49263203598E+02  0.36083652052E+02 -0.81054262143E+02  0.10149800153E+03  0.17770000000E+01 0.  1.
         16    1    6    6    0    0  0.19166529703E+02 -0.40417606813E+02 -0.63445536861E+02  0.77629085715E+02  0.00000000000E+00 0. -1.
         -5    1    3    3    0  503  0.55112395429E+01  0.70039228994E+02 -0.21898535577E+03  0.23002726665E+03  0.47000000000E+01 0.  1.
         15    1    4    4    0    0 -0.19229041675E+02  0.27234245072E+01 -0.55804093257E+00  0.19510054420E+02  0.17770000000E+01 0. -1.
        -16    1    4    4    0    0 -0.72926049536E+02 -0.22608106152E+02 -0.22721084403E+03  0.23969585480E+03  0.00000000000E+00 0.  1.
<mgrwt>
<rscale>  2 0.19939316E+03</rscale>
<asrwt>0</asrwt>
<pdfrwt beam="1">  1       21 0.61927333E-02 0.19939847E+03</pdfrwt>
<pdfrwt beam="2">  1       21 0.15241092E+00 0.19939847E+03</pdfrwt>
<totfact> 0.53325854E+04</totfact>
</mgrwt>
</event>
<event>
12    2  0.4090627E-002  0.1952646E+03  0.7546771E-02  0.1154132E+00
         21   -1    0    0  501  502  0.00000000000E+00  0.00000000000E+00  0.35479635384E+03  0.35479635384E+03  0.00000000000E+00 0. -1.
         21   -1    0    0  502  503 -0.00000000000E+00 -0.00000000000E+00 -0.28266357347E+03  0.28266357347E+03  0.00000000000E+00 0. -1.
         -6    2    1    2    0  503  0.60560128761E+02  0.63882577993E+02 -0.21541217824E+03  0.29074160119E+03  0.17429790350E+03 0.  0.
        -24    2    3    3    0    0  0.47940737549E+02  0.51794844679E+02 -0.23838597943E+03  0.26149697994E+03  0.81066485528E+02 0.  0.
          6    2    1    2  501    0 -0.60560128761E+02 -0.63882577993E+02  0.28754495861E+03  0.34671832611E+03  0.17257746514E+03 0.  0.
         24    2    5    5    0    0  0.31002268375E+02 -0.32299328593E+02  0.10078577902E+03  0.13628483218E+03  0.80071186801E+02 0.  0.
          5    1    5    5  501    0 -0.91562397135E+02 -0.31583249401E+02  0.18675917958E+03  0.21043349394E+03  0.47000000000E+01 0. -1.
        -15    1    6    6    0    0 -0.47217038876E+01 -0.50984884534E+02  0.52048465093E+02  0.73033919421E+02  0.17770000000E+01 0.  1.
         16    1    6    6    0    0  0.35723972262E+02  0.18685555941E+02  0.48737313932E+02  0.63250912755E+02  0.00000000000E+00 0. -1.
         -5    1    3    3    0  503  0.12619391212E+02  0.12087733314E+02  0.22973801191E+02  0.29244621255E+02  0.47000000000E+01 0.  1.
         15    1    4    4    0    0  0.27681187318E+02 -0.18686914520E+02 -0.89106180711E+02  0.95176247434E+02  0.17770000000E+01 0. -1.
        -16    1    4    4    0    0  0.20259550231E+02  0.70481759199E+02 -0.14927979872E+03  0.16632073250E+03  0.00000000000E+00 0.  1.
<mgrwt>
<rscale>  2 0.19487995E+03</rscale>
<asrwt>0</asrwt>
<pdfrwt beam="1">  1       21 0.54584055E-01 0.19526462E+03</pdfrwt>
<pdfrwt beam="2">  1       21 0.43486703E-01 0.19526462E+03</pdfrwt>
<totfact> 0.16084329E+04</totfact>
</mgrwt>
</event>
<event>
12    2  0.4090627E-002  0.2126114E+03  0.7546771E-02  0.1140095E+00
         21   -1    0    0  501  502  0.00000000000E+00  0.00000000000E+00  0.59906876504E+02  0.59906876504E+02  0.00000000000E+00 0.  1.
         21   -1    0    0  502  503 -0.00000000000E+00 -0.00000000000E+00 -0.12184681420E+04  0.12184681420E+04  0.00000000000E+00 0.  1.
         -6    2    1    2    0  503  0.11298111643E+03  0.37044866101E+02 -0.98056751111E+03  0.10033524977E+04  0.17625701671E+03 0.  0.
        -24    2    3    3    0    0  0.20443256903E+01 -0.20224883247E+02 -0.50179471383E+03  0.50854720550E+03  0.80056856213E+02 0.  0.
          6    2    1    2  501    0 -0.11298111643E+03 -0.37044866101E+02 -0.17799375436E+03  0.27502252082E+03  0.17268050148E+03 0.  0.
         24    2    5    5    0    0 -0.99250548765E+02  0.40452891416E+02 -0.11302561842E+03  0.17285902638E+03  0.74955618385E+02 0.  0.
          5    1    5    5  501    0 -0.13730567666E+02 -0.77497757518E+02 -0.64968135944E+02  0.10216349444E+03  0.47000000000E+01 0. -1.
        -15    1    6    6    0    0 -0.48733993920E+02  0.41129649658E+02 -0.10329857604E+03  0.12141006459E+03  0.17770000000E+01 0.  1.
         16    1    6    6    0    0 -0.50516554845E+02 -0.67675824150E+00 -0.97270423789E+01  0.51448961783E+02  0.00000000000E+00 0. -1.
         -5    1    3    3    0  503  0.11093679074E+03  0.57269749349E+02 -0.47877279728E+03  0.49480529215E+03  0.47000000000E+01 0.  1.
         15    1    4    4    0    0 -0.14466497637E+02 -0.39146816541E+02 -0.14574697055E+03  0.15161493974E+03  0.17770000000E+01 0. -1.
        -16    1    4    4    0    0  0.16510823328E+02  0.18921933294E+02 -0.35604774328E+03  0.35693226577E+03  0.00000000000E+00 0.  1.
<mgrwt>
<rscale>  2 0.21186862E+03</rscale>
<asrwt>0</asrwt>
<pdfrwt beam="1">  1       21 0.92164426E-02 0.21261136E+03</pdfrwt>
<pdfrwt beam="2">  1       21 0.18745664E+00 0.21261136E+03</pdfrwt>
<totfact> 0.14963287E+04</totfact>
</mgrwt>
</event>
<event>
12    2  0.4090627E-002  0.1970609E+03  0.7546771E-02  0.1152273E+00
         21   -1    0    0  503  502  0.00000000000E+00  0.00000000000E+00  0.54363168162E+03  0.54363168162E+03  0.00000000000E+00 0.  1.
         21   -1    0    0  501  503 -0.00000000000E+00 -0.00000000000E+00 -0.12982478022E+03  0.12982478022E+03  0.00000000000E+00 0.  1.
          6    2    1    2  501    0 -0.37532439927E+02 -0.88348767976E+02 -0.19065429229E+02  0.19783952615E+03  0.17193835717E+03 0.  0.
         24    2    3    3    0    0 -0.71283144733E+02 -0.10760946285E+03  0.62256372187E+01  0.15123681718E+03  0.78566742931E+02 0.  0.
         -6    2    1    2    0  502  0.37532439927E+02  0.88348767976E+02  0.43287233063E+03  0.47561693569E+03  0.17210120872E+03 0.  0.
        -24    2    5    5    0    0 -0.27201186834E+02  0.10184165911E+03  0.25652747683E+03  0.28722346976E+03  0.74695027378E+02 0.  0.
          5    1    3    3  501    0  0.33750704805E+02  0.19260694870E+02 -0.25291066447E+02  0.46602708975E+02  0.47000000000E+01 0. -1.
        -15    1    4    4    0    0 -0.30129488651E+02 -0.61309342840E+02 -0.35048647467E+02  0.76799655104E+02  0.17770000000E+01 0.  1.
         16    1    4    4    0    0 -0.41153656082E+02 -0.46300120006E+02  0.41274284686E+02  0.74437162075E+02  0.00000000000E+00 0. -1.
         -5    1    5    5    0  502  0.64733626762E+02 -0.13492891135E+02  0.17634485379E+03  0.18839346593E+03  0.47000000000E+01 0.  1.
         15    1    6    6    0    0 -0.23022597470E+02  0.40513452595E+02  0.37817191897E+02  0.60038967075E+02  0.17770000000E+01 0. -1.
        -16    1    6    6    0    0 -0.41785893643E+01  0.61328206516E+02  0.21871028494E+03  0.22718450268E+03  0.00000000000E+00 0.  1.
<mgrwt>
<rscale>  2 0.19702538E+03</rscale>
<asrwt>0</asrwt>
<pdfrwt beam="1">  1       21 0.83635642E-01 0.19706094E+03</pdfrwt>
<pdfrwt beam="2">  1       21 0.19973043E-01 0.19706094E+03</pdfrwt>
<totfact> 0.28701554E+04</totfact>
</mgrwt>
</event>
<event>
11    2  0.4090627E-002  0.2919469E+03  0.7546771E-02  0.1089408E+00
         21   -1    0    0  503  502  0.00000000000E+00  0.00000000000E+00  0.21301367483E+03  0.21301367483E+03  0.00000000000E+00 0. -1.
         21   -1    0    0  501  503 -0.00000000000E+00 -0.00000000000E+00 -0.43827340541E+03  0.43827340541E+03  0.00000000000E+00 0.  1.
          6    2    1    2  501    0  0.59405831630E+02 -0.22706278399E+03 -0.20973482646E+03  0.35947422442E+03  0.17362735928E+03 0.  0.
         -6    2    1    2    0  502 -0.59405831630E+02  0.22706278399E+03 -0.15524904121E+02  0.29181285581E+03  0.17270541237E+03 0.  0.
        -24    2    4    4    0    0  0.22912858150E+02  0.13451389409E+03  0.27532796471E+02  0.16059654856E+03  0.80088761728E+02 0.  0.
          5    1    3    3  501    0 -0.26987173442E+02 -0.31204761279E+02 -0.62277985956E+02  0.74851066737E+02  0.47000000000E+01 0. -1.
        -15    1    3    3    0    0  0.12642962663E+02 -0.13892495347E+02 -0.71751257186E+02  0.74190609706E+02  0.17770000000E+01 0.  1.
         16    1    3    3    0    0  0.73750042409E+02 -0.18196552736E+03 -0.75705583317E+02  0.21043254798E+03  0.00000000000E+00 0. -1.
         -5    1    4    4    0  502 -0.82318689780E+02  0.92548889901E+02 -0.43057700591E+02  0.13121630725E+03  0.47000000000E+01 0.  1.
         15    1    5    5    0    0 -0.13236264994E+01  0.13364783764E+03  0.26842419672E+02  0.13633477076E+03  0.17770000000E+01 0. -1.
        -16    1    5    5    0    0  0.24236484649E+02  0.86605644410E+00  0.69037679873E+00  0.24261777800E+02  0.00000000000E+00 0.  1.
<mgrwt>
<rscale>  2 0.29181001E+03</rscale>
<asrwt>0</asrwt>
<pdfrwt beam="1">  1       21 0.32771334E-01 0.29194695E+03</pdfrwt>
<pdfrwt beam="2">  1       21 0.67426678E-01 0.29194695E+03</pdfrwt>
<totfact> 0.17126288E+04</totfact>
</mgrwt>
</event>
<event>
12    2  0.4090627E-002  0.1746539E+03  0.7546771E-02  0.1173206E+00
         21   -1    0    0  503  502  0.00000000000E+00  0.00000000000E+00  0.11394162696E+03  0.11394162696E+03  0.00000000000E+00 0.  1.
         21   -1    0    0  501  503 -0.00000000000E+00 -0.00000000000E+00 -0.44691308699E+03  0.44691308699E+03  0.00000000000E+00 0.  1.
          6    2    1    2  501    0 -0.41999197426E+00 -0.18695730518E+02 -0.34458147955E+03  0.38631641725E+03  0.17364985303E+03 0.  0.
         24    2    3    3    0    0 -0.47280549936E+02 -0.47270798870E+02 -0.13192842843E+03  0.16664426022E+03  0.76780338690E+02 0.  0.
         -6    2    1    2    0  502  0.41999197426E+00  0.18695730518E+02  0.11610019513E+02  0.17453829670E+03  0.17314478834E+03 0.  0.
        -24    2    5    5    0    0 -0.18989923033E+02 -0.50915031648E+02  0.28068809106E+02  0.10027266020E+03  0.79459365173E+02 0.  0.
          5    1    3    3  501    0  0.46860557961E+02  0.28575068352E+02 -0.21265305112E+03  0.21967215703E+03  0.47000000000E+01 0. -1.
        -15    1    4    4    0    0 -0.41786919549E+02 -0.68237930597E+02 -0.10073033701E+03  0.12865582124E+03  0.17770000000E+01 0.  1.
         16    1    4    4    0    0 -0.54936303864E+01  0.20967131726E+02 -0.31198091423E+02  0.37988438979E+02  0.00000000000E+00 0. -1.
         -5    1    5    5    0  502  0.19409915007E+02  0.69610762166E+02 -0.16458789592E+02  0.74265636500E+02  0.47000000000E+01 0.  1.
         15    1    6    6    0    0 -0.15885172060E+02 -0.79473747493E+00 -0.23410081231E+02  0.28357713788E+02  0.17770000000E+01 0. -1.
        -16    1    6    6    0    0 -0.31047509725E+01 -0.50120294173E+02  0.51478890337E+02  0.71914946408E+02  0.00000000000E+00 0.  1.
<mgrwt>
<rscale>  2 0.17452821E+03</rscale>
<asrwt>0</asrwt>
<pdfrwt beam="1">  1       21 0.17529481E-01 0.17465388E+03</pdfrwt>
<pdfrwt beam="2">  1       21 0.68755859E-01 0.17465388E+03</pdfrwt>
<totfact> 0.57307306E+04</totfact>
</mgrwt>
</event>
<event>
11    2  0.4090627E-002  0.2462957E+03  0.7546771E-02  0.1115953E+00
         21   -1    0    0  503  502  0.00000000000E+00  0.00000000000E+00  0.45382630716E+03  0.45382630716E+03  0.00000000000E+00 0.  1.
         21   -1    0    0  501  503 -0.00000000000E+00 -0.00000000000E+00 -0.14799987442E+03  0.14799987442E+03  0.00000000000E+00 0.  1.
          6    2    1    2  501    0  0.40690240694E+02  0.16805791509E+03  0.25011271710E+03  0.35102416678E+03  0.17539223441E+03 0.  0.
         -6    2    1    2    0  502 -0.40690240694E+02 -0.16805791509E+03  0.55713715632E+02  0.25080201480E+03  0.17291175208E+03 0.  0.
        -24    2    4    4    0    0 -0.24141516340E+02 -0.18993258548E+03  0.24476563868E+02  0.20896649003E+03  0.80066796741E+02 0.  0.
          5    1    3    3  501    0  0.24526786471E+02 -0.53054556694E+01  0.15859146378E+02  0.30055176564E+02  0.47000000000E+01 0. -1.
        -15    1    3    3    0    0  0.70610902368E+02  0.65483077063E+02  0.81322919105E+02  0.12605755755E+03  0.17770000000E+01 0.  1.
         16    1    3    3    0    0 -0.54447448144E+02  0.10788029369E+03  0.15293065162E+03  0.19491143266E+03  0.00000000000E+00 0. -1.
         -5    1    4    4    0  502 -0.16548724354E+02  0.21874670389E+02  0.31237151764E+02  0.41835524769E+02  0.47000000000E+01 0.  1.
         15    1    5    5    0    0  0.12242484170E+02 -0.74596927886E+01  0.17607065726E+02  0.22774809058E+02  0.17770000000E+01 0. -1.
        -16    1    5    5    0    0 -0.36384000510E+02 -0.18247289269E+03  0.68694981412E+01  0.18619168097E+03  0.00000000000E+00 0.  1.
<mgrwt>
<rscale>  2 0.24585451E+03</rscale>
<asrwt>0</asrwt>
<pdfrwt beam="1">  1       21 0.69819431E-01 0.24629575E+03</pdfrwt>
<pdfrwt beam="2">  1       21 0.22769212E-01 0.24629575E+03</pdfrwt>
<totfact> 0.32819864E+04</totfact>
</mgrwt>
</event>
<event>
12    2  0.4090627E-002  0.1833568E+03  0.7546771E-02  0.1164748E+00
         21   -1    0    0  501  502  0.00000000000E+00  0.00000000000E+00  0.77239214728E+03  0.77239214728E+03  0.00000000000E+00 0. -1.
         21   -1    0    0  502  503 -0.00000000000E+00 -0.00000000000E+00 -0.54073134073E+02  0.54073134073E+02  0.00000000000E+00 0. -1.
         -6    2    1    2    0  503 -0.73733089434E+01 -0.59716574902E+02  0.17584282913E+03  0.25404809490E+03  0.17320305703E+03 0.  0.
        -24    2    3    3    0    0 -0.57944034121E+02 -0.43007277293E+01  0.13834241433E+03  0.17004401480E+03  0.80002100093E+02 0.  0.
          6    2    1    2  501    0  0.73733089434E+01  0.59716574902E+02  0.54247618408E+03  0.57241718646E+03  0.17251257940E+03 0.  0.
         24    2    5    5    0    0 -0.51130026935E+02  0.35251442911E+01  0.35145456601E+03  0.36483234656E+03  0.83400376683E+02 0.  0.
          5    1    5    5  501    0  0.58503335878E+02  0.56191430611E+02  0.19102161807E+03  0.20758483990E+03  0.47000000000E+01 0. -1.
        -15    1    6    6    0    0 -0.54000894194E+02  0.45746795649E+01  0.10336592084E+03  0.11672487133E+03  0.17770000000E+01 0.  1.
         16    1    6    6    0    0  0.28708672594E+01 -0.10495352738E+01  0.24808864517E+03  0.24810747523E+03  0.00000000000E+00 0. -1.
         -5    1    3    3    0  503  0.50570725177E+02 -0.55415847173E+02  0.37500414800E+02  0.84004080098E+02  0.47000000000E+01 0.  1.
         15    1    4    4    0    0 -0.33104446692E+02 -0.13638936738E+02  0.76118416382E+01  0.36647276137E+02  0.17770000000E+01 0. -1.
        -16    1    4    4    0    0 -0.24839587428E+02  0.93382090087E+01  0.13073057269E+03  0.13339673867E+03  0.00000000000E+00 0.  1.
<mgrwt>
<rscale>  2 0.18319361E+03</rscale>
<asrwt>0</asrwt>
<pdfrwt beam="1">  1       21 0.11882955E+00 0.18335685E+03</pdfrwt>
<pdfrwt beam="2">  1       21 0.83189443E-02 0.18335685E+03</pdfrwt>
<totfact> 0.60931779E+04</totfact>
</mgrwt>
</event>
<event>
12    2  0.4090627E-002  0.2699725E+03  0.7546771E-02  0.1101298E+00
         21   -1    0    0  501  502  0.00000000000E+00  0.00000000000E+00  0.37280552983E+02  0.37280552983E+02  0.00000000000E+00 0.  1.
         21   -1    0    0  502  503 -0.00000000000E+00 -0.00000000000E+00 -0.20501076465E+04  0.20501076465E+04  0.00000000000E+00 0. -1.
         -6    2    1    2    0  503  0.19849188572E+03  0.59128579752E+02 -0.78144711125E+03  0.82676065313E+03  0.17314263554E+03 0.  0.
        -24    2    3    3    0    0  0.11353937359E+03 -0.18219175181E+02 -0.55982524415E+03  0.57708497052E+03  0.79997696913E+02 0.  0.
          6    2    1    2  501    0 -0.19849188572E+03 -0.59128579752E+02 -0.12313799823E+04  0.12606275464E+04  0.17317601525E+03 0.  0.
         24    2    5    5    0    0 -0.48195250453E+02  0.10048612507E+02 -0.53112190574E+03  0.54107349957E+03  0.90809120692E+02 0.  0.
          5    1    5    5  501    0 -0.15029663527E+03 -0.69177192259E+02 -0.70025807652E+03  0.71955404678E+03  0.47000000000E+01 0. -1.
        -15    1    6    6    0    0 -0.69676206218E+02  0.28185591824E+02 -0.38681231783E+03  0.39405092089E+03  0.17770000000E+01 0.  1.
         16    1    6    6    0    0  0.21480955765E+02 -0.18136979318E+02 -0.14430958791E+03  0.14702257868E+03  0.00000000000E+00 0. -1.
         -5    1    3    3    0  503  0.84952512125E+02  0.77347754933E+02 -0.22162186710E+03  0.24967568261E+03  0.47000000000E+01 0.  1.
         15    1    4    4    0    0  0.70277848976E+02  0.18407748781E+02 -0.41942376235E+03  0.42567272807E+03  0.17770000000E+01 0. -1.
        -16    1    4    4    0    0  0.43261524618E+02 -0.36626923962E+02 -0.14040148180E+03  0.15141224245E+03  0.00000000000E+00 0.  1.
<mgrwt>
<rscale>  2 0.26996715E+03</rscale>
<asrwt>0</asrwt>
<pdfrwt beam="1">  1       21 0.57354679E-02 0.26997250E+03</pdfrwt>
<pdfrwt beam="2">  1       21 0.31540127E+00 0.26997250E+03</pdfrwt>
<totfact> 0.54853578E+03</totfact>
</mgrwt>
</event>
<event>
12    2  0.4090627E-002  0.3505468E+03  0.7546771E-02  0.1062404E+00
         21   -1    0    0  503  502  0.00000000000E+00  0.00000000000E+00  0.10155332709E+04  0.10155332709E+04  0.00000000000E+00 0. -1.
         21   -1    0    0  501  503 -0.00000000000E+00 -0.00000000000E+00 -0.12106595170E+03  0.12106595170E+03  0.00000000000E+00 0.  1.
          6    2    1    2  501    0 -0.30373349376E+03  0.23793087077E+02  0.46413795082E+03  0.58164173769E+03  0.17338664139E+03 0.  0.
         24    2    3    3    0    0 -0.22686967161E+03  0.10493363414E+02  0.22051487401E+03  0.32579173602E+03  0.77029131021E+02 0.  0.
         -6    2    1    2    0  502  0.30373349376E+03 -0.23793087077E+02  0.43032936834E+03  0.55495748486E+03  0.17313087108E+03 0.  0.
        -24    2    5    5    0    0  0.23943539817E+03 -0.78476778076E+02  0.34569265296E+03  0.43533301100E+03  0.80768221184E+02 0.  0.
          5    1    3    3  501    0 -0.76863822155E+02  0.13299723663E+02  0.24362307680E+03  0.25585000167E+03  0.47000000000E+01 0. -1.
        -15    1    4    4    0    0  0.57888987486E+01  0.35862117727E+01  0.72140964176E+01  0.10078352034E+02  0.17770000000E+01 0.  1.
         16    1    4    4    0    0 -0.23265857036E+03  0.69071516409E+01  0.21330077760E+03  0.31571338399E+03  0.00000000000E+00 0. -1.
         -5    1    5    5    0  502  0.64298095592E+02  0.54683690999E+02  0.84636715375E+02  0.11962447387E+03  0.47000000000E+01 0.  1.
         15    1    6    6    0    0  0.28663208849E+02 -0.57597144905E+01  0.97000806052E+02  0.10132654122E+03  0.17770000000E+01 0. -1.
        -16    1    6    6    0    0  0.21077218932E+03 -0.72717063585E+02  0.24869184691E+03  0.33400646977E+03  0.00000000000E+00 0.  1.
<mgrwt>
<rscale>  2 0.35051521E+03</rscale>
<asrwt>0</asrwt>
<pdfrwt beam="1">  1       21 0.15623588E+00 0.35054682E+03</pdfrwt>
<pdfrwt beam="2">  1       21 0.18625532E-01 0.35054682E+03</pdfrwt>
<totfact> 0.64241543E+03</totfact>
</mgrwt>
</event>
<event>
12    2  0.4090627E-002  0.1743259E+03  0.7546771E-02  0.1173664E+00
         21   -1    0    0  503  502  0.00000000000E+00  0.00000000000E+00  0.90199449301E+02  0.90199449301E+02  0.00000000000E+00 0. -1.
         21   -1    0    0  501  503 -0.00000000000E+00 -0.00000000000E+00 -0.36285021940E+03  0.36285021940E+03  0.00000000000E+00 0. -1.
          6    2    1    2  501    0  0.18175717470E+01 -0.19745018739E+02 -0.73185416113E+02  0.18814225426E+03  0.17218662368E+03 0.  0.
         24    2    3    3    0    0  0.42433801982E+02 -0.85051716329E+01 -0.10942877182E+03  0.13235979147E+03  0.60592844463E+02 0.  0.
         -6    2    1    2    0  502 -0.18175717470E+01  0.19745018739E+02 -0.19946535399E+03  0.26490741445E+03  0.17319451912E+03 0.  0.
        -24    2    5    5    0    0  0.50094852343E+02 -0.34690242266E+02 -0.10901114279E+03  0.14716977501E+03  0.77862740029E+02 0.  0.
          5    1    3    3  501    0 -0.40616230235E+02 -0.11239847106E+02  0.36243355712E+02  0.55782462788E+02  0.47000000000E+01 0. -1.
        -15    1    4    4    0    0  0.13879055080E+01  0.29001932632E+00 -0.82403788368E+02  0.82435140925E+02  0.17770000000E+01 0.  1.
         16    1    4    4    0    0  0.41045896474E+02 -0.87951909592E+01 -0.27024983457E+02  0.49924650547E+02  0.00000000000E+00 0. -1.
         -5    1    5    5    0  502 -0.51912424090E+02  0.54435261005E+02 -0.90454211199E+02  0.11773763943E+03  0.47000000000E+01 0.  1.
         15    1    6    6    0    0  0.65627430581E+02 -0.62087799149E+01 -0.66033878441E+02  0.93322770124E+02  0.17770000000E+01 0. -1.
        -16    1    6    6    0    0 -0.15532578238E+02 -0.28481462351E+02 -0.42977264351E+02  0.53847004889E+02  0.00000000000E+00 0.  1.
<mgrwt>
<rscale>  2 0.17407501E+03</rscale>
<asrwt>0</asrwt>
<pdfrwt beam="1">  1       21 0.13876838E-01 0.17432588E+03</pdfrwt>
<pdfrwt beam="2">  1       21 0.55823111E-01 0.17432588E+03</pdfrwt>
<totfact> 0.13742449E+05</totfact>
</mgrwt>
</event>
<event>
12    2  0.4090627E-002  0.2051776E+03  0.7546771E-02  0.1146136E+00
         21   -1    0    0  503  502  0.00000000000E+00  0.00000000000E+00  0.76973735767E+02  0.76973735767E+02  0.00000000000E+00 0.  1.
         21   -1    0    0  501  503 -0.00000000000E+00 -0.00000000000E+00 -0.85210129005E+03  0.85210129005E+03  0.00000000000E+00 0.  1.
          6    2    1    2  501    0 -0.10887899991E+03 -0.22273770017E+02 -0.66758622191E+03  0.69742227599E+03  0.16845091248E+03 0.  0.
         24    2    3    3    0    0 -0.64478905478E+02  0.15806869300E+02 -0.59463336299E+03  0.60379688894E+03  0.81083045976E+02 0.  0.
         -6    2    1    2    0  502  0.10887899991E+03  0.22273770017E+02 -0.10754133237E+03  0.23165274982E+03  0.17247347877E+03 0.  0.
        -24    2    5    5    0    0  0.68207428094E+01  0.20316615584E+02 -0.98571649237E+02  0.12907466488E+03  0.80527086614E+02 0.  0.
          5    1    3    3  501    0 -0.44400094432E+02 -0.38080639318E+02 -0.72952858924E+02  0.93625387057E+02  0.47000000000E+01 0. -1.
        -15    1    4    4    0    0 -0.36210934485E+02 -0.31828153904E+02 -0.32195005021E+03  0.32554455258E+03  0.17770000000E+01 0.  1.
         16    1    4    4    0    0 -0.28267970994E+02  0.47635023205E+02 -0.27268331278E+03  0.27825233636E+03  0.00000000000E+00 0. -1.
         -5    1    5    5    0  502  0.10205825710E+03  0.19571544335E+01 -0.89696831378E+01  0.10257808495E+03  0.47000000000E+01 0.  1.
         15    1    6    6    0    0  0.11017453842E+02 -0.29730557169E+02 -0.49827669045E+02  0.59086755285E+02  0.17770000000E+01 0. -1.
        -16    1    6    6    0    0 -0.41967110326E+01  0.50047172752E+02 -0.48743980193E+02  0.69987909592E+02  0.00000000000E+00 0.  1.
<mgrwt>
<rscale>  2 0.20432998E+03</rscale>
<asrwt>0</asrwt>
<pdfrwt beam="1">  1       21 0.11842113E-01 0.20517763E+03</pdfrwt>
<pdfrwt beam="2">  1       21 0.13109251E+00 0.20517763E+03</pdfrwt>
<totfact> 0.25233167E+04</totfact>
</mgrwt>
</event>
<event>
12    2  0.4090627E-002  0.2066172E+03  0.7546771E-02  0.1144590E+00
         21   -1    0    0  503  502  0.00000000000E+00  0.00000000000E+00  0.22248428251E+03  0.22248428251E+03  0.00000000000E+00 0. -1.
         21   -1    0    0  501  503 -0.00000000000E+00 -0.00000000000E+00 -0.21333658766E+03  0.21333658766E+03  0.00000000000E+00 0. -1.
          6    2    1    2  501    0  0.71150355211E+02 -0.85175534257E+02  0.75982262424E+02  0.22014529783E+03  0.17427966971E+03 0.  0.
         24    2    3    3    0    0  0.20914943065E+02  0.16986453301E+02  0.17948403215E+02  0.92275492367E+02  0.86409761454E+02 0.  0.
         -6    2    1    2    0  502 -0.71150355211E+02  0.85175534257E+02 -0.66834567574E+02  0.21567557235E+03  0.17242925622E+03 0.  0.
        -24    2    5    5    0    0 -0.18671672980E+02  0.20313435110E+02 -0.95598274140E+02  0.12729828561E+03  0.79401237296E+02 0.  0.
          5    1    3    3  501    0  0.50235412146E+02 -0.10216198756E+03  0.58033859210E+02  0.12786980547E+03  0.47000000000E+01 0. -1.
        -15    1    4    4    0    0  0.29929461502E+02  0.45315017973E+02  0.27699480643E+02  0.60988871744E+02  0.17770000000E+01 0.  1.
         16    1    4    4    0    0 -0.90145184375E+01 -0.28328564672E+02 -0.97510774284E+01  0.31286620623E+02  0.00000000000E+00 0. -1.
         -5    1    5    5    0  502 -0.52478682230E+02  0.64862099147E+02  0.28763706566E+02  0.88377286730E+02  0.47000000000E+01 0.  1.
         15    1    6    6    0    0 -0.16470140490E+01  0.46485072520E+02 -0.32111865062E+02  0.56550015290E+02  0.17770000000E+01 0. -1.
        -16    1    6    6    0    0 -0.17024658931E+02 -0.26171637410E+02 -0.63486409077E+02  0.70748270325E+02  0.00000000000E+00 0.  1.
<mgrwt>
<rscale>  2 0.20622645E+03</rscale>
<asrwt>0</asrwt>
<pdfrwt beam="1">  1       21 0.34228351E-01 0.20661715E+03</pdfrwt>
<pdfrwt beam="2">  1       21 0.32821014E-01 0.20661715E+03</pdfrwt>
<totfact> 0.73047255E+04</totfact>
</mgrwt>
</event>
<event>
12    2  0.4090627E-002  0.2201544E+03  0.7546771E-02  0.1133946E+00
         21   -1    0    0  501  502  0.00000000000E+00  0.00000000000E+00  0.34233730036E+03  0.34233730036E+03  0.00000000000E+00 0. -1.
         21   -1    0    0  502  503 -0.00000000000E+00 -0.00000000000E+00 -0.19601933144E+03  0.19601933144E+03  0.00000000000E+00 0. -1.
         -6    2    1    2    0  503 -0.69961281346E+02 -0.11536048285E+03 -0.69605982195E+02  0.22998813775E+03  0.17276263733E+03 0.  0.
        -24    2    3    3    0    0 -0.76598899881E+02 -0.50866475990E+02  0.15422947674E+02  0.12295756354E+03  0.80161744454E+02 0.  0.
          6    2    1    2  501    0  0.69961281346E+02  0.11536048285E+03  0.21592395112E+03  0.30836849405E+03  0.17396940411E+03 0.  0.
         24    2    5    5    0    0  0.57022022137E+02  0.63928350614E+02  0.41080545251E+02  0.12559815939E+03  0.82151941085E+02 0.  0.
          5    1    5    5  501    0  0.12939259209E+02  0.51432132237E+02  0.17484340587E+03  0.18277033466E+03  0.47000000000E+01 0. -1.
        -15    1    6    6    0    0  0.40036465275E+02  0.36977681094E+01 -0.13613051626E+02  0.42486055881E+02  0.17770000000E+01 0.  1.
         16    1    6    6    0    0  0.16985556861E+02  0.60230582505E+02  0.54693596878E+02  0.83112103512E+02  0.00000000000E+00 0. -1.
         -5    1    3    3    0  503  0.66376185356E+01 -0.64494006862E+02 -0.85028929868E+02  0.10703057421E+03  0.47000000000E+01 0.  1.
         15    1    4    4    0    0 -0.15892998323E+01  0.19560863216E+01 -0.23209123300E+02  0.23413100627E+02  0.17770000000E+01 0. -1.
        -16    1    4    4    0    0 -0.75009600049E+02 -0.52822562311E+02  0.38632070973E+02  0.99544462911E+02  0.00000000000E+00 0.  1.
<mgrwt>
<rscale>  2 0.21991596E+03</rscale>
<asrwt>0</asrwt>
<pdfrwt beam="1">  1       21 0.52667277E-01 0.22015444E+03</pdfrwt>
<pdfrwt beam="2">  1       21 0.30156820E-01 0.22015444E+03</pdfrwt>
<totfact> 0.35544133E+04</totfact>
</mgrwt>
</event>
<event>
12    2  0.4090627E-002  0.1776446E+03  0.7546771E-02  0.1170955E+00
         21   -1    0    0  503  502  0.00000000000E+00  0.00000000000E+00  0.92673684539E+02  0.92673684539E+02  0.00000000000E+00 0.  1.
         21   -1    0    0  501  503 -0.00000000000E+00 -0.00000000000E+00 -0.40504729037E+03  0.40504729037E+03  0.00000000000E+00 0.  1.
          6    2    1    2  501    0  0.31275460515E+02 -0.25482117814E+02 -0.25916527991E+03  0.31227897297E+03  0.16948162700E+03 0.  0.
         24    2    3    3    0    0  0.58934263404E+02 -0.62992019698E+02 -0.22646191126E+03  0.25515102502E+03  0.79848646624E+02 0.  0.
         -6    2    1    2    0  502 -0.31275460515E+02  0.25482117814E+02 -0.53208325915E+02  0.18544200193E+03  0.17300322938E+03 0.  0.
        -24    2    5    5    0    0 -0.20353377471E+02 -0.10557233483E+02 -0.95206258294E+02  0.12883773474E+03  0.83721055426E+02 0.  0.
          5    1    3    3  501    0 -0.27658802889E+02  0.37509901884E+02 -0.32703368656E+02  0.57127947959E+02  0.47000000000E+01 0. -1.
        -15    1    4    4    0    0  0.47107003347E+02 -0.71752588348E+02 -0.11928345273E+03  0.14696667487E+03  0.17770000000E+01 0.  1.
         16    1    4    4    0    0  0.11827260057E+02  0.87605686503E+01 -0.10717845853E+03  0.10818435014E+03  0.00000000000E+00 0. -1.
         -5    1    5    5    0  502 -0.10922083044E+02  0.36039351297E+02  0.41997932379E+02  0.56604267189E+02  0.47000000000E+01 0.  1.
         15    1    6    6    0    0 -0.12614563364E+02  0.28697951819E+02 -0.80162477337E+02  0.86092276944E+02  0.17770000000E+01 0. -1.
        -16    1    6    6    0    0 -0.77388141073E+01 -0.39255185302E+02 -0.15043780956E+02  0.42745457798E+02  0.00000000000E+00 0.  1.
<mgrwt>
<rscale>  2 0.17678141E+03</rscale>
<asrwt>0</asrwt>
<pdfrwt beam="1">  1       21 0.14257490E-01 0.17764462E+03</pdfrwt>
<pdfrwt beam="2">  1       21 0.62314968E-01 0.17764462E+03</pdfrwt>
<totfact> 0.10333253E+05</totfact>
</mgrwt>
</event>
<event>
12    2  0.4090627E-002  0.1887960E+03  0.7546771E-02  0.1159744E+00
         21   -1    0    0  503  502  0.00000000000E+00  0.00000000000E+00  0.15621641317E+03  0.15621641317E+03  0.00000000000E+00 0.  1.
         21   -1    0    0  501  503 -0.00000000000E+00 -0.00000000000E+00 -0.38484671603E+03  0.38484671603E+03  0.00000000000E+00 0.  1.
          6    2    1    2  501    0 -0.63888405953E+02 -0.34975065880E+02 -0.28763969085E+03  0.34406469249E+03  0.17418076019E+03 0.  0.
         24    2    3    3    0    0 -0.10986291059E+03 -0.37248551553E+02 -0.23825917796E+03  0.27639380609E+03  0.78541622375E+02 0.  0.
         -6    2    1    2    0  502  0.63888405953E+02  0.34975065880E+02  0.59009387991E+02  0.19699843670E+03  0.17326653613E+03 0.  0.
        -24    2    5    5    0    0 -0.49498019528E+00  0.16660873184E+01 -0.28040870632E+02  0.83620546481E+02  0.78759662999E+02 0.  0.
          5    1    3    3  501    0  0.45974504637E+02  0.22734856726E+01 -0.49380512892E+02  0.67670886408E+02  0.47000000000E+01 0. -1.
        -15    1    4    4    0    0 -0.85710309863E+02  0.99814999806E+01 -0.13350314688E+03  0.15897212182E+03  0.17770000000E+01 0.  1.
         16    1    4    4    0    0 -0.24152600728E+02 -0.47230051533E+02 -0.10475603108E+03  0.11742168427E+03  0.00000000000E+00 0. -1.
         -5    1    5    5    0  502  0.64383386148E+02  0.33308978562E+02  0.87050258623E+02  0.11337789022E+03  0.47000000000E+01 0.  1.
         15    1    6    6    0    0  0.11259960293E+02  0.25062974947E+02 -0.44762613298E+02  0.52552723024E+02  0.17770000000E+01 0. -1.
        -16    1    6    6    0    0 -0.11754940489E+02 -0.23396887628E+02  0.16721742666E+02  0.31067823457E+02  0.00000000000E+00 0.  1.
<mgrwt>
<rscale>  2 0.18858484E+03</rscale>
<asrwt>0</asrwt>
<pdfrwt beam="1">  1       21 0.24033295E-01 0.18879598E+03</pdfrwt>
<pdfrwt beam="2">  1       21 0.59207186E-01 0.18879598E+03</pdfrwt>
<totfact> 0.43618153E+04</totfact>
</mgrwt>
</event>
<event>
12    2  0.4090627E-002  0.2130876E+03  0.7546771E-02  0.1139314E+00
         21   -1    0    0  503  502  0.00000000000E+00  0.00000000000E+00  0.64675309642E+03  0.64675309642E+03  0.00000000000E+00 0. -1.
         21   -1    0    0  501  503 -0.00000000000E+00 -0.00000000000E+00 -0.74883739308E+02  0.74883739308E+02  0.00000000000E+00 0.  1.
          6    2    1    2  501    0  0.12409045478E+03 -0.98553991514E+01  0.19358011117E+03  0.28788815871E+03  0.17294728280E+03 0.  0.
         24    2    3    3    0    0  0.87820215438E+02 -0.37297787383E+02  0.45030572497E+02  0.13246077897E+03  0.80091137606E+02 0.  0.
         -6    2    1    2    0  502 -0.12409045478E+03  0.98553991514E+01  0.37828924595E+03  0.43374867702E+03  0.17187085662E+03 0.  0.
        -24    2    5    5    0    0 -0.12544289536E+03  0.12776632497E+02  0.17275794803E+03  0.22813844594E+03  0.79389417281E+02 0.  0.
          5    1    3    3  501    0  0.36270239345E+02  0.27442388231E+02  0.14854953867E+03  0.15542737974E+03  0.47000000000E+01 0. -1.
        -15    1    4    4    0    0 -0.66183588651E+01 -0.20558755960E+02 -0.77152325530E+01  0.23003209842E+02  0.17770000000E+01 0.  1.
         16    1    4    4    0    0  0.94438574303E+02 -0.16739031423E+02  0.52745805050E+02  0.10945756913E+03  0.00000000000E+00 0. -1.
         -5    1    5    5    0  502  0.13524405725E+01 -0.29212333454E+01  0.20553129792E+03  0.20561023108E+03  0.47000000000E+01 0.  1.
         15    1    6    6    0    0  0.41531330307E+01  0.42748507969E+01  0.46816518353E+02  0.47227820011E+02  0.17770000000E+01 0. -1.
        -16    1    6    6    0    0 -0.12959602839E+03  0.85017816999E+01  0.12594142968E+03  0.18091062593E+03  0.00000000000E+00 0.  1.
<mgrwt>
<rscale>  2 0.21286910E+03</rscale>
<asrwt>0</asrwt>
<pdfrwt beam="1">  1       21 0.99500473E-01 0.21308762E+03</pdfrwt>
<pdfrwt beam="2">  1       21 0.11520576E-01 0.21308762E+03</pdfrwt>
<totfact> 0.51900187E+04</totfact>
</mgrwt>
</event>
<event>
12    2  0.4090627E-002  0.1796665E+03  0.7546771E-02  0.1168144E+00
         21   -1    0    0  503  502  0.00000000000E+00  0.00000000000E+00  0.97813512624E+02  0.97813512624E+02  0.00000000000E+00 0. -1.
         21   -1    0    0  501  503 -0.00000000000E+00 -0.00000000000E+00 -0.44738897559E+03  0.44738897559E+03  0.00000000000E+00 0. -1.
          6    2    1    2  501    0  0.43929147182E+02  0.22407447306E+02 -0.31452068296E+03  0.36221996891E+03  0.17276626464E+03 0.  0.
         24    2    3    3    0    0  0.31180693761E+02  0.50696331999E+02 -0.83338572728E+02  0.12891749966E+03  0.78307408805E+02 0.  0.
         -6    2    1    2    0  502 -0.43929147182E+02 -0.22407447306E+02 -0.35054780008E+02  0.18298251931E+03  0.17269018821E+03 0.  0.
        -24    2    5    5    0    0 -0.33015341643E+02  0.24804600120E+02  0.35958550741E+02  0.96883322350E+02  0.79925464073E+02 0.  0.
          5    1    3    3  501    0  0.12748453422E+02 -0.28288884693E+02 -0.23118211023E+03  0.23330246924E+03  0.47000000000E+01 0. -1.
        -15    1    4    4    0    0 -0.24448902959E+02  0.24111560003E+01 -0.22938145459E+02  0.33658264591E+02  0.17770000000E+01 0.  1.
         16    1    4    4    0    0  0.55629596720E+02  0.48285175999E+02 -0.60400427268E+02  0.95259235073E+02  0.00000000000E+00 0. -1.
         -5    1    5    5    0  502 -0.10913805539E+02 -0.47212047427E+02 -0.71013330748E+02  0.86099196962E+02  0.47000000000E+01 0.  1.
         15    1    6    6    0    0 -0.93364479668E+01  0.48060550008E+02  0.40266555371E+02  0.63415604847E+02  0.17770000000E+01 0. -1.
        -16    1    6    6    0    0 -0.23678893676E+02 -0.23255949888E+02 -0.43080046298E+01  0.33467717502E+02  0.00000000000E+00 0.  1.
<mgrwt>
<rscale>  2 0.17964819E+03</rscale>
<asrwt>0</asrwt>
<pdfrwt beam="1">  1       21 0.15048233E-01 0.17966649E+03</pdfrwt>
<pdfrwt beam="2">  1       21 0.68829073E-01 0.17966649E+03</pdfrwt>
<totfact> 0.75411317E+04</totfact>
</mgrwt>
</event>
<event>
12    2  0.4090627E-002  0.2043093E+03  0.7546771E-02  0.1146278E+00
         21   -1    0    0  501  502  0.00000000000E+00  0.00000000000E+00  0.56167643694E+03  0.56167643694E+03  0.00000000000E+00 0. -1.
         21   -1    0    0  502  503 -0.00000000000E+00 -0.00000000000E+00 -0.13402390548E+03  0.13402390548E+03  0.00000000000E+00 0. -1.
         -6    2    1    2    0  503 -0.74173268133E+02  0.77747880249E+02 -0.18599087337E+02  0.20515414163E+03  0.17376964404E+03 0.  0.
        -24    2    3    3    0    0 -0.96436819900E+02  0.81321029373E+02 -0.57333019218E+02  0.16008929268E+03  0.80176907443E+02 0.  0.
          6    2    1    2  501    0  0.74173268133E+02 -0.77747880249E+02  0.44625161879E+03  0.49054620080E+03  0.17305681510E+03 0.  0.
         24    2    5    5    0    0  0.30813121958E+02 -0.11627923470E+03  0.30046830478E+03  0.33357603741E+03  0.80755567265E+02 0.  0.
          5    1    5    5  501    0  0.43360146175E+02  0.38531354448E+02  0.14578331401E+03  0.15697016339E+03  0.47000000000E+01 0. -1.
        -15    1    6    6    0    0 -0.11318077875E+02 -0.76420557968E+02  0.22810581924E+03  0.24083941344E+03  0.17770000000E+01 0.  1.
         16    1    6    6    0    0  0.42131199833E+02 -0.39858676730E+02  0.72362485546E+02  0.92736623965E+02  0.00000000000E+00 0. -1.
         -5    1    3    3    0  503  0.22263551767E+02 -0.35731491239E+01  0.38733931881E+02  0.45064848950E+02  0.47000000000E+01 0.  1.
         15    1    4    4    0    0 -0.78183240131E+02  0.38207547228E+02 -0.69879698451E+02  0.11161884109E+03  0.17770000000E+01 0. -1.
        -16    1    4    4    0    0 -0.18253579768E+02  0.43113482145E+02  0.12546679233E+02  0.48470451584E+02  0.00000000000E+00 0.  1.
<mgrwt>
<rscale>  2 0.20415766E+03</rscale>
<asrwt>0</asrwt>
<pdfrwt beam="1">  1       21 0.86411758E-01 0.20430931E+03</pdfrwt>
<pdfrwt beam="2">  1       21 0.20619063E-01 0.20430931E+03</pdfrwt>
<totfact> 0.24987565E+04</totfact>
</mgrwt>
</event>
<event>
12    2  0.4090627E-002  0.2012418E+03  0.7546771E-02  0.1148753E+00
         21   -1    0    0  503  502  0.00000000000E+00  0.00000000000E+00  0.15672406596E+02  0.15672406596E+02  0.00000000000E+00 0.  1.
         21   -1    0    0  501  503 -0.00000000000E+00 -0.00000000000E+00 -0.25954793813E+04  0.25954793813E+04  0.00000000000E+00 0.  1.
          6    2    1    2  501    0 -0.96331085627E+02  0.17886191602E+02 -0.11917610784E+04  0.12086325847E+04  0.17578015488E+03 0.  0.
         24    2    3    3    0    0 -0.96036120100E+02  0.48123947840E+02 -0.11444507468E+04  0.11522875194E+04  0.80375150212E+02 0.  0.
         -6    2    1    2    0  502  0.96331085627E+02 -0.17886191602E+02 -0.13880458963E+04  0.14025192032E+04  0.17546826276E+03 0.  0.
        -24    2    5    5    0    0  0.17202411664E+02  0.47459382675E+02 -0.55761120531E+03  0.56575444707E+03  0.81237442861E+02 0.  0.
          5    1    3    3  501    0 -0.29496552667E+00 -0.30237756238E+02 -0.47310331640E+02  0.56345065328E+02  0.47000000000E+01 0. -1.
        -15    1    4    4    0    0 -0.45941874847E+02  0.24928332345E+02 -0.21769789088E+03  0.22389195394E+03  0.17770000000E+01 0.  1.
         16    1    4    4    0    0 -0.50094245254E+02  0.23195615495E+02 -0.92675285589E+03  0.92839556542E+03  0.00000000000E+00 0. -1.
         -5    1    5    5    0  502  0.79128673963E+02 -0.65345574277E+02 -0.83043469099E+03  0.83676475614E+03  0.47000000000E+01 0.  1.
         15    1    6    6    0    0 -0.20315596998E+01 -0.21779058490E+02 -0.89017458469E+02  0.91682715191E+02  0.17770000000E+01 0. -1.
        -16    1    6    6    0    0  0.19233971363E+02  0.69238441165E+02 -0.46859374684E+03  0.47407173188E+03  0.00000000000E+00 0.  1.
<mgrwt>
<rscale>  2 0.20117366E+03</rscale>
<asrwt>0</asrwt>
<pdfrwt beam="1">  1       21 0.24111395E-02 0.20124179E+03</pdfrwt>
<pdfrwt beam="2">  1       21 0.39930451E+00 0.20124179E+03</pdfrwt>
<totfact> 0.78929534E+03</totfact>
</mgrwt>
</event>
<event>
12    2  0.4090627E-002  0.1781371E+03  0.7546771E-02  0.1170334E+00
         21   -1    0    0  503  502  0.00000000000E+00  0.00000000000E+00  0.25800080172E+03  0.25800080172E+03  0.00000000000E+00 0. -1.
         21   -1    0    0  501  503 -0.00000000000E+00 -0.00000000000E+00 -0.24183932636E+03  0.24183932636E+03  0.00000000000E+00 0. -1.
          6    2    1    2  501    0 -0.20707143170E+02 -0.16338351194E+02  0.18476833489E+03  0.25665570350E+03  0.17617345164E+03 0.  0.
         24    2    3    3    0    0 -0.44671820294E+01 -0.65783525446E+02  0.60503278575E+02  0.12185045206E+03  0.82701015793E+02 0.  0.
         -6    2    1    2    0  502  0.20707143170E+02  0.16338351194E+02 -0.16860685953E+03  0.24318442457E+03  0.17324740626E+03 0.  0.
        -24    2    5    5    0    0 -0.63790479075E+01 -0.68231082141E+01 -0.18491643591E+03  0.20371029088E+03  0.84950263601E+02 0.  0.
          5    1    3    3  501    0 -0.16239961140E+02  0.49445174251E+02  0.12426505632E+03  0.13480525144E+03  0.47000000000E+01 0. -1.
        -15    1    4    4    0    0 -0.21443208557E+02  0.82644317900E+01 -0.24610900037E+01  0.23180308864E+02  0.17770000000E+01 0.  1.
         16    1    4    4    0    0  0.16976026528E+02 -0.74047957236E+02  0.62964368579E+02  0.98670143194E+02  0.00000000000E+00 0. -1.
         -5    1    5    5    0  502  0.27086191077E+02  0.23161459408E+02  0.16309576376E+02  0.39474133690E+02  0.47000000000E+01 0.  1.
         15    1    6    6    0    0  0.24967171722E+02  0.28644263341E+02 -0.77806378381E+02  0.86607411529E+02  0.17770000000E+01 0. -1.
        -16    1    6    6    0    0 -0.31346219629E+02 -0.35467371555E+02 -0.10711005753E+03  0.11710287935E+03  0.00000000000E+00 0.  1.
<mgrwt>
<rscale>  2 0.17740930E+03</rscale>
<asrwt>0</asrwt>
<pdfrwt beam="1">  1       21 0.39692431E-01 0.17813706E+03</pdfrwt>
<pdfrwt beam="2">  1       21 0.37206050E-01 0.17813706E+03</pdfrwt>
<totfact> 0.42931416E+04</totfact>
</mgrwt>
</event>
<event>
12    2  0.4090627E-002  0.3000269E+03  0.7546771E-02  0.1085307E+00
         21   -1    0    0  503  502  0.00000000000E+00  0.00000000000E+00  0.20723963036E+03  0.20723963036E+03  0.00000000000E+00 0. -1.
         21   -1    0    0  501  503 -0.00000000000E+00 -0.00000000000E+00 -0.50765653097E+03  0.50765653097E+03  0.00000000000E+00 0.  1.
          6    2    1    2  501    0 -0.22604276581E+03  0.94037295746E+02 -0.28702636575E+03  0.41521111299E+03  0.17342949216E+03 0.  0.
         24    2    3    3    0    0 -0.34036207060E+02  0.28573001358E+02 -0.11849192539E+03  0.15143461663E+03  0.83169867953E+02 0.  0.
         -6    2    1    2    0  502  0.22604276581E+03 -0.94037295746E+02 -0.13390534860E+02  0.29968504834E+03  0.17231795265E+03 0.  0.
        -24    2    5    5    0    0  0.20827511071E+03 -0.12827367351E+03 -0.25045483501E+02  0.25911724142E+03  0.81742348251E+02 0.  0.
          5    1    3    3  501    0 -0.19200655875E+03  0.65464294388E+02 -0.16853444036E+03  0.26377649636E+03  0.47000000000E+01 0. -1.
        -15    1    4    4    0    0 -0.31989167290E+02  0.10196812721E+02 -0.12678700857E+03  0.13116929932E+03  0.17770000000E+01 0.  1.
         16    1    4    4    0    0 -0.20470397704E+01  0.18376188636E+02  0.82950831845E+01  0.20265317310E+02  0.00000000000E+00 0. -1.
         -5    1    5    5    0  502  0.17767655103E+02  0.34236377769E+02  0.11654948641E+02  0.40567806921E+02  0.47000000000E+01 0.  1.
         15    1    6    6    0    0  0.50311355042E+02 -0.17257672685E+02  0.26258840370E+02  0.59344284807E+02  0.17770000000E+01 0. -1.
        -16    1    6    6    0    0  0.15796375567E+03 -0.11101600083E+03 -0.51304323870E+02  0.19977295661E+03  0.00000000000E+00 0.  1.
<mgrwt>
<rscale>  2 0.29986647E+03</rscale>
<asrwt>0</asrwt>
<pdfrwt beam="1">  1       21 0.31883020E-01 0.30002689E+03</pdfrwt>
<pdfrwt beam="2">  1       21 0.78101004E-01 0.30002689E+03</pdfrwt>
<totfact> 0.12960354E+04</totfact>
</mgrwt>
</event>
<event>
11    2  0.4090627E-002  0.1905523E+03  0.7546771E-02  0.1158142E+00
         21   -1    0    0  503  502  0.00000000000E+00  0.00000000000E+00  0.17427467212E+03  0.17427467212E+03  0.00000000000E+00 0. -1.
         21   -1    0    0  501  503 -0.00000000000E+00 -0.00000000000E+00 -0.21962037160E+03  0.21962037160E+03  0.00000000000E+00 0. -1.
          6    2    1    2  501    0 -0.25792050221E+02 -0.75066993858E+02 -0.69004419743E+02  0.20266175771E+03  0.17323364186E+03 0.  0.
         24    2    3    3    0    0  0.24930274710E+02  0.55999470063E+01  0.25438882837E+01  0.83409252591E+02  0.79358389894E+02 0.  0.
         -6    2    1    2    0  502  0.25792050221E+02  0.75066993858E+02  0.23658720257E+02  0.19123328602E+03  0.17236632854E+03 0.  0.
          5    1    3    3  501    0 -0.50722324932E+02 -0.80666940864E+02 -0.71548308027E+02  0.11925250512E+03  0.47000000000E+01 0. -1.
        -15    1    4    4    0    0  0.23145378339E+02  0.26770740810E+01 -0.36976243205E+02  0.43741005414E+02  0.17770000000E+01 0.  1.
         16    1    4    4    0    0  0.17848963718E+01  0.29228729253E+01  0.39520131489E+02  0.39668247177E+02  0.00000000000E+00 0. -1.
         -5    1    5    5    0  502  0.20881795178E+02  0.10074818872E+03  0.72414369905E+02  0.12590543225E+03  0.47000000000E+01 0.  1.
         15    1    5    5    0    0 -0.12949329945E+02 -0.20585405426E+02 -0.32609407417E+02  0.40718242148E+02  0.17770000000E+01 0. -1.
        -16    1    5    5    0    0  0.17859584988E+02 -0.50957894377E+01 -0.16146242231E+02  0.24609611620E+02  0.00000000000E+00 0.  1.
<mgrwt>
<rscale>  2 0.19035496E+03</rscale>
<asrwt>0</asrwt>
<pdfrwt beam="1">  1       21 0.26811488E-01 0.19055230E+03</pdfrwt>
<pdfrwt beam="2">  1       21 0.33787749E-01 0.19055230E+03</pdfrwt>
<totfact> 0.11186915E+05</totfact>
</mgrwt>
</event>
<event>
12    2  0.4090627E-002  0.2001340E+03  0.7546771E-02  0.1149669E+00
         21   -1    0    0  503  502  0.00000000000E+00  0.00000000000E+00  0.78948729451E+03  0.78948729451E+03  0.00000000000E+00 0. -1.
         21   -1    0    0  501  503 -0.00000000000E+00 -0.00000000000E+00 -0.73764071717E+02  0.73764071717E+02  0.00000000000E+00 0. -1.
          6    2    1    2  501    0 -0.78462644635E+01 -0.10047038286E+03  0.11629318024E+03  0.23129408833E+03  0.17267596772E+03 0.  0.
         24    2    3    3    0    0 -0.53760034558E+02 -0.11010597042E+03  0.61335047571E+02  0.15888272749E+03  0.80425536970E+02 0.  0.
         -6    2    1    2    0  502  0.78462644635E+01  0.10047038286E+03  0.59943004255E+03  0.63195727790E+03  0.17290969746E+03 0.  0.
        -24    2    5    5    0    0  0.22900100499E+01  0.13613274757E+03  0.41995907202E+03  0.44883274245E+03  0.80918721043E+02 0.  0.
          5    1    3    3  501    0  0.45913770095E+02  0.96355875589E+01  0.54958132669E+02  0.72411360837E+02  0.47000000000E+01 0. -1.
        -15    1    4    4    0    0 -0.23924044224E+02 -0.83066679140E+02  0.76901796939E+02  0.11571290843E+03  0.17770000000E+01 0.  1.
         16    1    4    4    0    0 -0.29835990334E+02 -0.27039291278E+02 -0.15566749368E+02  0.43169819063E+02  0.00000000000E+00 0. -1.
         -5    1    5    5    0  502  0.55562544137E+01 -0.35662364710E+02  0.17947097053E+03  0.18312453545E+03  0.47000000000E+01 0.  1.
         15    1    6    6    0    0 -0.14725211626E+02  0.10258700057E+03  0.19584146098E+03  0.22158059507E+03  0.17770000000E+01 0. -1.
        -16    1    6    6    0    0  0.17015221676E+02  0.33545747001E+02  0.22411761104E+03  0.22725214738E+03  0.00000000000E+00 0.  1.
<mgrwt>
<rscale>  2 0.20008352E+03</rscale>
<asrwt>0</asrwt>
<pdfrwt beam="1">  1       21 0.12145958E+00 0.20013402E+03</pdfrwt>
<pdfrwt beam="2">  1       21 0.11348319E-01 0.20013402E+03</pdfrwt>
<totfact> 0.33081507E+04</totfact>
</mgrwt>
</event>
<event>
12    2  0.4090627E-002  0.1717699E+03  0.7546771E-02  0.1177878E+00
         21   -1    0    0  501  502  0.00000000000E+00  0.00000000000E+00  0.84090358805E+03  0.84090358805E+03  0.00000000000E+00 0. -1.
         21   -1    0    0  502  503 -0.00000000000E+00 -0.00000000000E+00 -0.56804669586E+02  0.56804669586E+02  0.00000000000E+00 0. -1.
         -6    2    1    2    0  503 -0.17914291085E+02 -0.68215904375E+01  0.10065910091E+03  0.19301336226E+03  0.16356786816E+03 0.  0.
        -24    2    3    3    0    0  0.26248241218E+02 -0.44245174018E+02  0.94393573744E+02  0.13459931688E+03  0.80995208184E+02 0.  0.
          6    2    1    2  501    0  0.17914291085E+02  0.68215904375E+01  0.68343981756E+03  0.70469489538E+03  0.17069696959E+03 0.  0.
         24    2    5    5    0    0 -0.23263824089E+02  0.15881050534E+01  0.15663236162E+03  0.17623372162E+03  0.77336280877E+02 0.  0.
          5    1    5    5  501    0  0.41178115174E+02  0.52334853841E+01  0.52680745594E+03  0.52846117376E+03  0.47000000000E+01 0. -1.
        -15    1    6    6    0    0  0.12477083109E+02 -0.18389133654E+02  0.10817723168E+02  0.24779400780E+02  0.17770000000E+01 0.  1.
         16    1    6    6    0    0 -0.35740907198E+02  0.19977238707E+02  0.14581463845E+03  0.15145432084E+03  0.00000000000E+00 0. -1.
         -5    1    3    3    0  503 -0.44162532303E+02  0.37423583580E+02  0.62655271625E+01  0.58414045383E+02  0.47000000000E+01 0.  1.
         15    1    4    4    0    0  0.13463388781E+02  0.84581525902E+01 -0.86267943387E+01  0.18176426829E+02  0.17770000000E+01 0. -1.
        -16    1    4    4    0    0  0.12784852437E+02 -0.52703326608E+02  0.10302036808E+03  0.11642289005E+03  0.00000000000E+00 0.  1.
<mgrwt>
<rscale>  2 0.16997122E+03</rscale>
<asrwt>0</asrwt>
<pdfrwt beam="1">  1       21 0.12936977E+00 0.17176994E+03</pdfrwt>
<pdfrwt beam="2">  1       21 0.87391805E-02 0.17176994E+03</pdfrwt>
<totfact> 0.45527439E+04</totfact>
</mgrwt>
</event>
<event>
12    2  0.4090627E-002  0.1816451E+03  0.7546771E-02  0.1166523E+00
         21   -1    0    0  503  502  0.00000000000E+00  0.00000000000E+00  0.30286881191E+03  0.30286881191E+03  0.00000000000E+00 0.  1.
         21   -1    0    0  501  503 -0.00000000000E+00 -0.00000000000E+00 -0.10818867564E+03  0.10818867564E+03  0.00000000000E+00 0. -1.
          6    2    1    2  501    0 -0.50552420265E+02 -0.97678964334E+01  0.97851016285E+02  0.20521576314E+03  0.17288067867E+03 0.  0.
         24    2    3    3    0    0 -0.34864888912E+02 -0.28965234288E+02 -0.11963281503E+02  0.92539650233E+02  0.79786724991E+02 0.  0.
         -6    2    1    2    0  502  0.50552420265E+02  0.97678964334E+01  0.96829119983E+02  0.20584172442E+03  0.17419522967E+03 0.  0.
        -24    2    5    5    0    0 -0.17587061249E+02  0.21126588731E+02  0.10582011800E+03  0.13602097623E+03  0.80920770676E+02 0.  0.
          5    1    3    3  501    0 -0.15687531353E+02  0.19197337855E+02  0.10981429779E+03  0.11267611291E+03  0.47000000000E+01 0. -1.
        -15    1    4    4    0    0 -0.45071714711E+02 -0.23486786528E+02  0.22921276089E+02  0.55781997409E+02  0.17770000000E+01 0.  1.
         16    1    4    4    0    0  0.10206825799E+02 -0.54784477608E+01 -0.34884557592E+02  0.36757652824E+02  0.00000000000E+00 0. -1.
         -5    1    5    5    0  502  0.68139481514E+02 -0.11358692297E+02 -0.89909980165E+01  0.69820748184E+02  0.47000000000E+01 0.  1.
         15    1    6    6    0    0 -0.59789268976E+01 -0.94637526478E+01 -0.10339172192E+02  0.15341655440E+02  0.17770000000E+01 0. -1.
        -16    1    6    6    0    0 -0.11608134351E+02  0.30590341379E+02  0.11615929019E+03  0.12067932079E+03  0.00000000000E+00 0.  1.
<mgrwt>
<rscale>  2 0.18132920E+03</rscale>
<asrwt>0</asrwt>
<pdfrwt beam="1">  1       21 0.46595202E-01 0.18164509E+03</pdfrwt>
<pdfrwt beam="2">  1       21 0.16644412E-01 0.18164509E+03</pdfrwt>
<totfact> 0.14357266E+05</totfact>
</mgrwt>
</event>
<event>
12    2  0.4090627E-002  0.2568745E+03  0.7546771E-02  0.1109314E+00
         21   -1    0    0  503  502  0.00000000000E+00  0.00000000000E+00  0.11520451620E+03  0.11520451620E+03  0.00000000000E+00 0. -1.
         21   -1    0    0  501  503 -0.00000000000E+00 -0.00000000000E+00 -0.65151139106E+03  0.65151139106E+03  0.00000000000E+00 0.  1.
          6    2    1    2  501    0 -0.11844398588E+03  0.14902715628E+03 -0.40564729409E+03  0.48013979782E+03  0.17247152562E+03 0.  0.
         24    2    3    3    0    0 -0.20078070225E+02  0.10066730179E+02 -0.11656473036E+03  0.14461532474E+03  0.82594114952E+02 0.  0.
         -6    2    1    2    0  502  0.11844398588E+03 -0.14902715628E+03 -0.13065958077E+03  0.28657610944E+03  0.16975237658E+03 0.  0.
        -24    2    5    5    0    0  0.10743018759E+02 -0.47256669149E+02 -0.95628730886E+02  0.13424101560E+03  0.80791032103E+02 0.  0.
          5    1    3    3  501    0 -0.98365915655E+02  0.13896042610E+03 -0.28908256374E+03  0.33552447309E+03  0.47000000000E+01 0. -1.
        -15    1    4    4    0    0 -0.25510247633E+02  0.40353152057E+02 -0.97071735303E+02  0.10819070727E+03  0.17770000000E+01 0.  1.
         16    1    4    4    0    0  0.54321774081E+01 -0.30286421878E+02 -0.19492995055E+02  0.36424617469E+02  0.00000000000E+00 0. -1.
         -5    1    5    5    0  502  0.10770096712E+03 -0.10177048713E+03 -0.35030849882E+02  0.15233509383E+03  0.47000000000E+01 0.  1.
         15    1    6    6    0    0  0.13111466418E+02  0.21552098772E+02 -0.23391278384E+02  0.34448703118E+02  0.17770000000E+01 0. -1.
        -16    1    6    6    0    0 -0.23684476593E+01 -0.68808767921E+02 -0.72237452502E+02  0.99792312485E+02  0.00000000000E+00 0.  1.
<mgrwt>
<rscale>  2 0.25641883E+03</rscale>
<asrwt>0</asrwt>
<pdfrwt beam="1">  1       21 0.17723772E-01 0.25687448E+03</pdfrwt>
<pdfrwt beam="2">  1       21 0.10023252E+00 0.25687448E+03</pdfrwt>
<totfact> 0.22779701E+04</totfact>
</mgrwt>
</event>
<event>
12    2  0.4090627E-002  0.1856549E+03  0.7546771E-02  0.1162530E+00
         21   -1    0    0  501  502  0.00000000000E+00  0.00000000000E+00  0.10478554037E+03  0.10478554037E+03  0.00000000000E+00 0.  1.
         21   -1    0    0  502  503 -0.00000000000E+00 -0.00000000000E+00 -0.91777090827E+03  0.91777090827E+03  0.00000000000E+00 0.  1.
         -6    2    1    2    0  503 -0.22786414292E+01 -0.66738595937E+02 -0.81641386625E+03  0.83725702871E+03  0.17322961274E+03 0.  0.
        -24    2    3    3    0    0  0.13327757649E+02 -0.11137127847E+03 -0.58060066685E+03  0.59670435038E+03  0.79860857898E+02 0.  0.
          6    2    1    2  501    0  0.22786414292E+01  0.66738595937E+02  0.34284983483E+01  0.18529941993E+03  0.17281460595E+03 0.  0.
         24    2    5    5    0    0  0.46853778546E+02  0.50128010868E+02  0.51893919938E+02  0.11722709460E+03  0.79631141799E+02 0.  0.
          5    1    5    5  501    0 -0.44575137117E+02  0.16610585069E+02 -0.48465421590E+02  0.68072325325E+02  0.47000000000E+01 0. -1.
        -15    1    6    6    0    0  0.22426855962E+02  0.68605822172E+02  0.24818004884E+02  0.76346668556E+02  0.17770000000E+01 0.  1.
         16    1    6    6    0    0  0.24426922584E+02 -0.18477811304E+02  0.27075915054E+02  0.40880426044E+02  0.00000000000E+00 0. -1.
         -5    1    3    3    0  503 -0.15606399078E+02  0.44632682528E+02 -0.23581319940E+03  0.24055267833E+03  0.47000000000E+01 0.  1.
         15    1    4    4    0    0  0.35634745684E+02 -0.36994303402E+02 -0.13628033312E+03  0.14564992451E+03  0.17770000000E+01 0. -1.
        -16    1    4    4    0    0 -0.22306988035E+02 -0.74376975064E+02 -0.44432033373E+03  0.45105442587E+03  0.00000000000E+00 0.  1.
<mgrwt>
<rscale>  2 0.18555800E+03</rscale>
<asrwt>0</asrwt>
<pdfrwt beam="1">  1       21 0.16120852E-01 0.18565487E+03</pdfrwt>
<pdfrwt beam="2">  1       21 0.14119553E+00 0.18565487E+03</pdfrwt>
<totfact> 0.12099421E+04</totfact>
</mgrwt>
</event>
<event>
12    2  0.4090627E-002  0.1796800E+03  0.7546771E-02  0.1168330E+00
         21   -1    0    0  501  502  0.00000000000E+00  0.00000000000E+00  0.15398903359E+03  0.15398903359E+03  0.00000000000E+00 0.  1.
         21   -1    0    0  502  503 -0.00000000000E+00 -0.00000000000E+00 -0.46396044374E+03  0.46396044374E+03  0.00000000000E+00 0.  1.
         -6    2    1    2    0  503 -0.44923831692E+02 -0.88603816459E+01 -0.38402716489E+03  0.42360660233E+03  0.17282659850E+03 0.  0.
        -24    2    3    3    0    0 -0.36344225838E+02 -0.14493886590E+02 -0.76687198588E+02  0.11605938498E+03  0.77832377031E+02 0.  0.
          6    2    1    2  501    0  0.44923831692E+02  0.88603816459E+01  0.74055754737E+02  0.19434287500E+03  0.17374763663E+03 0.  0.
         24    2    5    5    0    0  0.76407669448E+01  0.44054544733E+01  0.11416538082E+03  0.13919992080E+03  0.79152349467E+02 0.  0.
          5    1    5    5  501    0  0.37283064748E+02  0.44549271726E+01 -0.40109626079E+02  0.55142954195E+02  0.47000000000E+01 0. -1.
        -15    1    6    6    0    0  0.29802211904E+01  0.24278274785E+02  0.13599966451E+01  0.24562647755E+02  0.17770000000E+01 0.  1.
         16    1    6    6    0    0  0.46605457545E+01 -0.19872820312E+02  0.11280538417E+03  0.11463727305E+03  0.00000000000E+00 0. -1.
         -5    1    3    3    0  503 -0.85796058545E+01  0.56335049439E+01 -0.30733996630E+03  0.30754721735E+03  0.47000000000E+01 0.  1.
         15    1    4    4    0    0 -0.16765913196E+02  0.32268738775E+02 -0.31163538483E+02  0.47923806268E+02  0.17770000000E+01 0. -1.
        -16    1    4    4    0    0 -0.19578312642E+02 -0.46762625365E+02 -0.45523660105E+02  0.68135578711E+02  0.00000000000E+00 0.  1.
<mgrwt>
<rscale>  2 0.17945695E+03</rscale>
<asrwt>0</asrwt>
<pdfrwt beam="1">  1       21 0.23690621E-01 0.17967999E+03</pdfrwt>
<pdfrwt beam="2">  1       21 0.71378530E-01 0.17967999E+03</pdfrwt>
<totfact> 0.29993921E+04</totfact>
</mgrwt>
</event>
<event>
12    2  0.4090627E-002  0.2384945E+03  0.7546771E-02  0.1121146E+00
         21   -1    0    0  501  502  0.00000000000E+00  0.00000000000E+00  0.11233201630E+04  0.11233201630E+04  0.00000000000E+00 0.  1.
         21   -1    0    0  502  503 -0.00000000000E+00 -0.00000000000E+00 -0.50571893503E+02  0.50571893503E+02  0.00000000000E+00 0. -1.
         -6    2    1    2    0  503  0.15711919452E+03  0.29320506168E+02  0.48839094727E+03  0.54351205653E+03  0.17701272510E+03 0.  0.
        -24    2    3    3    0    0  0.44208950121E+02  0.61352795930E+02  0.33167836370E+03  0.34766590587E+03  0.71710866119E+02 0.  0.
          6    2    1    2  501    0 -0.15711919452E+03 -0.29320506168E+02  0.58435732225E+03  0.63038000000E+03  0.17423929224E+03 0.  0.
         24    2    5    5    0    0 -0.11538680233E+03 -0.28598656196E+02  0.21328959019E+03  0.25694263523E+03  0.79969189247E+02 0.  0.
          5    1    5    5  501    0 -0.41732392188E+02 -0.72184997137E+00  0.37106773207E+03  0.37343736477E+03  0.47000000000E+01 0. -1.
        -15    1    6    6    0    0 -0.15148956661E+02 -0.16894509823E+02  0.11077433000E+03  0.11308857266E+03  0.17770000000E+01 0.  1.
         16    1    6    6    0    0 -0.10023784567E+03 -0.11704146374E+02  0.10251526019E+03  0.14385406257E+03  0.00000000000E+00 0. -1.
         -5    1    3    3    0  503  0.11291024440E+03 -0.32032289762E+02  0.15671258357E+03  0.19584615066E+03  0.47000000000E+01 0.  1.
         15    1    4    4    0    0  0.32917908809E+02 -0.40152073482E+01  0.66697913758E+02  0.74508254838E+02  0.17770000000E+01 0. -1.
        -16    1    4    4    0    0  0.11291041312E+02  0.65368003278E+02  0.26498044994E+03  0.27315765103E+03  0.00000000000E+00 0.  1.
<mgrwt>
<rscale>  2 0.23798007E+03</rscale>
<asrwt>0</asrwt>
<pdfrwt beam="1">  1       21 0.17281847E+00 0.23849452E+03</pdfrwt>
<pdfrwt beam="2">  1       21 0.77802921E-02 0.23849452E+03</pdfrwt>
<totfact> 0.24945621E+04</totfact>
</mgrwt>
</event>
<event>
12    2  0.4090627E-002  0.1842979E+03  0.7546771E-02  0.1163770E+00
         21   -1    0    0  503  502  0.00000000000E+00  0.00000000000E+00  0.85149779481E+02  0.85149779481E+02  0.00000000000E+00 0.  1.
         21   -1    0    0  501  503 -0.00000000000E+00 -0.00000000000E+00 -0.41466752112E+03  0.41466752112E+03  0.00000000000E+00 0.  1.
          6    2    1    2  501    0 -0.56565429541E+01 -0.64056109680E+02 -0.21426801704E+03  0.28245076085E+03  0.17243105147E+03 0.  0.
         24    2    3    3    0    0  0.32971609703E+02 -0.97605751140E+02 -0.16795007784E+03  0.21327595249E+03  0.81641861579E+02 0.  0.
         -6    2    1    2    0  502  0.56565429541E+01  0.64056109680E+02 -0.11524972460E+03  0.21736653975E+03  0.17271517570E+03 0.  0.
        -24    2    5    5    0    0  0.58304579067E+02 -0.13540000275E+01 -0.53343237772E+02  0.11294048328E+03  0.80677100169E+02 0.  0.
          5    1    3    3  501    0 -0.38628152657E+02  0.33549641460E+02 -0.46317939200E+02  0.69174808359E+02  0.47000000000E+01 0. -1.
        -15    1    4    4    0    0 -0.80847557117E+01 -0.73793254923E+02 -0.13924827977E+03  0.15781016727E+03  0.17770000000E+01 0.  1.
         16    1    4    4    0    0  0.41056365415E+02 -0.23812496218E+02 -0.28701798069E+02  0.55465785215E+02  0.00000000000E+00 0. -1.
         -5    1    5    5    0  502 -0.52648036113E+02  0.65410109708E+02 -0.61906486828E+02  0.10442605647E+03  0.47000000000E+01 0.  1.
         15    1    6    6    0    0  0.49088341789E+02  0.35952616335E+02 -0.28781172355E+02  0.67333272103E+02  0.17770000000E+01 0. -1.
        -16    1    6    6    0    0  0.92162372774E+01 -0.37306616363E+02 -0.24562065417E+02  0.45607211179E+02  0.00000000000E+00 0.  1.
<mgrwt>
<rscale>  2 0.18423130E+03</rscale>
<asrwt>0</asrwt>
<pdfrwt beam="1">  1       21 0.13099966E-01 0.18429789E+03</pdfrwt>
<pdfrwt beam="2">  1       21 0.63795003E-01 0.18429789E+03</pdfrwt>
<totfact> 0.11415046E+05</totfact>
</mgrwt>
</event>
<event>
12    2  0.4090627E-002  0.2368060E+03  0.7546771E-02  0.1122890E+00
         21   -1    0    0  501  502  0.00000000000E+00  0.00000000000E+00  0.27356030915E+03  0.27356030915E+03  0.00000000000E+00 0.  1.
         21   -1    0    0  502  503 -0.00000000000E+00 -0.00000000000E+00 -0.24263854599E+03  0.24263854599E+03  0.00000000000E+00 0.  1.
         -6    2    1    2    0  503 -0.10416035600E+03 -0.12357470232E+03 -0.92596339250E+02  0.24911495373E+03  0.16542095186E+03 0.  0.
        -24    2    3    3    0    0 -0.72046287367E+02 -0.53339958903E+01 -0.38354827827E+02  0.11503882005E+03  0.80893252291E+02 0.  0.
          6    2    1    2  501    0  0.10416035600E+03  0.12357470232E+03  0.12351810241E+03  0.26708390141E+03  0.17308091157E+03 0.  0.
         24    2    5    5    0    0  0.34553259604E+01  0.10577133641E+02  0.67279422553E+02  0.10554495033E+03  0.80556817263E+02 0.  0.
          5    1    5    5  501    0  0.10070503004E+03  0.11299756868E+03  0.56238679858E+02  0.16153895108E+03  0.47000000000E+01 0. -1.
        -15    1    6    6    0    0  0.14011035947E+02  0.37488278922E+02  0.98546942714E+01  0.41254732008E+02  0.17770000000E+01 0.  1.
         16    1    6    6    0    0 -0.10555709987E+02 -0.26911145281E+02  0.57424728281E+02  0.64290218322E+02  0.00000000000E+00 0. -1.
         -5    1    3    3    0  503 -0.32114068634E+02 -0.11824070643E+03 -0.54241511423E+02  0.13407613368E+03  0.47000000000E+01 0.  1.
         15    1    4    4    0    0 -0.53194647019E+02  0.33480875460E+01  0.16957590711E+02  0.55960680602E+02  0.17770000000E+01 0. -1.
        -16    1    4    4    0    0 -0.18851640349E+02 -0.86820834362E+01 -0.55312418538E+02  0.59078139453E+02  0.00000000000E+00 0.  1.
<mgrwt>
<rscale>  2 0.23540881E+03</rscale>
<asrwt>0</asrwt>
<pdfrwt beam="1">  1       21 0.42086202E-01 0.23680602E+03</pdfrwt>
<pdfrwt beam="2">  1       21 0.37329007E-01 0.23680602E+03</pdfrwt>
<totfact> 0.36799848E+04</totfact>
</mgrwt>
</event>
<event>
12    2  0.4090627E-002  0.1824351E+03  0.7546771E-02  0.1165674E+00
         21   -1    0    0  501  502  0.00000000000E+00  0.00000000000E+00  0.46703703024E+03  0.46703703024E+03  0.00000000000E+00 0.  1.
         21   -1    0    0  502  503 -0.00000000000E+00 -0.00000000000E+00 -0.72710355560E+02  0.72710355560E+02  0.00000000000E+00 0.  1.
         -6    2    1    2    0  503 -0.57065777623E+02 -0.41898876914E+01  0.23991910211E+03  0.30140294908E+03  0.17322962802E+03 0.  0.
        -24    2    3    3    0    0 -0.10390778783E+02 -0.48586512625E+02  0.20944577644E+03  0.22998635858E+03  0.80978851378E+02 0.  0.
          6    2    1    2  501    0  0.57065777623E+02  0.41898876914E+01  0.15440757257E+03  0.23834443672E+03  0.17231457835E+03 0.  0.
         24    2    5    5    0    0  0.79751301437E+02 -0.64518624067E+01  0.39403345395E+02  0.12054824788E+03  0.81100923730E+02 0.  0.
          5    1    5    5  501    0 -0.22685523815E+02  0.10641750098E+02  0.11500422718E+03  0.11779618884E+03  0.47000000000E+01 0. -1.
        -15    1    6    6    0    0  0.41446231019E+02  0.21928945369E+02 -0.13994058631E+02  0.48965907698E+02  0.17770000000E+01 0.  1.
         16    1    6    6    0    0  0.38305070418E+02 -0.28380807775E+02  0.53397404025E+02  0.71582340185E+02  0.00000000000E+00 0. -1.
         -5    1    3    3    0  503 -0.46674998840E+02  0.44396624934E+02  0.30473325675E+02  0.71416590509E+02  0.47000000000E+01 0.  1.
         15    1    4    4    0    0 -0.10476662910E+02 -0.45590897568E+02  0.43157781511E+02  0.63671361229E+02  0.17770000000E+01 0. -1.
        -16    1    4    4    0    0  0.85884127614E-01 -0.29956150571E+01  0.16628799493E+03  0.16631499735E+03  0.00000000000E+00 0.  1.
<mgrwt>
<rscale>  2 0.18221754E+03</rscale>
<asrwt>0</asrwt>
<pdfrwt beam="1">  1       21 0.71851849E-01 0.18243509E+03</pdfrwt>
<pdfrwt beam="2">  1       21 0.11186209E-01 0.18243509E+03</pdfrwt>
<totfact> 0.11677682E+05</totfact>
</mgrwt>
</event>
<event>
12    2  0.4090627E-002  0.3654038E+03  0.7546771E-02  0.1056505E+00
         21   -1    0    0  501  502  0.00000000000E+00  0.00000000000E+00  0.11924618858E+04  0.11924618858E+04  0.00000000000E+00 0.  1.
         21   -1    0    0  502  503 -0.00000000000E+00 -0.00000000000E+00 -0.68677966863E+03  0.68677966863E+03  0.00000000000E+00 0. -1.
         -6    2    1    2    0  503  0.20519030137E+03  0.24754082301E+03 -0.60684948970E+03  0.70836869818E+03  0.17360988043E+03 0.  0.
        -24    2    3    3    0    0  0.19855333273E+03  0.24561789991E+03 -0.61537085114E+03  0.69643343167E+03  0.81158250513E+02 0.  0.
          6    2    1    2  501    0 -0.20519030137E+03 -0.24754082301E+03  0.11125317069E+04  0.11708728562E+04  0.17273369062E+03 0.  0.
         24    2    5    5    0    0 -0.11688210173E+03 -0.15960416079E+03  0.89245918321E+03  0.91791989549E+03  0.83418385224E+02 0.  0.
          5    1    5    5  501    0 -0.88308199641E+02 -0.87936662222E+02  0.22007252365E+03  0.25295296075E+03  0.47000000000E+01 0. -1.
        -15    1    6    6    0    0 -0.10833034231E+03 -0.14100814396E+03  0.62861686527E+03  0.65328483892E+03  0.17770000000E+01 0.  1.
         16    1    6    6    0    0 -0.85517594194E+01 -0.18596016828E+02  0.26384231794E+03  0.26463505657E+03  0.00000000000E+00 0. -1.
         -5    1    3    3    0  503  0.66369686339E+01  0.19229231028E+01  0.85213614377E+01  0.11935266510E+02  0.47000000000E+01 0.  1.
         15    1    4    4    0    0  0.14863461514E+03  0.12039685079E+03 -0.35929247798E+03  0.40704040703E+03  0.17770000000E+01 0. -1.
        -16    1    4    4    0    0  0.49918717590E+02  0.12522104912E+03 -0.25607837316E+03  0.28939302464E+03  0.00000000000E+00 0.  1.
<mgrwt>
<rscale>  2 0.36529985E+03</rscale>
<asrwt>0</asrwt>
<pdfrwt beam="1">  1       21 0.18345567E+00 0.36540376E+03</pdfrwt>
<pdfrwt beam="2">  1       21 0.10565841E+00 0.36540376E+03</pdfrwt>
<totfact> 0.10456443E+02</totfact>
</mgrwt>
</event>
<event>
12    2  0.4090627E-002  0.2120548E+03  0.7546771E-02  0.1140117E+00
         21   -1    0    0  501  502  0.00000000000E+00  0.00000000000E+00  0.73701502324E+02  0.73701502324E+02  0.00000000000E+00 0.  1.
         21   -1    0    0  502  503 -0.00000000000E+00 -0.00000000000E+00 -0.61622216917E+03  0.61622216917E+03  0.00000000000E+00 0.  1.
         -6    2    1    2    0  503  0.24249741600E+02  0.11746864127E+03 -0.23006389716E+03  0.31230417483E+03  0.17383201428E+03 0.  0.
        -24    2    3    3    0    0 -0.38317857124E+02  0.64252974826E+02 -0.19457292722E+03  0.22270333492E+03  0.78367393904E+02 0.  0.
          6    2    1    2  501    0 -0.24249741600E+02 -0.11746864127E+03 -0.31245676968E+03  0.37761949666E+03  0.17487229537E+03 0.  0.
         24    2    5    5    0    0  0.28425798992E+02 -0.13166534552E+03 -0.21205395682E+03  0.26325571822E+03  0.78695001832E+02 0.  0.
          5    1    5    5  501    0 -0.52675540592E+02  0.14196704251E+02 -0.10040281287E+03  0.11436377844E+03  0.47000000000E+01 0. -1.
        -15    1    6    6    0    0  0.13307474166E+02 -0.12615776831E+03 -0.21211944331E+03  0.24716530366E+03  0.17770000000E+01 0.  1.
         16    1    6    6    0    0  0.15118324825E+02 -0.55075772108E+01  0.65486491033E-01  0.16090414561E+02  0.00000000000E+00 0. -1.
         -5    1    3    3    0  503  0.62567598724E+02  0.53215666448E+02 -0.35490969940E+02  0.89600839912E+02  0.47000000000E+01 0.  1.
         15    1    4    4    0    0  0.53401815523E-01  0.13795998951E+02  0.38235950919E+01  0.14426019799E+02  0.17770000000E+01 0. -1.
        -16    1    4    4    0    0 -0.38371258940E+02  0.50456975875E+02 -0.19839652232E+03  0.20827731512E+03  0.00000000000E+00 0.  1.
<mgrwt>
<rscale>  2 0.21184024E+03</rscale>
<asrwt>0</asrwt>
<pdfrwt beam="1">  1       21 0.11338692E-01 0.21205483E+03</pdfrwt>
<pdfrwt beam="2">  1       21 0.94803415E-01 0.21205483E+03</pdfrwt>
<totfact> 0.59879560E+04</totfact>
</mgrwt>
</event>
<event>
12    2  0.4090627E-002  0.2746126E+03  0.7546771E-02  0.1098761E+00
         21   -1    0    0  503  502  0.00000000000E+00  0.00000000000E+00  0.85891967111E+03  0.85891967111E+03  0.00000000000E+00 0.  1.
         21   -1    0    0  501  503 -0.00000000000E+00 -0.00000000000E+00 -0.11265529753E+03  0.11265529753E+03  0.00000000000E+00 0.  1.
          6    2    1    2  501    0  0.20941956683E+03 -0.36692899954E+02  0.14362745615E+03  0.30931872986E+03  0.17276083642E+03 0.  0.
         24    2    3    3    0    0  0.59953798708E+02 -0.65458192202E+02  0.45754855234E+02  0.12829775348E+03  0.80545476995E+02 0.  0.
         -6    2    1    2    0  502 -0.20941956683E+03  0.36692899954E+02  0.60263691743E+03  0.66225623878E+03  0.17380778945E+03 0.  0.
        -24    2    5    5    0    0 -0.14235613735E+03  0.91087441051E+02  0.40348892087E+03  0.44514271040E+03  0.82380407812E+02 0.  0.
          5    1    3    3  501    0  0.14946576812E+03  0.28765292248E+02  0.97872600920E+02  0.18102097638E+03  0.47000000000E+01 0. -1.
        -15    1    4    4    0    0  0.74100687267E+02 -0.62933823722E+02  0.20700141144E+02  0.99414443589E+02  0.17770000000E+01 0.  1.
         16    1    4    4    0    0 -0.14146888558E+02 -0.25243684803E+01  0.25054714090E+02  0.28883309891E+02  0.00000000000E+00 0. -1.
         -5    1    5    5    0  502 -0.67063429480E+02 -0.54394541096E+02  0.19914799656E+03  0.21711352838E+03  0.47000000000E+01 0.  1.
         15    1    6    6    0    0 -0.23335970634E+02 -0.15258931046E+02  0.49649151288E+02  0.56970154070E+02  0.17770000000E+01 0. -1.
        -16    1    6    6    0    0 -0.11902016672E+03  0.10634637210E+03  0.35383976959E+03  0.38817255633E+03  0.00000000000E+00 0.  1.
<mgrwt>
<rscale>  2 0.27444708E+03</rscale>
<asrwt>0</asrwt>
<pdfrwt beam="1">  1       21 0.13214148E+00 0.27461258E+03</pdfrwt>
<pdfrwt beam="2">  1       21 0.17331585E-01 0.27461258E+03</pdfrwt>
<totfact> 0.11874956E+04</totfact>
</mgrwt>
</event>
<event>
12    2  0.4090627E-002  0.2116203E+03  0.7546771E-02  0.1140769E+00
         21   -1    0    0  501  502  0.00000000000E+00  0.00000000000E+00  0.11388649176E+03  0.11388649176E+03  0.00000000000E+00 0. -1.
         21   -1    0    0  502  503 -0.00000000000E+00 -0.00000000000E+00 -0.40111840109E+03  0.40111840109E+03  0.00000000000E+00 0. -1.
         -6    2    1    2    0  503 -0.68114619224E+02  0.10108136503E+03 -0.99144932747E+02  0.23369396557E+03  0.17299164184E+03 0.  0.
        -24    2    3    3    0    0 -0.10008885572E+03  0.96836838835E+02 -0.10597899596E+03  0.20038987840E+03  0.97618663112E+02 0.  0.
          6    2    1    2  501    0  0.68114619224E+02 -0.10108136503E+03 -0.18808697658E+03  0.28131092728E+03  0.17000612736E+03 0.  0.
         24    2    5    5    0    0 -0.27228902776E+02 -0.47750274118E+02 -0.68921605934E+02  0.11957945846E+03  0.80793299821E+02 0.  0.
          5    1    5    5  501    0  0.95343522001E+02 -0.53331090914E+02 -0.11916537065E+03  0.16173146882E+03  0.47000000000E+01 0. -1.
        -15    1    6    6    0    0  0.47983176915E+01  0.93171332304E+01  0.11656534993E+02  0.15775467072E+02  0.17770000000E+01 0.  1.
         16    1    6    6    0    0 -0.32027220468E+02 -0.57067407349E+02 -0.80578140927E+02  0.10380399139E+03  0.00000000000E+00 0. -1.
         -5    1    3    3    0  503  0.31974236493E+02  0.42445261969E+01  0.68340632138E+01  0.33304087166E+02  0.47000000000E+01 0.  1.
         15    1    4    4    0    0 -0.85770695118E+02  0.10945091848E+03 -0.11387282958E+03  0.17973951915E+03  0.17770000000E+01 0. -1.
        -16    1    4    4    0    0 -0.14318160599E+02 -0.12614079646E+02  0.78938336194E+01  0.20650359258E+02  0.00000000000E+00 0.  1.
<mgrwt>
<rscale>  2 0.21100929E+03</rscale>
<asrwt>0</asrwt>
<pdfrwt beam="1">  1       21 0.17520998E-01 0.21162030E+03</pdfrwt>
<pdfrwt beam="2">  1       21 0.61710524E-01 0.21162030E+03</pdfrwt>
<totfact> 0.71372599E+04</totfact>
</mgrwt>
</event>
<event>
12    2  0.4090627E-002  0.2039576E+03  0.7546771E-02  0.1146552E+00
         21   -1    0    0  501  502  0.00000000000E+00  0.00000000000E+00  0.67437281841E+03  0.67437281841E+03  0.00000000000E+00 0. -1.
         21   -1    0    0  502  503 -0.00000000000E+00 -0.00000000000E+00 -0.62756020528E+02  0.62756020528E+02  0.00000000000E+00 0.  1.
         -6    2    1    2    0  503 -0.10743220502E+03  0.13629743423E+01  0.25378886047E+03  0.32525561304E+03  0.17273937520E+03 0.  0.
        -24    2    3    3    0    0 -0.88093177050E+02 -0.56791822620E+02  0.12414193482E+03  0.18177601958E+03  0.81520441317E+02 0.  0.
          6    2    1    2  501    0  0.10743220502E+03 -0.13629743423E+01  0.35782793742E+03  0.41187322590E+03  0.17336431305E+03 0.  0.
         24    2    5    5    0    0  0.72531056434E+01  0.41586502299E+02  0.19889016481E+03  0.21909403859E+03  0.81626315455E+02 0.  0.
          5    1    5    5  501    0  0.10017909938E+03 -0.42949476641E+02  0.15893777261E+03  0.19277918730E+03  0.47000000000E+01 0. -1.
        -15    1    6    6    0    0  0.26532070980E+02  0.49304959222E+02  0.75740321147E+02  0.94205540022E+02  0.17770000000E+01 0.  1.
         16    1    6    6    0    0 -0.19278965336E+02 -0.77184569230E+01  0.12314984366E+03  0.12488849857E+03  0.00000000000E+00 0. -1.
         -5    1    3    3    0  503 -0.19339027969E+02  0.58154796963E+02  0.12964692564E+03  0.14347959347E+03  0.47000000000E+01 0.  1.
         15    1    4    4    0    0 -0.78825940150E+02 -0.45849128148E+02  0.13560040354E+03  0.16342061853E+03  0.17770000000E+01 0. -1.
        -16    1    4    4    0    0 -0.92672368998E+01 -0.10942694473E+02 -0.11458468719E+02  0.18355401043E+02  0.00000000000E+00 0.  1.
<mgrwt>
<rscale>  2 0.20382478E+03</rscale>
<asrwt>0</asrwt>
<pdfrwt beam="1">  1       21 0.10374966E+00 0.20395765E+03</pdfrwt>
<pdfrwt beam="2">  1       21 0.96547729E-02 0.20395765E+03</pdfrwt>
<totfact> 0.64559729E+04</totfact>
</mgrwt>
</event>
<event>
12    2  0.4090627E-002  0.3053127E+03  0.7546771E-02  0.1083506E+00
         21   -1    0    0  501  502  0.00000000000E+00  0.00000000000E+00  0.34349828866E+03  0.34349828866E+03  0.00000000000E+00 0. -1.
         21   -1    0    0  502  503 -0.00000000000E+00 -0.00000000000E+00 -0.26522970910E+03  0.26522970910E+03  0.00000000000E+00 0.  1.
         -6    2    1    2    0  503 -0.21142972173E+03 -0.11939659467E+03  0.29935554319E+02  0.29961328292E+03  0.17295637555E+03 0.  0.
        -24    2    3    3    0    0 -0.65424283912E+02 -0.10487416610E+03  0.40390321728E+02  0.15244032017E+03  0.79547127451E+02 0.  0.
          6    2    1    2  501    0  0.21142972173E+03  0.11939659467E+03  0.48333025246E+02  0.30911471483E+03  0.18508849653E+03 0.  0.
         24    2    5    5    0    0  0.10852909037E+03  0.64605197818E+02 -0.48720372377E+02  0.15735144822E+03  0.80208531535E+02 0.  0.
          5    1    5    5  501    0  0.10290063136E+03  0.54791396856E+02  0.97053397623E+02  0.15176326661E+03  0.47000000000E+01 0. -1.
        -15    1    6    6    0    0  0.90005745340E+02  0.83572111598E+02 -0.43644243178E+02  0.13035838954E+03  0.17770000000E+01 0.  1.
         16    1    6    6    0    0  0.18523345028E+02 -0.18966913780E+02 -0.50761291994E+01  0.26993058682E+02  0.00000000000E+00 0. -1.
         -5    1    3    3    0  503 -0.14600543781E+03 -0.14522428577E+02 -0.10454767410E+02  0.14717296275E+03  0.47000000000E+01 0.  1.
         15    1    4    4    0    0 -0.64769505742E+01 -0.57770151255E+02  0.49583478747E+02  0.76426568407E+02  0.17770000000E+01 0. -1.
        -16    1    4    4    0    0 -0.58947333338E+02 -0.47104014842E+02 -0.91931570186E+01  0.76013751768E+02  0.00000000000E+00 0.  1.
<mgrwt>
<rscale>  2 0.30349688E+03</rscale>
<asrwt>0</asrwt>
<pdfrwt beam="1">  1       21 0.52845891E-01 0.30531267E+03</pdfrwt>
<pdfrwt beam="2">  1       21 0.40804570E-01 0.30531267E+03</pdfrwt>
<totfact> 0.18567859E+04</totfact>
</mgrwt>
</event>
<event>
12    2  0.4090627E-002  0.2072947E+03  0.7546771E-02  0.1143770E+00
         21   -1    0    0  503  502  0.00000000000E+00  0.00000000000E+00  0.23858326271E+03  0.23858326271E+03  0.00000000000E+00 0. -1.
         21   -1    0    0  501  503 -0.00000000000E+00 -0.00000000000E+00 -0.32908791186E+03  0.32908791186E+03  0.00000000000E+00 0. -1.
          6    2    1    2  501    0 -0.10841605174E+03  0.35978257199E+02 -0.23636010445E+03  0.31438379769E+03  0.17298149614E+03 0.  0.
         24    2    3    3    0    0 -0.18613919859E+02 -0.31682642279E+02 -0.28803257287E+02  0.78281372854E+02  0.62833731955E+02 0.  0.
         -6    2    1    2    0  502  0.10841605174E+03 -0.35978257199E+02  0.14585545530E+03  0.25328737689E+03  0.17272002254E+03 0.  0.
        -24    2    5    5    0    0  0.13243979065E+03 -0.65605432247E+02  0.12625993054E+03  0.21014825169E+03  0.79852030282E+02 0.  0.
          5    1    3    3  501    0 -0.89802131885E+02  0.67660899478E+02 -0.20755684716E+03  0.23610242483E+03  0.47000000000E+01 0. -1.
        -15    1    4    4    0    0  0.12232553329E+02 -0.10631921550E+02  0.13990443996E+02  0.21484025903E+02  0.17770000000E+01 0.  1.
         16    1    4    4    0    0 -0.30846473187E+02 -0.21050720729E+02 -0.42793701283E+02  0.56797346952E+02  0.00000000000E+00 0. -1.
         -5    1    5    5    0  502 -0.24023738909E+02  0.29627175048E+02  0.19595524755E+02  0.43139125199E+02  0.47000000000E+01 0.  1.
         15    1    6    6    0    0  0.11383737609E+03 -0.52896109832E+02  0.13645566279E+03  0.18541912595E+03  0.17770000000E+01 0. -1.
        -16    1    6    6    0    0  0.18602414560E+02 -0.12709322415E+02 -0.10195732252E+02  0.24729125740E+02  0.00000000000E+00 0.  1.
<mgrwt>
<rscale>  2 0.20724010E+03</rscale>
<asrwt>0</asrwt>
<pdfrwt beam="1">  1       21 0.36705118E-01 0.20729465E+03</pdfrwt>
<pdfrwt beam="2">  1       21 0.50628909E-01 0.20729465E+03</pdfrwt>
<totfact> 0.26355708E+04</totfact>
</mgrwt>
</event>
<event>
12    2  0.4090627E-002  0.2079888E+03  0.7546771E-02  0.1143299E+00
         21   -1    0    0  501  502  0.00000000000E+00  0.00000000000E+00  0.69972771319E+02  0.69972771319E+02  0.00000000000E+00 0. -1.
         21   -1    0    0  502  503 -0.00000000000E+00 -0.00000000000E+00 -0.73336695570E+03  0.73336695570E+03  0.00000000000E+00 0.  1.
         -6    2    1    2    0  503  0.26840558317E+02 -0.11202339758E+03 -0.49261536285E+03  0.53472349981E+03  0.17317525330E+03 0.  0.
        -24    2    3    3    0    0  0.25800718599E+02  0.60335745153E+01 -0.14399845988E+03  0.16662790765E+03  0.79543837346E+02 0.  0.
          6    2    1    2  501    0 -0.26840558317E+02  0.11202339758E+03 -0.17077882153E+03  0.26861622721E+03  0.17239377733E+03 0.  0.
         24    2    5    5    0    0 -0.63600087871E+02  0.88428834258E+02 -0.17864673707E+03  0.22398484222E+03  0.79936993779E+02 0.  0.
          5    1    5    5  501    0  0.36759529554E+02  0.23594563323E+02  0.78679155334E+01  0.44631384991E+02  0.47000000000E+01 0. -1.
        -15    1    6    6    0    0 -0.63133961721E+02  0.52088798642E+02 -0.64594139637E+02  0.10428183289E+03  0.17770000000E+01 0.  1.
         16    1    6    6    0    0 -0.46612614999E+00  0.36340035616E+02 -0.11405259743E+03  0.11970300933E+03  0.00000000000E+00 0. -1.
         -5    1    3    3    0  503  0.10398397186E+01 -0.11805697210E+03 -0.34861690298E+03  0.36809559216E+03  0.47000000000E+01 0.  1.
         15    1    4    4    0    0  0.52274228250E+02  0.69528486660E+01 -0.67518262801E+02  0.85690201216E+02  0.17770000000E+01 0. -1.
        -16    1    4    4    0    0 -0.26473509652E+02 -0.91927415076E+00 -0.76480197076E+02  0.80937706436E+02  0.00000000000E+00 0.  1.
<mgrwt>
<rscale>  2 0.20782602E+03</rscale>
<asrwt>0</asrwt>
<pdfrwt beam="1">  1       21 0.10765041E-01 0.20798876E+03</pdfrwt>
<pdfrwt beam="2">  1       21 0.11282569E+00 0.20798876E+03</pdfrwt>
<totfact> 0.43376315E+04</totfact>
</mgrwt>
</event>
<event>
12    2  0.4090627E-002  0.2094238E+03  0.7546771E-02  0.1142024E+00
         21   -1    0    0  503  502  0.00000000000E+00  0.00000000000E+00  0.43868720382E+03  0.43868720382E+03  0.00000000000E+00 0. -1.
         21   -1    0    0  501  503 -0.00000000000E+00 -0.00000000000E+00 -0.12466770942E+03  0.12466770942E+03  0.00000000000E+00 0. -1.
          6    2    1    2  501    0  0.11566374187E+03 -0.18051182790E+02  0.31648801192E+02  0.21180168525E+03  0.17365011049E+03 0.  0.
         24    2    3    3    0    0  0.77563275094E+02 -0.77250586368E+02  0.31251071119E+01  0.13569711196E+03  0.80126307547E+02 0.  0.
         -6    2    1    2    0  502 -0.11566374187E+03  0.18051182790E+02  0.28237069320E+03  0.35155322799E+03  0.17364480224E+03 0.  0.
        -24    2    5    5    0    0 -0.78016434888E+02 -0.48422782435E+02  0.22405326121E+03  0.25532890336E+03  0.81004043483E+02 0.  0.
          5    1    3    3  501    0  0.38100466779E+02  0.59199403577E+02  0.28523694080E+02  0.76104573297E+02  0.47000000000E+01 0. -1.
        -15    1    4    4    0    0 -0.65135239877E+01  0.26834511613E+01 -0.16509220197E+02  0.18037155690E+02  0.17770000000E+01 0.  1.
         16    1    4    4    0    0  0.84076799082E+02 -0.79934037529E+02  0.19634327309E+02  0.11765995627E+03  0.00000000000E+00 0. -1.
         -5    1    5    5    0  502 -0.37647306985E+02  0.66473965226E+02  0.58317431993E+02  0.96224324629E+02  0.47000000000E+01 0.  1.
         15    1    6    6    0    0 -0.33243544590E+01 -0.30481480407E+02  0.13155520432E+03  0.13509293651E+03  0.17770000000E+01 0. -1.
        -16    1    6    6    0    0 -0.74692080429E+02 -0.17941302028E+02  0.92498056886E+02  0.12023596685E+03  0.00000000000E+00 0.  1.
<mgrwt>
<rscale>  2 0.20942265E+03</rscale>
<asrwt>0</asrwt>
<pdfrwt beam="1">  1       21 0.67490339E-01 0.20942375E+03</pdfrwt>
<pdfrwt beam="2">  1       21 0.19179648E-01 0.20942375E+03</pdfrwt>
<totfact> 0.49697569E+04</totfact>
</mgrwt>
</event>
<event>
12    2  0.4090627E-002  0.2516762E+03  0.7546771E-02  0.1112501E+00
         21   -1    0    0  501  502  0.00000000000E+00  0.00000000000E+00  0.16609430504E+04  0.16609430504E+04  0.00000000000E+00 0. -1.
         21   -1    0    0  502  503 -0.00000000000E+00 -0.00000000000E+00 -0.61886463537E+02  0.61886463537E+02  0.00000000000E+00 0. -1.
         -6    2    1    2    0  503 -0.18096242546E+03  0.18284234045E+02  0.26473232088E+03  0.36527266236E+03  0.17395172752E+03 0.  0.
        -24    2    3    3    0    0 -0.18002947529E+03  0.33221451834E+02  0.27952751852E+03  0.34370929656E+03  0.80536762389E+02 0.  0.
          6    2    1    2  501    0  0.18096242546E+03 -0.18284234045E+02  0.13343242659E+04  0.13575568515E+04  0.17163229834E+03 0.  0.
         24    2    5    5    0    0  0.18718121634E+03  0.19262129375E+02  0.98660158866E+03  0.10077261024E+04  0.81983933026E+02 0.  0.
          5    1    5    5  501    0 -0.62187908830E+01 -0.37546363421E+02  0.34772267729E+03  0.34983074918E+03  0.47000000000E+01 0. -1.
        -15    1    6    6    0    0  0.26553212769E+02  0.34117026950E+02  0.24384264930E+03  0.24765185237E+03  0.17770000000E+01 0.  1.
         16    1    6    6    0    0  0.16062800357E+03 -0.14854897574E+02  0.74275893935E+03  0.76007424999E+03  0.00000000000E+00 0. -1.
         -5    1    3    3    0  503 -0.93295016920E+00 -0.14937217789E+02 -0.14795197642E+02  0.21563365798E+02  0.47000000000E+01 0.  1.
         15    1    4    4    0    0 -0.88397389561E+02  0.51284500621E+02  0.11000179150E+03  0.15015908346E+03  0.17770000000E+01 0. -1.
        -16    1    4    4    0    0 -0.91632085727E+02 -0.18063048787E+02  0.16952572702E+03  0.19355021310E+03  0.00000000000E+00 0.  1.
<mgrwt>
<rscale>  2 0.25127588E+03</rscale>
<asrwt>0</asrwt>
<pdfrwt beam="1">  1       21 0.25552967E+00 0.25167621E+03</pdfrwt>
<pdfrwt beam="2">  1       21 0.95209957E-02 0.25167621E+03</pdfrwt>
<totfact> 0.51698612E+03</totfact>
</mgrwt>
</event>
<event>
12    2  0.4090627E-002  0.2049319E+03  0.7546771E-02  0.1145737E+00
         21   -1    0    0  501  502  0.00000000000E+00  0.00000000000E+00  0.12254825121E+03  0.12254825121E+03  0.00000000000E+00 0. -1.
         21   -1    0    0  502  503 -0.00000000000E+00 -0.00000000000E+00 -0.53567848535E+03  0.53567848535E+03  0.00000000000E+00 0. -1.
         -6    2    1    2    0  503  0.31337136073E+02 -0.10524777035E+03 -0.40434597526E+03  0.45310664887E+03  0.17248437112E+03 0.  0.
        -24    2    3    3    0    0  0.41610795187E+02 -0.35730870921E+02 -0.97038639446E+02  0.13783210816E+03  0.81074281249E+02 0.  0.
          6    2    1    2  501    0 -0.31337136073E+02  0.10524777035E+03 -0.87842588788E+01  0.20512008770E+03  0.17302594577E+03 0.  0.
         24    2    5    5    0    0 -0.53571839346E+01 -0.10533209206E+02 -0.23850873958E+02  0.85415091850E+02  0.81161726272E+02 0.  0.
          5    1    5    5  501    0 -0.25979952138E+02  0.11578097956E+03  0.15066615079E+02  0.11970499585E+03  0.47000000000E+01 0. -1.
        -15    1    6    6    0    0 -0.22834574987E+02  0.13628627694E+02 -0.42556659519E+02  0.50213387718E+02  0.17770000000E+01 0.  1.
         16    1    6    6    0    0  0.17477391053E+02 -0.24161836900E+02  0.18705785561E+02  0.35201704133E+02  0.00000000000E+00 0. -1.
         -5    1    3    3    0  503 -0.10273659115E+02 -0.69516899431E+02 -0.30730733581E+03  0.31527454071E+03  0.47000000000E+01 0.  1.
         15    1    4    4    0    0  0.10591831493E+02  0.23203950672E+02 -0.50435631652E+02  0.56546625809E+02  0.17770000000E+01 0. -1.
        -16    1    4    4    0    0  0.31018963694E+02 -0.58934821593E+02 -0.46603007794E+02  0.81285482347E+02  0.00000000000E+00 0.  1.
<mgrwt>
<rscale>  2 0.20481755E+03</rscale>
<asrwt>0</asrwt>
<pdfrwt beam="1">  1       21 0.18853577E-01 0.20493191E+03</pdfrwt>
<pdfrwt beam="2">  1       21 0.82412074E-01 0.20493191E+03</pdfrwt>
<totfact> 0.32907232E+04</totfact>
</mgrwt>
</event>
<event>
12    2  0.4090627E-002  0.1896911E+03  0.7546771E-02  0.1160285E+00
         21   -1    0    0  501  502  0.00000000000E+00  0.00000000000E+00  0.45379966717E+03  0.45379966717E+03  0.00000000000E+00 0.  1.
         21   -1    0    0  502  503 -0.00000000000E+00 -0.00000000000E+00 -0.10369453311E+03  0.10369453311E+03  0.00000000000E+00 0.  1.
         -6    2    1    2    0  503 -0.11532680556E+02 -0.81066111801E+02  0.30033380630E+02  0.18543421781E+03  0.16364329495E+03 0.  0.
        -24    2    3    3    0    0  0.41866544944E+02 -0.32640095959E+02 -0.16653615623E+02  0.99420719377E+02  0.82395103486E+02 0.  0.
          6    2    1    2  501    0  0.11532680556E+02  0.81066111801E+02  0.32007175343E+03  0.37205998246E+03  0.17110811202E+03 0.  0.
         24    2    5    5    0    0 -0.52758556468E+02  0.77169602738E+02  0.23258821625E+03  0.26332174071E+03  0.80637757439E+02 0.  0.
          5    1    5    5  501    0  0.64291237023E+02  0.38965090624E+01  0.87483537183E+02  0.10873824175E+03  0.47000000000E+01 0. -1.
        -15    1    6    6    0    0 -0.18997092552E+02  0.58387196781E+02  0.57901747051E+02  0.84414005437E+02  0.17770000000E+01 0.  1.
         16    1    6    6    0    0 -0.33761463915E+02  0.18782405957E+02  0.17468646920E+03  0.17890773527E+03  0.00000000000E+00 0. -1.
         -5    1    3    3    0  503 -0.53399225500E+02 -0.48426015842E+02  0.46686996254E+02  0.86013498438E+02  0.47000000000E+01 0.  1.
         15    1    4    4    0    0  0.60885162948E+02 -0.29870637705E+02  0.78336550173E+01  0.68291887834E+02  0.17770000000E+01 0. -1.
        -16    1    4    4    0    0 -0.19018618004E+02 -0.27694582538E+01 -0.24487270641E+02  0.31128831543E+02  0.00000000000E+00 0.  1.
<mgrwt>
<rscale>  2 0.18799209E+03</rscale>
<asrwt>0</asrwt>
<pdfrwt beam="1">  1       21 0.69815332E-01 0.18969107E+03</pdfrwt>
<pdfrwt beam="2">  1       21 0.15953005E-01 0.18969107E+03</pdfrwt>
<totfact> 0.65422429E+04</totfact>
</mgrwt>
</event>
<event>
12    2  0.4090627E-002  0.1808502E+03  0.7546771E-02  0.1167566E+00
         21   -1    0    0  501  502  0.00000000000E+00  0.00000000000E+00  0.25713404743E+03  0.25713404743E+03  0.00000000000E+00 0.  1.
         21   -1    0    0  502  503 -0.00000000000E+00 -0.00000000000E+00 -0.83862987623E+03  0.83862987623E+03  0.00000000000E+00 0.  1.
         -6    2    1    2    0  503 -0.51401329624E+02  0.88046567619E+01 -0.79567800751E+03  0.81544125779E+03  0.17064974247E+03 0.  0.
        -24    2    3    3    0    0 -0.84757789087E+02 -0.19569990769E+01 -0.74184109858E+03  0.75102876376E+03  0.80797746218E+02 0.  0.
          6    2    1    2  501    0  0.51401329624E+02 -0.88046567619E+01  0.21418217871E+03  0.28032266587E+03  0.17316804744E+03 0.  0.
         24    2    5    5    0    0  0.61661292324E+02  0.46408165505E+02  0.18767056840E+03  0.21804363200E+03  0.79793172755E+02 0.  0.
          5    1    5    5  501    0 -0.10259962700E+02 -0.55212822267E+02  0.26511610316E+02  0.62279033863E+02  0.47000000000E+01 0. -1.
        -15    1    6    6    0    0  0.74846656487E+01 -0.11576817467E+02  0.95118441070E+02  0.96128655890E+02  0.17770000000E+01 0.  1.
         16    1    6    6    0    0  0.54176626676E+02  0.57984982972E+02  0.92552127327E+02  0.12191497611E+03  0.00000000000E+00 0. -1.
         -5    1    3    3    0  503  0.33356459463E+02  0.10761655839E+02 -0.53836908931E+02  0.64412494033E+02  0.47000000000E+01 0.  1.
         15    1    4    4    0    0  0.33695486221E+01  0.23652809212E+02 -0.20561734593E+03  0.20700835712E+03  0.17770000000E+01 0. -1.
        -16    1    4    4    0    0 -0.88127337709E+02 -0.25609808289E+02 -0.53622375266E+03  0.54402040664E+03  0.00000000000E+00 0.  1.
<mgrwt>
<rscale>  2 0.18024469E+03</rscale>
<asrwt>0</asrwt>
<pdfrwt beam="1">  1       21 0.39559084E-01 0.18085019E+03</pdfrwt>
<pdfrwt beam="2">  1       21 0.12901998E+00 0.18085019E+03</pdfrwt>
<totfact> 0.27432870E+03</totfact>
</mgrwt>
</event>
<event>
12    2  0.4090627E-002  0.2361773E+03  0.7546771E-02  0.1122521E+00
         21   -1    0    0  501  502  0.00000000000E+00  0.00000000000E+00  0.32391562773E+03  0.32391562773E+03  0.00000000000E+00 0. -1.
         21   -1    0    0  502  503 -0.00000000000E+00 -0.00000000000E+00 -0.27988034341E+03  0.27988034341E+03  0.00000000000E+00 0. -1.
         -6    2    1    2    0  503  0.87945938262E+01  0.15883228389E+03  0.20987588179E+03  0.31595506769E+03  0.17456998527E+03 0.  0.
        -24    2    3    3    0    0  0.41078772787E+02  0.20461830658E+02  0.10329199220E+03  0.13827314385E+03  0.79649699125E+02 0.  0.
          6    2    1    2  501    0 -0.87945938262E+01 -0.15883228389E+03 -0.16584059747E+03  0.28784090345E+03  0.17333275122E+03 0.  0.
         24    2    5    5    0    0 -0.19657136861E+02 -0.41506788837E+02 -0.21681908156E+01  0.86113331389E+02  0.72812006169E+02 0.  0.
          5    1    5    5  501    0  0.10862543035E+02 -0.11732549505E+03 -0.16367240665E+03  0.20172757206E+03  0.47000000000E+01 0. -1.
        -15    1    6    6    0    0  0.78727140802E+01  0.11578762503E+02  0.18118038190E+02  0.22966680320E+02  0.17770000000E+01 0.  1.
         16    1    6    6    0    0 -0.27529850942E+02 -0.53085551340E+02 -0.20286229006E+02  0.63146651069E+02  0.00000000000E+00 0. -1.
         -5    1    3    3    0  503 -0.32284178961E+02  0.13837045323E+03  0.10658388958E+03  0.17768192384E+03  0.47000000000E+01 0.  1.
         15    1    4    4    0    0  0.60417281463E+02 -0.24376426474E+01  0.80096810909E+02  0.10037353659E+03  0.17770000000E+01 0. -1.
        -16    1    4    4    0    0 -0.19338508676E+02  0.22899473305E+02  0.23195181294E+02  0.37899607263E+02  0.00000000000E+00 0.  1.
<mgrwt>
<rscale>  2 0.23594872E+03</rscale>
<asrwt>0</asrwt>
<pdfrwt beam="1">  1       21 0.49833173E-01 0.23617730E+03</pdfrwt>
<pdfrwt beam="2">  1       21 0.43058514E-01 0.23617730E+03</pdfrwt>
<totfact> 0.19416660E+04</totfact>
</mgrwt>
</event>
<event>
12    2  0.4090627E-002  0.2114612E+03  0.7546771E-02  0.1141746E+00
         21   -1    0    0  501  502  0.00000000000E+00  0.00000000000E+00  0.15685027405E+04  0.15685027405E+04  0.00000000000E+00 0.  1.
         21   -1    0    0  502  503 -0.00000000000E+00 -0.00000000000E+00 -0.36678202500E+02  0.36678202500E+02  0.00000000000E+00 0.  1.
         -6    2    1    2    0  503 -0.10736465253E+03 -0.27977187532E+02  0.37625560526E+03  0.43160646496E+03  0.18001657832E+03 0.  0.
        -24    2    3    3    0    0 -0.13850667478E+03 -0.10441228303E+02  0.22266831206E+03  0.27384562682E+03  0.78212095801E+02 0.  0.
          6    2    1    2  501    0  0.10736465253E+03  0.27977187532E+02  0.11555689327E+04  0.11735744780E+04  0.17212671369E+03 0.  0.
         24    2    5    5    0    0  0.38459963815E+01  0.27717912988E+02  0.31334154589E+03  0.32499611363E+03  0.81587223901E+02 0.  0.
          5    1    5    5  501    0  0.10351865615E+03  0.25927454448E+00  0.84222738682E+03  0.84857836439E+03  0.47000000000E+01 0. -1.
        -15    1    6    6    0    0  0.26396655732E+02 -0.17942439954E+02  0.79756648849E+02  0.85924358305E+02  0.17770000000E+01 0.  1.
         16    1    6    6    0    0 -0.22550659351E+02  0.45660352942E+02  0.23358489704E+03  0.23907175532E+03  0.00000000000E+00 0. -1.
         -5    1    3    3    0  503  0.31142022246E+02 -0.17535959229E+02  0.15358729320E+03  0.15776083814E+03  0.47000000000E+01 0.  1.
         15    1    4    4    0    0 -0.78437869956E+02 -0.22908948391E+02  0.64253207859E+02  0.10396610894E+03  0.17770000000E+01 0. -1.
        -16    1    4    4    0    0 -0.60068804820E+02  0.12467720088E+02  0.15841510420E+03  0.16987951788E+03  0.00000000000E+00 0.  1.
<mgrwt>
<rscale>  2 0.20977243E+03</rscale>
<asrwt>0</asrwt>
<pdfrwt beam="1">  1       21 0.24130806E+00 0.21146125E+03</pdfrwt>
<pdfrwt beam="2">  1       21 0.56428016E-02 0.21146125E+03</pdfrwt>
<totfact> 0.16126818E+04</totfact>
</mgrwt>
</event>
<event>
12    2  0.4090627E-002  0.1841157E+03  0.7546771E-02  0.1164334E+00
         21   -1    0    0  503  502  0.00000000000E+00  0.00000000000E+00  0.31166601259E+03  0.31166601259E+03  0.00000000000E+00 0. -1.
         21   -1    0    0  501  503 -0.00000000000E+00 -0.00000000000E+00 -0.21179663954E+03  0.21179663954E+03  0.00000000000E+00 0. -1.
          6    2    1    2  501    0  0.53902098344E+02  0.17176918173E+02 -0.13375032255E+03  0.22601220735E+03  0.17318165713E+03 0.  0.
         24    2    3    3    0    0  0.26248839472E+02 -0.56615088411E+02 -0.78797419577E+02  0.12982554244E+03  0.82166710580E+02 0.  0.
         -6    2    1    2    0  502 -0.53902098344E+02 -0.17176918173E+02  0.23361969560E+03  0.29745044478E+03  0.17520879602E+03 0.  0.
        -24    2    5    5    0    0 -0.94157485978E+02 -0.27422467601E+02  0.21887177011E+03  0.25312146077E+03  0.80919702528E+02 0.  0.
          5    1    3    3  501    0  0.27653258872E+02  0.73792006584E+02 -0.54952902976E+02  0.96186664915E+02  0.47000000000E+01 0. -1.
        -15    1    4    4    0    0  0.24043814223E+02 -0.18227488504E+02  0.10982899330E+02  0.32157862900E+02  0.17770000000E+01 0.  1.
         16    1    4    4    0    0  0.22050252486E+01 -0.38387599907E+02 -0.89780318908E+02  0.97667679537E+02  0.00000000000E+00 0. -1.
         -5    1    5    5    0  502  0.40255387634E+02  0.10245549427E+02  0.14747925490E+02  0.44328984005E+02  0.47000000000E+01 0.  1.
         15    1    6    6    0    0 -0.40086842655E+02 -0.82297104567E+00  0.17243899503E+03  0.17704800753E+03  0.17770000000E+01 0. -1.
        -16    1    6    6    0    0 -0.54070643322E+02 -0.26599496555E+02  0.46432775084E+02  0.76073453243E+02  0.00000000000E+00 0.  1.
<mgrwt>
<rscale>  2 0.18363183E+03</rscale>
<asrwt>0</asrwt>
<pdfrwt beam="1">  1       21 0.47948617E-01 0.18411574E+03</pdfrwt>
<pdfrwt beam="2">  1       21 0.32584099E-01 0.18411574E+03</pdfrwt>
<totfact> 0.37843923E+04</totfact>
</mgrwt>
</event>
<event>
12    2  0.4090627E-002  0.1982645E+03  0.7546771E-02  0.1151230E+00
         21   -1    0    0  501  502  0.00000000000E+00  0.00000000000E+00  0.82016585421E+03  0.82016585421E+03  0.00000000000E+00 0. -1.
         21   -1    0    0  502  503 -0.00000000000E+00 -0.00000000000E+00 -0.98602999644E+02  0.98602999644E+02  0.00000000000E+00 0. -1.
         -6    2    1    2    0  503 -0.89455387798E+02 -0.40133905870E+02  0.31424383719E+02  0.20073935599E+03  0.17232469452E+03 0.  0.
        -24    2    3    3    0    0 -0.65503492246E+02 -0.40346937476E+02 -0.45394459163E+02  0.12013561349E+03  0.80332595160E+02 0.  0.
          6    2    1    2  501    0  0.89455387798E+02  0.40133905870E+02  0.69013847085E+03  0.71802949787E+03  0.17222733249E+03 0.  0.
         24    2    5    5    0    0  0.28304183313E+01  0.53115648361E+01  0.14743560496E+03  0.16733450841E+03  0.78913598994E+02 0.  0.
          5    1    5    5  501    0  0.86624969467E+02  0.34822341034E+02  0.54270286589E+03  0.55069498946E+03  0.47000000000E+01 0. -1.
        -15    1    6    6    0    0  0.28843303462E+02  0.24039511662E+02  0.11790349655E+03  0.12375066264E+03  0.17770000000E+01 0.  1.
         16    1    6    6    0    0 -0.26012885131E+02 -0.18727946826E+02  0.29532108407E+02  0.43583845771E+02  0.00000000000E+00 0. -1.
         -5    1    3    3    0  503 -0.23951895552E+02  0.21303160561E+00  0.76818842882E+02  0.80603742498E+02  0.47000000000E+01 0.  1.
         15    1    4    4    0    0  0.11836100450E+02 -0.21390274606E+02 -0.30495116749E+02  0.39124761930E+02  0.17770000000E+01 0. -1.
        -16    1    4    4    0    0 -0.77339592697E+02 -0.18956662870E+02 -0.14899342414E+02  0.81010851557E+02  0.00000000000E+00 0.  1.
<mgrwt>
<rscale>  2 0.19824330E+03</rscale>
<asrwt>0</asrwt>
<pdfrwt beam="1">  1       21 0.12617936E+00 0.19826446E+03</pdfrwt>
<pdfrwt beam="2">  1       21 0.15169693E-01 0.19826446E+03</pdfrwt>
<totfact> 0.17840870E+04</totfact>
</mgrwt>
</event>
<event>
12    2  0.4090627E-002  0.2103098E+03  0.7546771E-02  0.1142836E+00
         21   -1    0    0  503  502  0.00000000000E+00  0.00000000000E+00  0.15935486829E+03  0.15935486829E+03  0.00000000000E+00 0. -1.
         21   -1    0    0  501  503 -0.00000000000E+00 -0.00000000000E+00 -0.27567409939E+03  0.27567409939E+03  0.00000000000E+00 0. -1.
          6    2    1    2  501    0  0.92489346783E+02  0.72153309648E+02 -0.96122489713E+02  0.23123528428E+03  0.17455613511E+03 0.  0.
         24    2    3    3    0    0  0.13165801733E+03  0.51525413653E+02 -0.58151126737E+02  0.17272366789E+03  0.80394092628E+02 0.  0.
         -6    2    1    2    0  502 -0.92489346783E+02 -0.72153309648E+02 -0.20196741387E+02  0.20379368341E+03  0.16541939932E+03 0.  0.
        -24    2    5    5    0    0 -0.57335490660E+02  0.13588246789E+02 -0.14410210382E+02  0.11082604365E+03  0.92751058476E+02 0.  0.
          5    1    3    3  501    0 -0.39168670549E+02  0.20627895995E+02 -0.37971362976E+02  0.58511616386E+02  0.47000000000E+01 0. -1.
        -15    1    4    4    0    0  0.65917072094E+02  0.67552618449E+02 -0.26694376427E+02  0.98102824192E+02  0.17770000000E+01 0.  1.
         16    1    4    4    0    0  0.65740945239E+02 -0.16027204796E+02 -0.31456750310E+02  0.74620843701E+02  0.00000000000E+00 0. -1.
         -5    1    5    5    0  502 -0.35153856123E+02 -0.85741556437E+02 -0.57865310049E+01  0.92967639755E+02  0.47000000000E+01 0.  1.
         15    1    6    6    0    0 -0.17601906388E+02 -0.35788663397E+01  0.38467793810E+02  0.42491931968E+02  0.17770000000E+01 0. -1.
        -16    1    6    6    0    0 -0.39733584272E+02  0.17167113129E+02 -0.52878004192E+02  0.68334111684E+02  0.00000000000E+00 0.  1.
<mgrwt>
<rscale>  2 0.20840423E+03</rscale>
<asrwt>0</asrwt>
<pdfrwt beam="1">  1       21 0.24516133E-01 0.21030983E+03</pdfrwt>
<pdfrwt beam="2">  1       21 0.42411400E-01 0.21030983E+03</pdfrwt>
<totfact> 0.83474338E+04</totfact>
</mgrwt>
</event>
<event>
12    2  0.4090627E-002  0.1775279E+03  0.7546771E-02  0.1171099E+00
         21   -1    0    0  503  502  0.00000000000E+00  0.00000000000E+00  0.33789002543E+03  0.33789002543E+03  0.00000000000E+00 0. -1.
         21   -1    0    0  501  503 -0.00000000000E+00 -0.00000000000E+00 -0.24218967141E+03  0.24218967141E+03  0.00000000000E+00 0. -1.
          6    2    1    2  501    0 -0.27946369144E+02  0.14615895696E+02 -0.18116835159E+03  0.25118391131E+03  0.17110453449E+03 0.  0.
         24    2    3    3    0    0 -0.39983977891E+01  0.31584811999E+02 -0.18842739270E+02  0.86159234761E+02  0.77812450016E+02 0.  0.
         -6    2    1    2    0  502  0.27946369144E+02 -0.14615895696E+02  0.27686870561E+03  0.32889578553E+03  0.17470413172E+03 0.  0.
        -24    2    5    5    0    0  0.41078310312E+02  0.34520944135E+02  0.25676342575E+03  0.27400326158E+03  0.79190955242E+02 0.  0.
          5    1    3    3  501    0 -0.23947971355E+02 -0.16968916303E+02 -0.16232561232E+03  0.16502467654E+03  0.47000000000E+01 0. -1.
        -15    1    4    4    0    0 -0.64628876707E+01  0.48795859758E+02  0.12052925311E+02  0.50707352368E+02  0.17770000000E+01 0.  1.
         16    1    4    4    0    0  0.24644898816E+01 -0.17211047760E+02 -0.30895664581E+02  0.35451882393E+02  0.00000000000E+00 0. -1.
         -5    1    5    5    0  502 -0.13131941168E+02 -0.49136839831E+02  0.20105279856E+02  0.54892523950E+02  0.47000000000E+01 0.  1.
         15    1    6    6    0    0 -0.62154591018E+01  0.30381859018E+02  0.18735132609E+03  0.18990883709E+03  0.17770000000E+01 0. -1.
        -16    1    6    6    0    0  0.47293769413E+02  0.41390851168E+01  0.69412099665E+02  0.84094424493E+02  0.00000000000E+00 0.  1.
<mgrwt>
<rscale>  2 0.17663591E+03</rscale>
<asrwt>0</asrwt>
<pdfrwt beam="1">  1       21 0.51983081E-01 0.17752791E+03</pdfrwt>
<pdfrwt beam="2">  1       21 0.37259949E-01 0.17752791E+03</pdfrwt>
<totfact> 0.24614543E+04</totfact>
</mgrwt>
</event>
<event>
12    2  0.4090627E-002  0.2029071E+03  0.7546771E-02  0.1148316E+00
         21   -1    0    0  501  502  0.00000000000E+00  0.00000000000E+00  0.39318479489E+02  0.39318479489E+02  0.00000000000E+00 0. -1.
         21   -1    0    0  502  503 -0.00000000000E+00 -0.00000000000E+00 -0.11462231408E+04  0.11462231408E+04  0.00000000000E+00 0. -1.
         -6    2    1    2    0  503 -0.74108245887E+02 -0.83310960781E+02 -0.75411605483E+03  0.78093681599E+03  0.16952444698E+03 0.  0.
        -24    2    3    3    0    0  0.27992969875E+01  0.25935948047E+01 -0.44138750215E+03  0.44759674867E+03  0.74198110267E+02 0.  0.
          6    2    1    2  501    0  0.74108245887E+02  0.83310960781E+02 -0.35278860645E+03  0.40460480426E+03  0.16374522435E+03 0.  0.
         24    2    5    5    0    0  0.24160952546E+02  0.11163581897E+03 -0.23473312929E+03  0.27324188944E+03  0.80716667770E+02 0.  0.
          5    1    5    5  501    0  0.49947293341E+02 -0.28324858185E+02 -0.11805547716E+03  0.13136291482E+03  0.47000000000E+01 0. -1.
        -15    1    6    6    0    0 -0.20461262647E+01  0.12274245514E+02  0.41152360627E+01  0.13226361271E+02  0.17770000000E+01 0.  1.
         16    1    6    6    0    0  0.26207078811E+02  0.99361573452E+02 -0.23884836535E+03  0.26001552817E+03  0.00000000000E+00 0. -1.
         -5    1    3    3    0  503 -0.76907542874E+02 -0.85904555586E+02 -0.31272855268E+03  0.33334006732E+03  0.47000000000E+01 0.  1.
         15    1    4    4    0    0 -0.10335073288E+02 -0.33897415061E+02 -0.21734227341E+03  0.22021959501E+03  0.17770000000E+01 0. -1.
        -16    1    4    4    0    0  0.13134370275E+02  0.36491009865E+02 -0.22404522874E+03  0.22737715365E+03  0.00000000000E+00 0.  1.
<mgrwt>
<rscale>  2 0.20169554E+03</rscale>
<asrwt>0</asrwt>
<pdfrwt beam="1">  1       21 0.60489976E-02 0.20290709E+03</pdfrwt>
<pdfrwt beam="2">  1       21 0.17634200E+00 0.20290709E+03</pdfrwt>
<totfact> 0.37237094E+04</totfact>
</mgrwt>
</event>
<event>
12    2  0.4090627E-002  0.2252466E+03  0.7546771E-02  0.1130122E+00
         21   -1    0    0  503  502  0.00000000000E+00  0.00000000000E+00  0.17668936050E+03  0.17668936050E+03  0.00000000000E+00 0.  1.
         21   -1    0    0  501  503 -0.00000000000E+00 -0.00000000000E+00 -0.31166640425E+03  0.31166640425E+03  0.00000000000E+00 0.  1.
          6    2    1    2  501    0  0.14324942978E+03 -0.55915316584E+00 -0.13679486374E+03  0.26310183426E+03  0.17317340634E+03 0.  0.
         24    2    3    3    0    0  0.16527605535E+03 -0.23447387931E+02 -0.89085147090E+02  0.20559226474E+03  0.80411823853E+02 0.  0.
         -6    2    1    2    0  502 -0.14324942978E+03  0.55915316584E+00  0.18178199857E+01  0.22525393049E+03  0.17382553595E+03 0.  0.
        -24    2    5    5    0    0 -0.19156870816E+02  0.42518381214E+02  0.75871270156E+01  0.94048309762E+02  0.81318642587E+02 0.  0.
          5    1    3    3  501    0 -0.22026625570E+02  0.22888234766E+02 -0.47709716645E+02  0.57509569526E+02  0.47000000000E+01 0. -1.
        -15    1    4    4    0    0  0.82986123848E+02 -0.34630766258E+02 -0.82897420585E+02  0.12231568498E+03  0.17770000000E+01 0.  1.
         16    1    4    4    0    0  0.82289931499E+02  0.11183378327E+02 -0.61877265053E+01  0.83276579758E+02  0.00000000000E+00 0. -1.
         -5    1    5    5    0  502 -0.12409255896E+03 -0.41959228048E+02 -0.57693070300E+01  0.13120562073E+03  0.47000000000E+01 0.  1.
         15    1    6    6    0    0  0.50459308012E+00  0.10645788350E+02  0.41891345957E+02  0.43262339498E+02  0.17770000000E+01 0. -1.
        -16    1    6    6    0    0 -0.19661463897E+02  0.31872592865E+02 -0.34304218942E+02  0.50785970264E+02  0.00000000000E+00 0.  1.
<mgrwt>
<rscale>  2 0.22512077E+03</rscale>
<asrwt>0</asrwt>
<pdfrwt beam="1">  1       21 0.27182979E-01 0.22524660E+03</pdfrwt>
<pdfrwt beam="2">  1       21 0.47948677E-01 0.22524660E+03</pdfrwt>
<totfact> 0.52826053E+04</totfact>
</mgrwt>
</event>
<event>
12    2  0.4090627E-002  0.2903450E+03  0.7546771E-02  0.1090345E+00
         21   -1    0    0  501  502  0.00000000000E+00  0.00000000000E+00  0.35303660685E+03  0.35303660685E+03  0.00000000000E+00 0. -1.
         21   -1    0    0  502  503 -0.00000000000E+00 -0.00000000000E+00 -0.23834886822E+03  0.23834886822E+03  0.00000000000E+00 0.  1.
         -6    2    1    2    0  503  0.19506388013E+03 -0.12516089307E+03  0.72879701015E+02  0.29804590533E+03  0.17264050619E+03 0.  0.
        -24    2    3    3    0    0  0.10788482474E+03 -0.25695945189E+02  0.92949155092E+02  0.16418651439E+03  0.77577374705E+02 0.  0.
          6    2    1    2  501    0 -0.19506388013E+03  0.12516089307E+03  0.41808037612E+02  0.29333956974E+03  0.17488574750E+03 0.  0.
         24    2    5    5    0    0 -0.14684999679E+03  0.90009162457E+02 -0.38733751459E+02  0.19299370535E+03  0.77972404871E+02 0.  0.
          5    1    5    5  501    0 -0.48213883345E+02  0.35151730612E+02  0.80541789071E+02  0.10034586438E+03  0.47000000000E+01 0. -1.
        -15    1    6    6    0    0 -0.13191356019E+03  0.97938607193E+02 -0.16604085778E+02  0.16514239775E+03  0.17770000000E+01 0.  1.
         16    1    6    6    0    0 -0.14936436595E+02 -0.79294447368E+01 -0.22129665681E+02  0.27851307602E+02  0.00000000000E+00 0. -1.
         -5    1    3    3    0  503  0.87179055395E+02 -0.99464947880E+02 -0.20069454077E+02  0.13385939094E+03  0.47000000000E+01 0.  1.
         15    1    4    4    0    0  0.25183589562E+02 -0.43655605723E+02  0.29613536759E+02  0.58482000501E+02  0.17770000000E+01 0. -1.
        -16    1    4    4    0    0  0.82701235176E+02  0.17959660534E+02  0.63335618333E+02  0.10570451389E+03  0.00000000000E+00 0.  1.
<mgrwt>
<rscale>  2 0.29000766E+03</rscale>
<asrwt>0</asrwt>
<pdfrwt beam="1">  1       21 0.54313324E-01 0.29034495E+03</pdfrwt>
<pdfrwt beam="2">  1       21 0.36669057E-01 0.29034495E+03</pdfrwt>
<totfact> 0.21893397E+04</totfact>
</mgrwt>
</event>
<event>
12    2  0.4090627E-002  0.1743550E+03  0.7546771E-02  0.1173443E+00
         21   -1    0    0  501  502  0.00000000000E+00  0.00000000000E+00  0.15315914738E+03  0.15315914738E+03  0.00000000000E+00 0. -1.
         21   -1    0    0  502  503 -0.00000000000E+00 -0.00000000000E+00 -0.31627655431E+03  0.31627655431E+03  0.00000000000E+00 0. -1.
         -6    2    1    2    0  503 -0.22323606076E+02  0.35353834815E+01 -0.22493478071E+03  0.28444632144E+03  0.17263606774E+03 0.  0.
        -24    2    3    3    0    0  0.52445466303E+02 -0.13258373923E+02 -0.14984322387E+03  0.17705322865E+03  0.77256343553E+02 0.  0.
          6    2    1    2  501    0  0.22323606076E+02 -0.35353834815E+01  0.61817373782E+02  0.18498938025E+03  0.17288389393E+03 0.  0.
         24    2    5    5    0    0 -0.87717931558E+01  0.66260330250E+02  0.26192548138E+02  0.10055251797E+03  0.70408689613E+02 0.  0.
          5    1    5    5  501    0  0.31095399231E+02 -0.69795713731E+02  0.35624825643E+02  0.84436862274E+02  0.47000000000E+01 0. -1.
        -15    1    6    6    0    0 -0.22767876141E+02  0.83002441521E+01 -0.14563124181E+02  0.28328652489E+02  0.17770000000E+01 0.  1.
         16    1    6    6    0    0  0.13996082985E+02  0.57960086098E+02  0.40755672319E+02  0.72223865485E+02  0.00000000000E+00 0. -1.
         -5    1    3    3    0  503 -0.74769072378E+02  0.16793757405E+02 -0.75091556836E+02  0.10739309280E+03  0.47000000000E+01 0.  1.
         15    1    4    4    0    0  0.25596576751E+02 -0.24678759835E+01 -0.14553269593E+03  0.14779782971E+03  0.17770000000E+01 0. -1.
        -16    1    4    4    0    0  0.26848889552E+02 -0.10790497940E+02 -0.43105279442E+01  0.29255398939E+02  0.00000000000E+00 0.  1.
<mgrwt>
<rscale>  2 0.17429358E+03</rscale>
<asrwt>0</asrwt>
<pdfrwt beam="1">  1       21 0.23562946E-01 0.17435505E+03</pdfrwt>
<pdfrwt beam="2">  1       21 0.48657931E-01 0.17435505E+03</pdfrwt>
<totfact> 0.68906538E+04</totfact>
</mgrwt>
</event>
<event>
12    2  0.4090627E-002  0.1954957E+03  0.7546771E-02  0.1153611E+00
         21   -1    0    0  503  502  0.00000000000E+00  0.00000000000E+00  0.98101228846E+02  0.98101228846E+02  0.00000000000E+00 0.  1.
         21   -1    0    0  501  503 -0.00000000000E+00 -0.00000000000E+00 -0.64692962837E+03  0.64692962837E+03  0.00000000000E+00 0. -1.
          6    2    1    2  501    0  0.33232872901E+02  0.82890198503E+02 -0.50939878228E+03  0.54559847109E+03  0.17382566963E+03 0.  0.
         24    2    3    3    0    0  0.46055456280E+02  0.96120755243E+01 -0.13485848373E+03  0.16371285054E+03  0.80009935306E+02 0.  0.
         -6    2    1    2    0  502 -0.33232872901E+02 -0.82890198503E+02 -0.39429617250E+02  0.19943238613E+03  0.17390621918E+03 0.  0.
        -24    2    5    5    0    0 -0.59639127185E+02 -0.10127916893E+02 -0.62060760073E+02  0.11864935254E+03  0.81035367126E+02 0.  0.
          5    1    3    3  501    0 -0.12822583379E+02  0.73278122978E+02 -0.37454029854E+03  0.38188562055E+03  0.47000000000E+01 0. -1.
        -15    1    4    4    0    0 -0.11736209330E+02  0.11624486133E+01  0.43919262383E+01  0.12709706578E+02  0.17770000000E+01 0.  1.
         16    1    4    4    0    0  0.57791665610E+02  0.84496269110E+01 -0.13925040997E+03  0.15100314396E+03  0.00000000000E+00 0. -1.
         -5    1    5    5    0  502  0.26406254284E+02 -0.72762281610E+02  0.22631142823E+02  0.80783033589E+02  0.47000000000E+01 0.  1.
         15    1    6    6    0    0 -0.79717391431E+02 -0.11776499327E+02 -0.45413540352E+02  0.92515381474E+02  0.17770000000E+01 0. -1.
        -16    1    6    6    0    0  0.20078264246E+02  0.16485824343E+01 -0.16647219721E+02  0.26133971065E+02  0.00000000000E+00 0.  1.
<mgrwt>
<rscale>  2 0.19547782E+03</rscale>
<asrwt>0</asrwt>
<pdfrwt beam="1">  1       21 0.15092497E-01 0.19549573E+03</pdfrwt>
<pdfrwt beam="2">  1       21 0.99527633E-01 0.19549573E+03</pdfrwt>
<totfact> 0.32154855E+04</totfact>
</mgrwt>
</event>
<event>
12    2  0.4090627E-002  0.1976394E+03  0.7546771E-02  0.1152404E+00
         21   -1    0    0  503  502  0.00000000000E+00  0.00000000000E+00  0.59459506155E+03  0.59459506155E+03  0.00000000000E+00 0. -1.
         21   -1    0    0  501  503 -0.00000000000E+00 -0.00000000000E+00 -0.80547766450E+02  0.80547766450E+02  0.00000000000E+00 0. -1.
          6    2    1    2  501    0 -0.71073517395E+02  0.54877065367E+02  0.10562225215E+03  0.22141124573E+03  0.17263818352E+03 0.  0.
         24    2    3    3    0    0  0.21735432772E+02  0.34398632106E+02  0.18122608839E+02  0.92139651634E+02  0.80657247185E+02 0.  0.
         -6    2    1    2    0  502  0.71073517395E+02 -0.54877065367E+02  0.40842504295E+03  0.45373158227E+03  0.17606361312E+03 0.  0.
        -24    2    5    5    0    0  0.93449070186E+02  0.53998990687E+00  0.18757810661E+03  0.22489282973E+03  0.81597907287E+02 0.  0.
          5    1    3    3  501    0 -0.92808950168E+02  0.20478433261E+02  0.87499643315E+02  0.12927159410E+03  0.47000000000E+01 0. -1.
        -15    1    4    4    0    0  0.17989152184E+02  0.32637286750E+02 -0.27487937789E+02  0.46341628539E+02  0.17770000000E+01 0.  1.
         16    1    4    4    0    0  0.37462805882E+01  0.17613453561E+01  0.45610546628E+02  0.45798023095E+02  0.00000000000E+00 0. -1.
         -5    1    5    5    0  502 -0.22375552791E+02 -0.55417055274E+02  0.22084693634E+03  0.22883875255E+03  0.47000000000E+01 0.  1.
         15    1    6    6    0    0  0.24442257273E+02  0.37541880866E+02  0.55461244982E+02  0.71315665765E+02  0.17770000000E+01 0. -1.
        -16    1    6    6    0    0  0.69006812913E+02 -0.37001890959E+02  0.13211686163E+03  0.15357716396E+03  0.00000000000E+00 0.  1.
<mgrwt>
<rscale>  2 0.19687365E+03</rscale>
<asrwt>0</asrwt>
<pdfrwt beam="1">  1       21 0.91476160E-01 0.19763940E+03</pdfrwt>
<pdfrwt beam="2">  1       21 0.12391964E-01 0.19763940E+03</pdfrwt>
<totfact> 0.55909718E+04</totfact>
</mgrwt>
</event>
<event>
12    2  0.4090627E-002  0.1828384E+03  0.7546771E-02  0.1165786E+00
         21   -1    0    0  501  502  0.00000000000E+00  0.00000000000E+00  0.17172274391E+03  0.17172274391E+03  0.00000000000E+00 0.  1.
         21   -1    0    0  502  503 -0.00000000000E+00 -0.00000000000E+00 -0.61549983116E+03  0.61549983116E+03  0.00000000000E+00 0.  1.
         -6    2    1    2    0  503 -0.45803534555E+02  0.34962821243E+02 -0.54911101777E+03  0.57875106982E+03  0.17352097373E+03 0.  0.
        -24    2    3    3    0    0  0.36025735755E+02  0.30008802237E+02 -0.38881064193E+03  0.39864312363E+03  0.74459672914E+02 0.  0.
          6    2    1    2  501    0  0.45803534555E+02 -0.34962821243E+02  0.10533393053E+03  0.20847150525E+03  0.17042525908E+03 0.  0.
         24    2    5    5    0    0  0.23011568353E+02 -0.86153900534E+02  0.51345868597E+02  0.13051766536E+03  0.80289699800E+02 0.  0.
          5    1    5    5  501    0  0.22791966202E+02  0.51191079291E+02  0.53988061932E+02  0.77953839890E+02  0.47000000000E+01 0. -1.
        -15    1    6    6    0    0 -0.20811535451E+02 -0.53465755405E+01 -0.57367613577E+01  0.22310850224E+02  0.17770000000E+01 0.  1.
         16    1    6    6    0    0  0.43823103804E+02 -0.80807324993E+02  0.57082629954E+02  0.10820681514E+03  0.00000000000E+00 0. -1.
         -5    1    3    3    0  503 -0.81829270310E+02  0.49540190057E+01 -0.16030037584E+03  0.18010794619E+03  0.47000000000E+01 0.  1.
         15    1    4    4    0    0 -0.10317025158E+02  0.27704279720E+02 -0.63822776935E+02  0.70359595704E+02  0.17770000000E+01 0. -1.
        -16    1    4    4    0    0  0.46342760913E+02  0.23045225169E+01 -0.32498786499E+03  0.32828352792E+03  0.00000000000E+00 0.  1.
<mgrwt>
<rscale>  2 0.18210014E+03</rscale>
<asrwt>0</asrwt>
<pdfrwt beam="1">  1       21 0.26418884E-01 0.18283843E+03</pdfrwt>
<pdfrwt beam="2">  1       21 0.94692281E-01 0.18283843E+03</pdfrwt>
<totfact> 0.12804101E+04</totfact>
</mgrwt>
</event>
<event>
12    2  0.4090627E-002  0.2106268E+03  0.7546771E-02  0.1142380E+00
         21   -1    0    0  501  502  0.00000000000E+00  0.00000000000E+00  0.30168019114E+03  0.30168019114E+03  0.00000000000E+00 0.  1.
         21   -1    0    0  502  503 -0.00000000000E+00 -0.00000000000E+00 -0.22503810761E+03  0.22503810761E+03  0.00000000000E+00 0. -1.
         -6    2    1    2    0  503  0.10682269479E+03  0.13197246669E+02 -0.12151380708E+03  0.23753082562E+03  0.17340712893E+03 0.  0.
        -24    2    3    3    0    0  0.10071121902E+03  0.34578058941E+02 -0.20943913940E+02  0.13442465375E+03  0.79328104782E+02 0.  0.
          6    2    1    2  501    0 -0.10682269479E+03 -0.13197246669E+02  0.19815589062E+03  0.28918747313E+03  0.18104801072E+03 0.  0.
         24    2    5    5    0    0 -0.91259850697E+02  0.56696348139E+02  0.15498851860E+03  0.20544483931E+03  0.81506471291E+02 0.  0.
          5    1    5    5  501    0 -0.15562844091E+02 -0.69893594808E+02  0.43167372027E+02  0.83742633820E+02  0.47000000000E+01 0. -1.
        -15    1    6    6    0    0 -0.14648775766E+01 -0.13664427279E+02  0.44594378484E+02  0.46697738281E+02  0.17770000000E+01 0.  1.
         16    1    6    6    0    0 -0.89794973121E+02  0.70360775418E+02  0.11039414011E+03  0.15874710103E+03  0.00000000000E+00 0. -1.
         -5    1    3    3    0  503  0.61114757639E+01 -0.21380812272E+02 -0.10056989314E+03  0.10310617186E+03  0.47000000000E+01 0.  1.
         15    1    4    4    0    0  0.84117755967E+02  0.30609089327E+02 -0.48643323903E+02  0.10189231525E+03  0.17770000000E+01 0. -1.
        -16    1    4    4    0    0  0.16593463057E+02  0.39689696137E+01  0.27699409963E+02  0.32532338501E+02  0.00000000000E+00 0.  1.
<mgrwt>
<rscale>  2 0.20897481E+03</rscale>
<asrwt>0</asrwt>
<pdfrwt beam="1">  1       21 0.46412337E-01 0.21062677E+03</pdfrwt>
<pdfrwt beam="2">  1       21 0.34621247E-01 0.21062677E+03</pdfrwt>
<totfact> 0.35420576E+04</totfact>
</mgrwt>
</event>
<event>
12    2  0.4090627E-002  0.3556809E+03  0.7546771E-02  0.1060347E+00
         21   -1    0    0  503  502  0.00000000000E+00  0.00000000000E+00  0.84383026836E+03  0.84383026836E+03  0.00000000000E+00 0. -1.
         21   -1    0    0  501  503 -0.00000000000E+00 -0.00000000000E+00 -0.15452388607E+03  0.15452388607E+03  0.00000000000E+00 0.  1.
          6    2    1    2  501    0 -0.30743108713E+03 -0.38893428528E+02  0.25716652148E+03  0.43891171878E+03  0.17459182398E+03 0.  0.
         24    2    3    3    0    0 -0.20912610742E+03 -0.55003912560E+02  0.97894747953E+02  0.25099417151E+03  0.81581451650E+02 0.  0.
         -6    2    1    2    0  502  0.30743108713E+03  0.38893428528E+02  0.43213986081E+03  0.55944243565E+03  0.17379415236E+03 0.  0.
        -24    2    5    5    0    0  0.71176983614E+02  0.37125925174E+02  0.18532579731E+03  0.21774315641E+03  0.81375264657E+02 0.  0.
          5    1    3    3  501    0 -0.98304979707E+02  0.16110484032E+02  0.15927177352E+03  0.18791754727E+03  0.47000000000E+01 0. -1.
        -15    1    4    4    0    0 -0.23047500757E+02 -0.34352099026E+02  0.41452667238E+01  0.41612437610E+02  0.17770000000E+01 0.  1.
         16    1    4    4    0    0 -0.18607860666E+03 -0.20651813534E+02  0.93749481229E+02  0.20938173390E+03  0.00000000000E+00 0. -1.
         -5    1    5    5    0  502  0.23625410351E+03  0.17675033539E+01  0.24681406350E+03  0.34169927925E+03  0.47000000000E+01 0.  1.
         15    1    6    6    0    0  0.66436721317E+02  0.58534740589E+02  0.12220176567E+03  0.15091912754E+03  0.17770000000E+01 0. -1.
        -16    1    6    6    0    0  0.47402622975E+01 -0.21408815415E+02  0.63124031632E+02  0.66824028864E+02  0.00000000000E+00 0.  1.
<mgrwt>
<rscale>  2 0.35558311E+03</rscale>
<asrwt>0</asrwt>
<pdfrwt beam="1">  1       21 0.12982004E+00 0.35568086E+03</pdfrwt>
<pdfrwt beam="2">  1       21 0.23772906E-01 0.35568086E+03</pdfrwt>
<totfact> 0.65818875E+03</totfact>
</mgrwt>
</event>
<event>
12    2  0.4090627E-002  0.1774279E+03  0.7546771E-02  0.1171937E+00
         21   -1    0    0  503  502  0.00000000000E+00  0.00000000000E+00  0.91515268124E+03  0.91515268124E+03  0.00000000000E+00 0. -1.
         21   -1    0    0  501  503 -0.00000000000E+00 -0.00000000000E+00 -0.36447860587E+02  0.36447860587E+02  0.00000000000E+00 0. -1.
          6    2    1    2  501    0 -0.59551664173E+01 -0.72412160948E+01  0.58961692191E+03  0.61573433504E+03  0.17718001448E+03 0.  0.
         24    2    3    3    0    0  0.45374674928E+02 -0.30366745163E+02  0.25019007829E+03  0.27163810595E+03  0.90615589124E+02 0.  0.
         -6    2    1    2    0  502  0.59551664173E+01  0.72412160948E+01  0.28908789874E+03  0.33586620678E+03  0.17072315731E+03 0.  0.
        -24    2    5    5    0    0 -0.40364508861E+02 -0.16446228152E+02  0.26108206266E+03  0.27659543669E+03  0.80258458473E+02 0.  0.
          5    1    3    3  501    0 -0.51329841345E+02  0.23125529068E+02  0.33942684362E+03  0.34409622910E+03  0.47000000000E+01 0. -1.
        -15    1    4    4    0    0 -0.25818843191E+01  0.19650134409E+02  0.11261259701E+02  0.22864111791E+02  0.17770000000E+01 0.  1.
         16    1    4    4    0    0  0.47956559247E+02 -0.50016879572E+02  0.23892881859E+03  0.24877399416E+03  0.00000000000E+00 0. -1.
         -5    1    5    5    0  502  0.46319675278E+02  0.23687444247E+02  0.28005836076E+02  0.59270770091E+02  0.47000000000E+01 0.  1.
         15    1    6    6    0    0 -0.25487445116E+02  0.11186558496E+02  0.22164268361E+02  0.35625292567E+02  0.17770000000E+01 0. -1.
        -16    1    6    6    0    0 -0.14877063745E+02 -0.27632786648E+02  0.23891779430E+03  0.24097014412E+03  0.00000000000E+00 0.  1.
<mgrwt>
<rscale>  2 0.17579358E+03</rscale>
<asrwt>0</asrwt>
<pdfrwt beam="1">  1       21 0.14079270E+00 0.17742789E+03</pdfrwt>
<pdfrwt beam="2">  1       21 0.56073638E-02 0.17742789E+03</pdfrwt>
<totfact> 0.78645816E+04</totfact>
</mgrwt>
</event>
<event>
12    2  0.4090627E-002  0.2156248E+03  0.7546771E-02  0.1137313E+00
         21   -1    0    0  503  502  0.00000000000E+00  0.00000000000E+00  0.60835369630E+03  0.60835369630E+03  0.00000000000E+00 0. -1.
         21   -1    0    0  501  503 -0.00000000000E+00 -0.00000000000E+00 -0.76532418422E+02  0.76532418422E+02  0.00000000000E+00 0.  1.
          6    2    1    2  501    0 -0.88672714950E+02 -0.93169613000E+02  0.24357609564E+03  0.32530502123E+03  0.17306246071E+03 0.  0.
         24    2    3    3    0    0 -0.20635214605E+02  0.16317917765E+02  0.11753746282E+03  0.14495966418E+03  0.80660786946E+02 0.  0.
         -6    2    1    2    0  502  0.88672714950E+02  0.93169613000E+02  0.28824518224E+03  0.35958109350E+03  0.17224938477E+03 0.  0.
        -24    2    5    5    0    0  0.79214694034E+01  0.63144788728E+01  0.18445962467E+03  0.20191654472E+03  0.81500402306E+02 0.  0.
          5    1    3    3  501    0 -0.68037500344E+02 -0.10948753077E+03  0.12603863283E+03  0.18034535705E+03  0.47000000000E+01 0. -1.
        -15    1    4    4    0    0 -0.16929759257E+02  0.38849501727E+02  0.24123783614E+02  0.48795647324E+02  0.17770000000E+01 0.  1.
         16    1    4    4    0    0 -0.37054553489E+01 -0.22531583961E+02  0.93413679201E+02  0.96164016852E+02  0.00000000000E+00 0. -1.
         -5    1    5    5    0  502  0.80751245546E+02  0.86855134127E+02  0.10378555757E+03  0.15766454878E+03  0.47000000000E+01 0.  1.
         15    1    6    6    0    0  0.42291254767E+02  0.10309124520E+02  0.13260015700E+03  0.13957359221E+03  0.17770000000E+01 0. -1.
        -16    1    6    6    0    0 -0.34369785363E+02 -0.39946456471E+01  0.51859467671E+02  0.62342952504E+02  0.00000000000E+00 0.  1.
<mgrwt>
<rscale>  2 0.21546158E+03</rscale>
<asrwt>0</asrwt>
<pdfrwt beam="1">  1       21 0.93592873E-01 0.21562477E+03</pdfrwt>
<pdfrwt beam="2">  1       21 0.11774219E-01 0.21562477E+03</pdfrwt>
<totfact> 0.57592397E+04</totfact>
</mgrwt>
</event>
<event>
12    2  0.4090627E-002  0.2562535E+03  0.7546771E-02  0.1110789E+00
         21   -1    0    0  503  502  0.00000000000E+00  0.00000000000E+00  0.62418740259E+03  0.62418740259E+03  0.00000000000E+00 0.  1.
         21   -1    0    0  501  503 -0.00000000000E+00 -0.00000000000E+00 -0.32951244722E+03  0.32951244722E+03  0.00000000000E+00 0.  1.
          6    2    1    2  501    0 -0.16248910859E+03  0.50776212578E+02 -0.24841311317E+03  0.35689621174E+03  0.19153301800E+03 0.  0.
         24    2    3    3    0    0 -0.64695325944E+02  0.69465632221E+02 -0.49269496122E+02  0.13420092992E+03  0.81064462532E+02 0.  0.
         -6    2    1    2    0  502  0.16248910859E+03 -0.50776212578E+02  0.54308806855E+03  0.59680363807E+03  0.17958006024E+03 0.  0.
        -24    2    5    5    0    0  0.59920266122E+02  0.25688957621E+02  0.34812489286E+03  0.36356552031E+03  0.82088888995E+02 0.  0.
          5    1    3    3  501    0 -0.97793782648E+02 -0.18689419642E+02 -0.19914361705E+03  0.22269528182E+03  0.47000000000E+01 0. -1.
        -15    1    4    4    0    0 -0.35860139831E+02 -0.90122522856E+00 -0.45628684103E+02  0.58068032320E+02  0.17770000000E+01 0.  1.
         16    1    4    4    0    0 -0.28835186114E+02  0.70366857449E+02 -0.36408120193E+01  0.76132897604E+02  0.00000000000E+00 0. -1.
         -5    1    5    5    0  502  0.10256884247E+03 -0.76465170199E+02  0.19496317569E+03  0.23323811776E+03  0.47000000000E+01 0.  1.
         15    1    6    6    0    0 -0.98252491670E+01  0.13391390573E+02  0.13355024908E+02  0.21386427518E+02  0.17770000000E+01 0. -1.
        -16    1    6    6    0    0  0.69745515289E+02  0.12297567048E+02  0.33476986795E+03  0.34217909279E+03  0.00000000000E+00 0.  1.
<mgrwt>
<rscale>  2 0.25402284E+03</rscale>
<asrwt>0</asrwt>
<pdfrwt beam="1">  1       21 0.96028831E-01 0.25625345E+03</pdfrwt>
<pdfrwt beam="2">  1       21 0.50694223E-01 0.25625345E+03</pdfrwt>
<totfact> 0.31882144E+03</totfact>
</mgrwt>
</event>
<event>
12    2  0.4090627E-002  0.2435594E+03  0.7546771E-02  0.1117501E+00
         21   -1    0    0  503  502  0.00000000000E+00  0.00000000000E+00  0.18214374433E+03  0.18214374433E+03  0.00000000000E+00 0. -1.
         21   -1    0    0  501  503 -0.00000000000E+00 -0.00000000000E+00 -0.32792516204E+03  0.32792516204E+03  0.00000000000E+00 0.  1.
          6    2    1    2  501    0 -0.16711928738E+03 -0.40319842767E+02 -0.49788201835E+02  0.24859611463E+03  0.17253004734E+03 0.  0.
         24    2    3    3    0    0 -0.10278889720E+03  0.29949213518E+02 -0.50308222536E+02  0.15321005803E+03  0.97364736174E+02 0.  0.
         -6    2    1    2    0  502  0.16711928738E+03  0.40319842767E+02 -0.95993215881E+02  0.26147279174E+03  0.17204295216E+03 0.  0.
        -24    2    5    5    0    0  0.15405929050E+02  0.10767132292E+02 -0.62425688098E+01  0.82678008696E+02  0.80270851926E+02 0.  0.
          5    1    3    3  501    0 -0.64330390186E+02 -0.70269056285E+02  0.52002070043E+00  0.95386056603E+02  0.47000000000E+01 0. -1.
        -15    1    4    4    0    0 -0.93992689665E+02  0.19496222565E+02 -0.77100601701E+02  0.12313565250E+03  0.17770000000E+01 0.  1.
         16    1    4    4    0    0 -0.87962075304E+01  0.10452990953E+02  0.26792379165E+02  0.30074405532E+02  0.00000000000E+00 0. -1.
         -5    1    5    5    0  502  0.15171335833E+03  0.29552710475E+02 -0.89750647071E+02  0.17879478304E+03  0.47000000000E+01 0.  1.
         15    1    6    6    0    0  0.21827641120E+02 -0.24799017123E+02  0.19410120843E+02  0.38358150206E+02  0.17770000000E+01 0. -1.
        -16    1    6    6    0    0 -0.64217120698E+01  0.35566149415E+02 -0.25652689653E+02  0.44319858489E+02  0.00000000000E+00 0.  1.
<mgrwt>
<rscale>  2 0.24347312E+03</rscale>
<asrwt>0</asrwt>
<pdfrwt beam="1">  1       21 0.28022114E-01 0.24355936E+03</pdfrwt>
<pdfrwt beam="2">  1       21 0.50450025E-01 0.24355936E+03</pdfrwt>
<totfact> 0.44432656E+04</totfact>
</mgrwt>
</event>
<event>
12    2  0.4090627E-002  0.2264502E+03  0.7546771E-02  0.1129308E+00
         21   -1    0    0  501  502  0.00000000000E+00  0.00000000000E+00  0.14884037325E+03  0.14884037325E+03  0.00000000000E+00 0.  1.
         21   -1    0    0  502  503 -0.00000000000E+00 -0.00000000000E+00 -0.46243376801E+03  0.46243376801E+03  0.00000000000E+00 0.  1.
         -6    2    1    2    0  503 -0.71626322688E+02 -0.12682959204E+03 -0.31171673438E+03  0.38481618622E+03  0.17233716709E+03 0.  0.
        -24    2    3    3    0    0 -0.30556395748E+02 -0.19341282026E+02 -0.22158181581E+03  0.23857368476E+03  0.80691532683E+02 0.  0.
          6    2    1    2  501    0  0.71626322688E+02  0.12682959204E+03 -0.18766603743E+01  0.22645795504E+03  0.17338860409E+03 0.  0.
         24    2    5    5    0    0 -0.28083076945E+02  0.43980917083E+02  0.89324765293E+01  0.96285781523E+02  0.80425010466E+02 0.  0.
          5    1    5    5  501    0  0.99709399633E+02  0.82848674959E+02 -0.10809136904E+02  0.13017217352E+03  0.47000000000E+01 0. -1.
        -15    1    6    6    0    0 -0.21957975401E+02  0.61067633000E+02  0.27333031304E+02  0.70439057441E+02  0.17770000000E+01 0.  1.
         16    1    6    6    0    0 -0.61251015432E+01 -0.17086715917E+02 -0.18400554775E+02  0.25846724082E+02  0.00000000000E+00 0. -1.
         -5    1    3    3    0  503 -0.41069926940E+02 -0.10748831002E+03 -0.90134918569E+02  0.14624250146E+03  0.47000000000E+01 0.  1.
         15    1    4    4    0    0  0.12104392224E+02 -0.35870562195E+02 -0.62972013784E+02  0.73497250237E+02  0.17770000000E+01 0. -1.
        -16    1    4    4    0    0 -0.42660787972E+02  0.16529280169E+02 -0.15860980203E+03  0.16507643452E+03  0.00000000000E+00 0.  1.
<mgrwt>
<rscale>  2 0.22624890E+03</rscale>
<asrwt>0</asrwt>
<pdfrwt beam="1">  1       21 0.22898519E-01 0.22645018E+03</pdfrwt>
<pdfrwt beam="2">  1       21 0.71143656E-01 0.22645018E+03</pdfrwt>
<totfact> 0.31431779E+04</totfact>
</mgrwt>
</event>
<event>
12    2  0.4090627E-002  0.2199618E+03  0.7546771E-02  0.1133912E+00
         21   -1    0    0  501  502  0.00000000000E+00  0.00000000000E+00  0.50200155696E+03  0.50200155696E+03  0.00000000000E+00 0. -1.
         21   -1    0    0  502  503 -0.00000000000E+00 -0.00000000000E+00 -0.16866069410E+03  0.16866069410E+03  0.00000000000E+00 0.  1.
         -6    2    1    2    0  503  0.10790876148E+03 -0.79981490767E+02 -0.52850987201E+02  0.22622177541E+03  0.17418876299E+03 0.  0.
        -24    2    3    3    0    0  0.10402808280E+03 -0.85169090485E+02  0.15292088154E+02  0.15761026343E+03  0.80817889055E+02 0.  0.
          6    2    1    2  501    0 -0.10790876148E+03  0.79981490767E+02  0.38619185007E+03  0.44444047565E+03  0.17418912616E+03 0.  0.
         24    2    5    5    0    0 -0.66174876442E+02 -0.23702289140E+02  0.15838733352E+03  0.19065113164E+03  0.79500904352E+02 0.  0.
          5    1    5    5  501    0 -0.41733885040E+02  0.10368377991E+03  0.22780451655E+03  0.25378934402E+03  0.47000000000E+01 0. -1.
        -15    1    6    6    0    0 -0.64366362778E+02 -0.13651005953E+02  0.52291978122E+02  0.84065375308E+02  0.17770000000E+01 0.  1.
         16    1    6    6    0    0 -0.18085136633E+01 -0.10051283187E+02  0.10609535540E+03  0.10658575633E+03  0.00000000000E+00 0. -1.
         -5    1    3    3    0  503  0.38806786796E+01  0.51875997182E+01 -0.68143075355E+02  0.68611511984E+02  0.47000000000E+01 0.  1.
         15    1    4    4    0    0  0.11765085530E+02 -0.57048964620E+02 -0.67630652826E+01  0.58667694541E+02  0.17770000000E+01 0. -1.
        -16    1    4    4    0    0  0.92262997272E+02 -0.28120125865E+02  0.22055153437E+02  0.98942568884E+02  0.00000000000E+00 0.  1.
<mgrwt>
<rscale>  2 0.21996172E+03</rscale>
<asrwt>0</asrwt>
<pdfrwt beam="1">  1       21 0.77231008E-01 0.21996180E+03</pdfrwt>
<pdfrwt beam="2">  1       21 0.25947799E-01 0.21996180E+03</pdfrwt>
<totfact> 0.20669917E+04</totfact>
</mgrwt>
</event>
<event>
12    2  0.4090627E-002  0.2134516E+03  0.7546771E-02  0.1139010E+00
         21   -1    0    0  503  502  0.00000000000E+00  0.00000000000E+00  0.11238036564E+03  0.11238036564E+03  0.00000000000E+00 0.  1.
         21   -1    0    0  501  503 -0.00000000000E+00 -0.00000000000E+00 -0.58471149155E+03  0.58471149155E+03  0.00000000000E+00 0. -1.
          6    2    1    2  501    0 -0.10955454266E+03 -0.58569773500E+02 -0.42965663961E+03  0.47941623261E+03  0.17263394784E+03 0.  0.
         24    2    3    3    0    0 -0.12909828774E+03 -0.17145118041E+02 -0.24562612882E+03  0.28971309887E+03  0.81493321986E+02 0.  0.
         -6    2    1    2    0  502  0.10955454266E+03  0.58569773500E+02 -0.42674486302E+02  0.21767562458E+03  0.17357692695E+03 0.  0.
        -24    2    5    5    0    0  0.40896739206E+01  0.36691483435E+02 -0.53383749901E+02  0.10933229787E+03  0.87981453815E+02 0.  0.
          5    1    3    3  501    0  0.19543745074E+02 -0.41424655459E+02 -0.18403051078E+03  0.18970313374E+03  0.47000000000E+01 0. -1.
        -15    1    4    4    0    0 -0.41582599723E+02 -0.36445935189E+02 -0.50138947398E+02  0.74662511120E+02  0.17770000000E+01 0.  1.
         16    1    4    4    0    0 -0.87515688016E+02  0.19300817148E+02 -0.19548718143E+03  0.21505058775E+03  0.00000000000E+00 0. -1.
         -5    1    5    5    0  502  0.10546486874E+03  0.21878290066E+02  0.10709263599E+02  0.10834332671E+03  0.47000000000E+01 0.  1.
         15    1    6    6    0    0 -0.35425653839E+02 -0.47633906986E+01 -0.90726636686E+01  0.36920696037E+02  0.17770000000E+01 0. -1.
        -16    1    6    6    0    0  0.39515327759E+02  0.41454874133E+02 -0.44311086233E+02  0.72411601836E+02  0.00000000000E+00 0.  1.
<mgrwt>
<rscale>  2 0.21325977E+03</rscale>
<asrwt>0</asrwt>
<pdfrwt beam="1">  1       21 0.17289287E-01 0.21345155E+03</pdfrwt>
<pdfrwt beam="2">  1       21 0.89955615E-01 0.21345155E+03</pdfrwt>
<totfact> 0.31446323E+04</totfact>
</mgrwt>
</event>
<event>
12    2  0.4090627E-002  0.1923401E+03  0.7546771E-02  0.1156563E+00
         21   -1    0    0  503  502  0.00000000000E+00  0.00000000000E+00  0.17158804014E+04  0.17158804014E+04  0.00000000000E+00 0.  1.
         21   -1    0    0  501  503 -0.00000000000E+00 -0.00000000000E+00 -0.24982189821E+02  0.24982189821E+02  0.00000000000E+00 0.  1.
          6    2    1    2  501    0 -0.64018078111E+02 -0.49875058387E+02  0.51703190284E+03  0.55134301850E+03  0.17341078317E+03 0.  0.
         24    2    3    3    0    0  0.12606157065E+02 -0.59093353803E+02  0.20021576363E+03  0.22522830486E+03  0.83609195941E+02 0.  0.
         -6    2    1    2    0  502  0.64018078111E+02  0.49875058387E+02  0.11738663087E+04  0.11895195727E+04  0.17438138468E+03 0.  0.
        -24    2    5    5    0    0  0.15831914190E-02 -0.24611552237E+02  0.38995483504E+03  0.39946536231E+03  0.83078720575E+02 0.  0.
          5    1    3    3  501    0 -0.76624235176E+02  0.92182954160E+01  0.31681613921E+03  0.32611471364E+03  0.47000000000E+01 0. -1.
        -15    1    4    4    0    0  0.36576381913E+02  0.26954502081E+01  0.65400725854E+02  0.75003398835E+02  0.17770000000E+01 0.  1.
         16    1    4    4    0    0 -0.23970224848E+02 -0.61788804011E+02  0.13481503777E+03  0.15022490603E+03  0.00000000000E+00 0. -1.
         -5    1    5    5    0  502  0.64016494919E+02  0.74486610625E+02  0.78391147370E+03  0.79005421041E+03  0.47000000000E+01 0.  1.
         15    1    6    6    0    0  0.35663605752E+02 -0.33859547174E+02  0.19944857306E+03  0.20542943493E+03  0.17770000000E+01 0. -1.
        -16    1    6    6    0    0 -0.35662022561E+02  0.92479949367E+01  0.19050626197E+03  0.19403592738E+03  0.00000000000E+00 0.  1.
<mgrwt>
<rscale>  2 0.19211981E+03</rscale>
<asrwt>0</asrwt>
<pdfrwt beam="1">  1       21 0.26398151E+00 0.19234007E+03</pdfrwt>
<pdfrwt beam="2">  1       21 0.38434152E-02 0.19234007E+03</pdfrwt>
<totfact> 0.23086954E+04</totfact>
</mgrwt>
</event>
<event>
12    2  0.4090627E-002  0.2109329E+03  0.7546771E-02  0.1140969E+00
         21   -1    0    0  501  502  0.00000000000E+00  0.00000000000E+00  0.75602442289E+03  0.75602442289E+03  0.00000000000E+00 0.  1.
         21   -1    0    0  502  503 -0.00000000000E+00 -0.00000000000E+00 -0.58654072319E+02  0.58654072319E+02  0.00000000000E+00 0.  1.
         -6    2    1    2    0  503  0.59793117366E+02 -0.10467039446E+03  0.34632840974E+03  0.40513834112E+03  0.17222833592E+03 0.  0.
        -24    2    3    3    0    0  0.10761202991E+03 -0.78003157164E+02  0.25416537332E+03  0.29783547432E+03  0.80256409470E+02 0.  0.
          6    2    1    2  501    0 -0.59793117366E+02  0.10467039446E+03  0.35104194083E+03  0.40954015409E+03  0.17309415134E+03 0.  0.
         24    2    5    5    0    0  0.32017809011E+02  0.70908571566E+02  0.21497472949E+03  0.24189325465E+03  0.79025607958E+02 0.  0.
          5    1    5    5  501    0 -0.91810926377E+02  0.33761822891E+02  0.13606721135E+03  0.16764689944E+03  0.47000000000E+01 0. -1.
        -15    1    6    6    0    0  0.47836714891E+02  0.49699229154E+02  0.86143750418E+02  0.11037331260E+03  0.17770000000E+01 0.  1.
         16    1    6    6    0    0 -0.15818905879E+02  0.21209342412E+02  0.12883097907E+03  0.13151994205E+03  0.00000000000E+00 0. -1.
         -5    1    3    3    0  503 -0.47818912540E+02 -0.26667237294E+02  0.92163036416E+02  0.10730286680E+03  0.47000000000E+01 0.  1.
         15    1    4    4    0    0  0.77000944601E+02 -0.49261662046E+02  0.89654716309E+02  0.12805070364E+03  0.17770000000E+01 0. -1.
        -16    1    4    4    0    0  0.30611085305E+02 -0.28741495118E+02  0.16451065702E+03  0.16978477069E+03  0.00000000000E+00 0.  1.
<mgrwt>
<rscale>  2 0.21075521E+03</rscale>
<asrwt>0</asrwt>
<pdfrwt beam="1">  1       21 0.11631144E+00 0.21093291E+03</pdfrwt>
<pdfrwt beam="2">  1       21 0.90237039E-02 0.21093291E+03</pdfrwt>
<totfact> 0.54932441E+04</totfact>
</mgrwt>
</event>
<event>
12    2  0.4090627E-002  0.2348848E+03  0.7546771E-02  0.1123406E+00
         21   -1    0    0  503  502  0.00000000000E+00  0.00000000000E+00  0.24032384203E+03  0.24032384203E+03  0.00000000000E+00 0. -1.
         21   -1    0    0  501  503 -0.00000000000E+00 -0.00000000000E+00 -0.26350019023E+03  0.26350019023E+03  0.00000000000E+00 0. -1.
          6    2    1    2  501    0 -0.15702048253E+03 -0.78487253116E+01  0.80020227908E+02  0.24726916629E+03  0.17326791191E+03 0.  0.
         24    2    3    3    0    0 -0.31311352485E+02 -0.19818523188E+02 -0.13861894862E+02  0.89846155218E+02  0.80666007850E+02 0.  0.
         -6    2    1    2    0  502  0.15702048253E+03  0.78487253116E+01 -0.10319657611E+03  0.25655486598E+03  0.17451026192E+03 0.  0.
        -24    2    5    5    0    0  0.11406477439E+03  0.12710607630E+02  0.47225338267E+01  0.14020429636E+03  0.80390360677E+02 0.  0.
          5    1    3    3  501    0 -0.12570913004E+03  0.11969797877E+02  0.93882122770E+02  0.15742301107E+03  0.47000000000E+01 0. -1.
        -15    1    4    4    0    0  0.20103547860E+02  0.15229853354E+02 -0.10952107759E+02  0.27553719588E+02  0.17770000000E+01 0.  1.
         16    1    4    4    0    0 -0.51414900345E+02 -0.35048376543E+02 -0.29097871027E+01  0.62292435630E+02  0.00000000000E+00 0. -1.
         -5    1    5    5    0  502  0.42955708140E+02 -0.48618823180E+01 -0.10791910994E+03  0.11635056962E+03  0.47000000000E+01 0.  1.
         15    1    6    6    0    0  0.72129648324E+02 -0.88724967361E+01 -0.32977052109E+02  0.79825128001E+02  0.17770000000E+01 0. -1.
        -16    1    6    6    0    0  0.41935126065E+02  0.21583104366E+02  0.37699585935E+02  0.60379168360E+02  0.00000000000E+00 0.  1.
<mgrwt>
<rscale>  2 0.23465407E+03</rscale>
<asrwt>0</asrwt>
<pdfrwt beam="1">  1       21 0.36972898E-01 0.23488479E+03</pdfrwt>
<pdfrwt beam="2">  1       21 0.40538491E-01 0.23488479E+03</pdfrwt>
<totfact> 0.40529247E+04</totfact>
</mgrwt>
</event>
<event>
12    2  0.4090627E-002  0.1897014E+03  0.7546771E-02  0.1159081E+00
         21   -1    0    0  503  502  0.00000000000E+00  0.00000000000E+00  0.38296557350E+03  0.38296557350E+03  0.00000000000E+00 0.  1.
         21   -1    0    0  501  503 -0.00000000000E+00 -0.00000000000E+00 -0.48256997967E+03  0.48256997967E+03  0.00000000000E+00 0. -1.
          6    2    1    2  501    0 -0.47561268281E+02 -0.55681323680E+02 -0.43849657706E+03  0.47716136610E+03  0.17332408130E+03 0.  0.
         24    2    3    3    0    0  0.50432969001E+01 -0.75331940758E+01 -0.96568560212E+02  0.12784440206E+03  0.83285775852E+02 0.  0.
         -6    2    1    2    0  502  0.47561268281E+02  0.55681323680E+02  0.33889217089E+03  0.38837418706E+03  0.17499749039E+03 0.  0.
        -24    2    5    5    0    0 -0.32373074620E+02  0.49135958446E+02  0.24545018209E+03  0.26514336197E+03  0.81196380094E+02 0.  0.
          5    1    3    3  501    0 -0.52604565182E+02 -0.48148129604E+02 -0.34192801685E+03  0.34931696404E+03  0.47000000000E+01 0. -1.
        -15    1    4    4    0    0  0.28411595225E+02  0.28475509793E+02 -0.54307126887E+02  0.67605437362E+02  0.17770000000E+01 0.  1.
         16    1    4    4    0    0 -0.23368298324E+02 -0.36008703869E+02 -0.42261433325E+02  0.60238964695E+02  0.00000000000E+00 0. -1.
         -5    1    5    5    0  502  0.79934342902E+02  0.65453652337E+01  0.93441988802E+02  0.12323082509E+03  0.47000000000E+01 0.  1.
         15    1    6    6    0    0 -0.12620658114E+02  0.36020902039E+02  0.30500367928E+02  0.48889841150E+02  0.17770000000E+01 0. -1.
        -16    1    6    6    0    0 -0.19752416506E+02  0.13115056407E+02  0.21494981416E+03  0.21625352082E+03  0.00000000000E+00 0.  1.
<mgrwt>
<rscale>  2 0.18931453E+03</rscale>
<asrwt>0</asrwt>
<pdfrwt beam="1">  1       21 0.58917780E-01 0.18970136E+03</pdfrwt>
<pdfrwt beam="2">  1       21 0.74241535E-01 0.18970136E+03</pdfrwt>
<totfact> 0.43924656E+03</totfact>
</mgrwt>
</event>
<event>
12    2  0.4090627E-002  0.2069049E+03  0.7546771E-02  0.1144417E+00
         21   -1    0    0  503  502  0.00000000000E+00  0.00000000000E+00  0.10250252980E+03  0.10250252980E+03  0.00000000000E+00 0. -1.
         21   -1    0    0  501  503 -0.00000000000E+00 -0.00000000000E+00 -0.42077869247E+03  0.42077869247E+03  0.00000000000E+00 0. -1.
          6    2    1    2  501    0  0.85607776390E+02 -0.71837512057E+02 -0.12501079162E+03  0.24015375973E+03  0.17192094339E+03 0.  0.
         24    2    3    3    0    0  0.77785098472E+02 -0.20575014675E+00 -0.19260468583E+02  0.11210094084E+03  0.78390633433E+02 0.  0.
         -6    2    1    2    0  502 -0.85607776390E+02  0.71837512057E+02 -0.19326537106E+03  0.28312746254E+03  0.17412735821E+03 0.  0.
        -24    2    5    5    0    0 -0.54147473593E+02  0.28651426669E+02 -0.22269715270E+02  0.10391699153E+03  0.80931747558E+02 0.  0.
          5    1    3    3  501    0  0.78226779175E+01 -0.71631761910E+02 -0.10575032303E+03  0.12805281889E+03  0.47000000000E+01 0. -1.
        -15    1    4    4    0    0  0.23783633720E+02  0.36362609801E+02  0.19229224606E+01  0.43528794887E+02  0.17770000000E+01 0.  1.
         16    1    4    4    0    0  0.54001464752E+02 -0.36568359948E+02 -0.21183391044E+02  0.68572145954E+02  0.00000000000E+00 0. -1.
         -5    1    5    5    0  502 -0.31460302797E+02  0.43186085387E+02 -0.17099565579E+03  0.17921047101E+03  0.47000000000E+01 0.  1.
         15    1    6    6    0    0  0.16730571855E+02  0.22732711166E+02  0.29918191850E+01  0.28439354820E+02  0.17770000000E+01 0. -1.
        -16    1    6    6    0    0 -0.70878045447E+02  0.59187155037E+01 -0.25261534455E+02  0.75477636706E+02  0.00000000000E+00 0.  1.
<mgrwt>
<rscale>  2 0.20644003E+03</rscale>
<asrwt>0</asrwt>
<pdfrwt beam="1">  1       21 0.15769620E-01 0.20690495E+03</pdfrwt>
<pdfrwt beam="2">  1       21 0.64735185E-01 0.20690495E+03</pdfrwt>
<totfact> 0.78244577E+04</totfact>
</mgrwt>
</event>
<event>
12    2  0.4090627E-002  0.1889796E+03  0.7546771E-02  0.1160055E+00
         21   -1    0    0  503  502  0.00000000000E+00  0.00000000000E+00  0.37500405252E+03  0.37500405252E+03  0.00000000000E+00 0.  1.
         21   -1    0    0  501  503 -0.00000000000E+00 -0.00000000000E+00 -0.93765135316E+02  0.93765135316E+02  0.00000000000E+00 0.  1.
          6    2    1    2  501    0 -0.45363313387E+01  0.67592164963E+02  0.13889584828E+03  0.23217919462E+03  0.17327966608E+03 0.  0.
         24    2    3    3    0    0 -0.17822841552E+02  0.11184037075E+03  0.11233099011E+03  0.17867950528E+03  0.80512061567E+02 0.  0.
         -6    2    1    2    0  502  0.45363313387E+01 -0.67592164963E+02  0.14234306892E+03  0.23658999322E+03  0.17641994376E+03 0.  0.
        -24    2    5    5    0    0 -0.53506501600E+02  0.56256906025E+01  0.81723129898E+02  0.12511492051E+03  0.77977427919E+02 0.  0.
          5    1    3    3  501    0  0.13286510213E+02 -0.44248205790E+02  0.26564858174E+02  0.53499689337E+02  0.47000000000E+01 0. -1.
        -15    1    4    4    0    0 -0.50852459042E+01  0.45814257905E+02  0.10025717660E+03  0.11036061409E+03  0.17770000000E+01 0.  1.
         16    1    4    4    0    0 -0.12737595648E+02  0.66026112848E+02  0.12073813504E+02  0.68318891189E+02  0.00000000000E+00 0. -1.
         -5    1    5    5    0  502  0.58042832939E+02 -0.73217855565E+02  0.60619939027E+02  0.11147507272E+03  0.47000000000E+01 0.  1.
         15    1    6    6    0    0 -0.20685331754E+02 -0.52180434705E+01 -0.12473676425E+02  0.24776223683E+02  0.17770000000E+01 0. -1.
        -16    1    6    6    0    0 -0.32821169846E+02  0.10843734073E+02  0.94196806323E+02  0.10033869682E+03  0.00000000000E+00 0.  1.
<mgrwt>
<rscale>  2 0.18824323E+03</rscale>
<asrwt>0</asrwt>
<pdfrwt beam="1">  1       21 0.57692931E-01 0.18897956E+03</pdfrwt>
<pdfrwt beam="2">  1       21 0.14425406E-01 0.18897956E+03</pdfrwt>
<totfact> 0.11884103E+05</totfact>
</mgrwt>
</event>
<event>
12    2  0.4090627E-002  0.1807545E+03  0.7546771E-02  0.1167469E+00
         21   -1    0    0  501  502  0.00000000000E+00  0.00000000000E+00  0.10327952136E+04  0.10327952136E+04  0.00000000000E+00 0.  1.
         21   -1    0    0  502  503 -0.00000000000E+00 -0.00000000000E+00 -0.54689422973E+02  0.54689422973E+02  0.00000000000E+00 0.  1.
         -6    2    1    2    0  503  0.32036856258E+02  0.33394547741E+02  0.13257723665E+03  0.22285133779E+03  0.17304461592E+03 0.  0.
        -24    2    3    3    0    0  0.54369592980E+01  0.79914701835E+02  0.12749956575E+03  0.16881845894E+03  0.76338802162E+02 0.  0.
          6    2    1    2  501    0 -0.32036856258E+02 -0.33394547741E+02  0.84552855398E+03  0.86463329878E+03  0.17473022005E+03 0.  0.
         24    2    5    5    0    0 -0.47273238063E+02  0.42051902690E+02  0.42632845337E+03  0.43839964390E+03  0.80219549085E+02 0.  0.
          5    1    5    5  501    0  0.15236381805E+02 -0.75446450431E+02  0.41920010060E+03  0.42623365489E+03  0.47000000000E+01 0. -1.
        -15    1    6    6    0    0 -0.30987120226E+02  0.29713568594E+02  0.74686181590E+02  0.86164268858E+02  0.17770000000E+01 0.  1.
         16    1    6    6    0    0 -0.16286117837E+02  0.12338334096E+02  0.35164227178E+03  0.35223537504E+03  0.00000000000E+00 0. -1.
         -5    1    3    3    0  503  0.26599896960E+02 -0.46520154094E+02  0.50776708979E+01  0.54032878851E+02  0.47000000000E+01 0.  1.
         15    1    4    4    0    0  0.32134098543E+02  0.76268710372E+02  0.10505152794E+03  0.13374788867E+03  0.17770000000E+01 0. -1.
        -16    1    4    4    0    0 -0.26697139245E+02  0.36459914622E+01  0.22448037809E+02  0.35070570270E+02  0.00000000000E+00 0.  1.
<mgrwt>
<rscale>  2 0.18034594E+03</rscale>
<asrwt>0</asrwt>
<pdfrwt beam="1">  1       21 0.15889156E+00 0.18075455E+03</pdfrwt>
<pdfrwt beam="2">  1       21 0.84137581E-02 0.18075455E+03</pdfrwt>
<totfact> 0.28402707E+04</totfact>
</mgrwt>
</event>
<event>
12    2  0.4090627E-002  0.1815895E+03  0.7546771E-02  0.1166488E+00
         21   -1    0    0  501  502  0.00000000000E+00  0.00000000000E+00  0.96286353905E+02  0.96286353905E+02  0.00000000000E+00 0.  1.
         21   -1    0    0  502  503 -0.00000000000E+00 -0.00000000000E+00 -0.50021918451E+03  0.50021918451E+03  0.00000000000E+00 0.  1.
         -6    2    1    2    0  503  0.45102146238E+02 -0.32536808265E+02 -0.37001147725E+03  0.41177487844E+03  0.17192210367E+03 0.  0.
        -24    2    3    3    0    0  0.84196456616E+02 -0.52294539852E+02 -0.32429859813E+03  0.34828873524E+03  0.79446209098E+02 0.  0.
          6    2    1    2  501    0 -0.45102146238E+02  0.32536808265E+02 -0.33921353355E+02  0.18473065997E+03  0.17286385115E+03 0.  0.
         24    2    5    5    0    0 -0.16368804404E+02 -0.17838709862E+02  0.37101161631E+02  0.92917886383E+02  0.81676680199E+02 0.  0.
          5    1    5    5  501    0 -0.28733341834E+02  0.50375518127E+02 -0.71022514986E+02  0.91812773591E+02  0.47000000000E+01 0. -1.
        -15    1    6    6    0    0 -0.28487726078E+02  0.26599257921E+02  0.14636369012E+02  0.41670758164E+02  0.17770000000E+01 0.  1.
         16    1    6    6    0    0  0.12118921674E+02 -0.44437967783E+02  0.22464792619E+02  0.51247128219E+02  0.00000000000E+00 0. -1.
         -5    1    3    3    0  503 -0.39094310378E+02  0.19757731588E+02 -0.45712879120E+02  0.63486143203E+02  0.47000000000E+01 0.  1.
         15    1    4    4    0    0 -0.14545453709E+02 -0.89594106382E+01 -0.69914349903E+02  0.71993161578E+02  0.17770000000E+01 0. -1.
        -16    1    4    4    0    0  0.98741910325E+02 -0.43335129214E+02 -0.25438424823E+03  0.27629557366E+03  0.00000000000E+00 0.  1.
<mgrwt>
<rscale>  2 0.18136505E+03</rscale>
<asrwt>0</asrwt>
<pdfrwt beam="1">  1       21 0.14813285E-01 0.18158953E+03</pdfrwt>
<pdfrwt beam="2">  1       21 0.76956799E-01 0.18158953E+03</pdfrwt>
<totfact> 0.60538601E+04</totfact>
</mgrwt>
</event>
<event>
12    2  0.4090627E-002  0.1912077E+03  0.7546771E-02  0.1157514E+00
         21   -1    0    0  501  502  0.00000000000E+00  0.00000000000E+00  0.23551078321E+02  0.23551078321E+02  0.00000000000E+00 0. -1.
         21   -1    0    0  502  503 -0.00000000000E+00 -0.00000000000E+00 -0.17046964091E+04  0.17046964091E+04  0.00000000000E+00 0. -1.
         -6    2    1    2    0  503  0.44223587710E+02 -0.68326853441E+02 -0.11018274814E+04  0.11181904626E+04  0.17234218052E+03 0.  0.
        -24    2    3    3    0    0  0.23192551054E+02 -0.11213913331E+03 -0.84695259445E+03  0.85868108245E+03  0.83014603934E+02 0.  0.
          6    2    1    2  501    0 -0.44223587710E+02  0.68326853441E+02 -0.57931784940E+03  0.61005702488E+03  0.17302057207E+03 0.  0.
         24    2    5    5    0    0 -0.34183095735E+02  0.25810338400E+02 -0.54936392702E+03  0.55688002801E+03  0.80498345822E+02 0.  0.
          5    1    5    5  501    0 -0.10040491975E+02  0.42516515041E+02 -0.29953922380E+02  0.53176996872E+02  0.47000000000E+01 0. -1.
        -15    1    6    6    0    0 -0.26816745742E+02  0.46844340543E+02 -0.49760129887E+03  0.50052346645E+03  0.17770000000E+01 0.  1.
         16    1    6    6    0    0 -0.73663499929E+01 -0.21034002143E+02 -0.51762628144E+02  0.56356561559E+02  0.00000000000E+00 0. -1.
         -5    1    3    3    0  503  0.21031036656E+02  0.43812279865E+02 -0.25487488695E+03  0.25950938012E+03  0.47000000000E+01 0.  1.
         15    1    4    4    0    0  0.16424120274E+02 -0.50720542099E+02 -0.65181651222E+03  0.65399560277E+03  0.17770000000E+01 0. -1.
        -16    1    4    4    0    0  0.67684307803E+01 -0.61418591207E+02 -0.19513608224E+03  0.20468547968E+03  0.00000000000E+00 0.  1.
<mgrwt>
<rscale>  2 0.19105415E+03</rscale>
<asrwt>0</asrwt>
<pdfrwt beam="1">  1       21 0.36232425E-02 0.19120775E+03</pdfrwt>
<pdfrwt beam="2">  1       21 0.26226101E+00 0.19120775E+03</pdfrwt>
<totfact> 0.26098186E+04</totfact>
</mgrwt>
</event>
<event>
11    2  0.4090627E-002  0.1840774E+03  0.7546771E-02  0.1164343E+00
         21   -1    0    0  501  502  0.00000000000E+00  0.00000000000E+00  0.21727627460E+03  0.21727627460E+03  0.00000000000E+00 0.  1.
         21   -1    0    0  502  503 -0.00000000000E+00 -0.00000000000E+00 -0.18327507564E+03  0.18327507564E+03  0.00000000000E+00 0.  1.
         -6    2    1    2    0  503  0.98377030112E+01 -0.56257446974E+02  0.96539369647E+02  0.20785651475E+03  0.17499371443E+03 0.  0.
          6    2    1    2  501    0 -0.98377030112E+01  0.56257446974E+02 -0.62538170683E+02  0.19269483549E+03  0.17308551670E+03 0.  0.
         24    2    4    4    0    0  0.11938734229E+02  0.63633113806E+02 -0.10270610413E+03  0.14617423191E+03  0.81404273240E+02 0.  0.
          5    1    4    4  501    0 -0.21776437240E+02 -0.73756668323E+01  0.40167933443E+02  0.46520603577E+02  0.47000000000E+01 0. -1.
        -15    1    5    5    0    0  0.18632809506E+02  0.12177310805E+02 -0.90031418299E+02  0.92759271766E+02  0.17770000000E+01 0.  1.
         16    1    5    5    0    0 -0.66940752769E+01  0.51455803001E+02 -0.12674685826E+02  0.53414960143E+02  0.00000000000E+00 0. -1.
         -5    1    3    3    0  503  0.15037295018E+02  0.37921001258E+02  0.92716949662E+02  0.10140337930E+03  0.47000000000E+01 0.  1.
         15    1    3    3    0    0  0.18490503527E+02 -0.40968583377E+02 -0.11088296856E+02  0.46329597459E+02  0.17770000000E+01 0. -1.
        -16    1    3    3    0    0 -0.23690095534E+02 -0.53209864855E+02  0.14910716841E+02  0.60123537995E+02  0.00000000000E+00 0.  1.
<mgrwt>
<rscale>  2 0.18362243E+03</rscale>
<asrwt>0</asrwt>
<pdfrwt beam="1">  1       21 0.33427119E-01 0.18407738E+03</pdfrwt>
<pdfrwt beam="2">  1       21 0.28196165E-01 0.18407738E+03</pdfrwt>
<totfact> 0.10393104E+05</totfact>
</mgrwt>
</event>
<event>
12    2  0.4090627E-002  0.1791645E+03  0.7546771E-02  0.1169065E+00
         21   -1    0    0  501  502  0.00000000000E+00  0.00000000000E+00  0.43088361481E+02  0.43088361481E+02  0.00000000000E+00 0. -1.
         21   -1    0    0  502  503 -0.00000000000E+00 -0.00000000000E+00 -0.15723314754E+04  0.15723314754E+04  0.00000000000E+00 0. -1.
         -6    2    1    2    0  503  0.27614199923E+02 -0.31031962246E+02 -0.13550737977E+04  0.13668668192E+04  0.17428246499E+03 0.  0.
        -24    2    3    3    0    0  0.11576455635E+02 -0.72399585412E+02 -0.12157752179E+04  0.12205976365E+04  0.79834174656E+02 0.  0.
          6    2    1    2  501    0 -0.27614199923E+02  0.31031962246E+02 -0.17416931620E+03  0.24855301763E+03  0.17238945776E+03 0.  0.
         24    2    5    5    0    0 -0.25169189117E+02  0.36869112088E+01 -0.19400754133E+03  0.21435689109E+03  0.87537816215E+02 0.  0.
          5    1    5    5  501    0 -0.24450108058E+01  0.27345051037E+02  0.19838225129E+02  0.34196126540E+02  0.47000000000E+01 0. -1.
        -15    1    6    6    0    0  0.32507661791E+02 -0.13911271429E+01 -0.57776671545E+02  0.66332381336E+02  0.17770000000E+01 0.  1.
         16    1    6    6    0    0 -0.57676850908E+02  0.50780383517E+01 -0.13623086979E+03  0.14802450975E+03  0.00000000000E+00 0. -1.
         -5    1    3    3    0  503  0.16037744288E+02  0.41367623167E+02 -0.13929857978E+03  0.14626918273E+03  0.47000000000E+01 0.  1.
         15    1    4    4    0    0  0.37365268023E+02 -0.63756846401E+02 -0.65398385555E+03  0.65814826579E+03  0.17770000000E+01 0. -1.
        -16    1    4    4    0    0 -0.25788812388E+02 -0.86427390120E+01 -0.56179136236E+03  0.56244937070E+03  0.00000000000E+00 0.  1.
<mgrwt>
<rscale>  2 0.17870246E+03</rscale>
<asrwt>0</asrwt>
<pdfrwt beam="1">  1       21 0.66289790E-02 0.17916446E+03</pdfrwt>
<pdfrwt beam="2">  1       21 0.24189714E+00 0.17916446E+03</pdfrwt>
<totfact> 0.12491570E+04</totfact>
</mgrwt>
</event>
<event>
12    2  0.4090627E-002  0.2040835E+03  0.7546771E-02  0.1147051E+00
         21   -1    0    0  501  502  0.00000000000E+00  0.00000000000E+00  0.21832899203E+03  0.21832899203E+03  0.00000000000E+00 0. -1.
         21   -1    0    0  502  503 -0.00000000000E+00 -0.00000000000E+00 -0.25911629769E+03  0.25911629769E+03  0.00000000000E+00 0.  1.
         -6    2    1    2    0  503  0.10103666091E+03 -0.10701784463E+02 -0.14570727120E+03  0.24797140750E+03  0.17302102479E+03 0.  0.
        -24    2    3    3    0    0  0.11136504348E+03  0.30486410254E+02 -0.14935847235E+03  0.20509292642E+03  0.80147121491E+02 0.  0.
          6    2    1    2  501    0 -0.10103666091E+03  0.10701784463E+02  0.10491996554E+03  0.22947388221E+03  0.17699471294E+03 0.  0.
         24    2    5    5    0    0 -0.99894965625E+02 -0.53966127112E+02  0.83753278785E+02  0.16125833498E+03  0.78091560760E+02 0.  0.
          5    1    5    5  501    0 -0.11416952870E+01  0.64667911575E+02  0.21166686757E+02  0.68215547230E+02  0.47000000000E+01 0. -1.
        -15    1    6    6    0    0 -0.92389935543E+02 -0.14649276819E+02  0.39412134539E+02  0.10152327604E+03  0.17770000000E+01 0.  1.
         16    1    6    6    0    0 -0.75050300828E+01 -0.39316850293E+02  0.44341144245E+02  0.59735058940E+02  0.00000000000E+00 0. -1.
         -5    1    3    3    0  503 -0.10328382569E+02 -0.41188194717E+02  0.36512011492E+01  0.42878481088E+02  0.47000000000E+01 0.  1.
         15    1    4    4    0    0  0.43337694624E+02  0.30615025149E+02 -0.16105103583E+02  0.55479434303E+02  0.17770000000E+01 0. -1.
        -16    1    4    4    0    0  0.68027348858E+02 -0.12861489503E+00 -0.13325336877E+03  0.14961349211E+03  0.00000000000E+00 0.  1.
<mgrwt>
<rscale>  2 0.20321887E+03</rscale>
<asrwt>0</asrwt>
<pdfrwt beam="1">  1       21 0.33589076E-01 0.20408347E+03</pdfrwt>
<pdfrwt beam="2">  1       21 0.39864046E-01 0.20408347E+03</pdfrwt>
<totfact> 0.51494423E+04</totfact>
</mgrwt>
</event>
<event>
12    2  0.4090627E-002  0.2007578E+03  0.7546771E-02  0.1149150E+00
         21   -1    0    0  501  502  0.00000000000E+00  0.00000000000E+00  0.15870997841E+04  0.15870997841E+04  0.00000000000E+00 0.  1.
         21   -1    0    0  502  503 -0.00000000000E+00 -0.00000000000E+00 -0.50791332724E+02  0.50791332724E+02  0.00000000000E+00 0.  1.
         -6    2    1    2    0  503  0.50219437102E+02 -0.87659699358E+02  0.18894713616E+03  0.27568954872E+03  0.17348628838E+03 0.  0.
        -24    2    3    3    0    0  0.15620759595E+02  0.92253305619E+01  0.34363827954E+02  0.89942767635E+02  0.81115435793E+02 0.  0.
          6    2    1    2  501    0 -0.50219437102E+02  0.87659699358E+02  0.13473613152E+04  0.13622015681E+04  0.17321773480E+03 0.  0.
         24    2    5    5    0    0 -0.83726901822E+02  0.20011794668E+02  0.64422791061E+03  0.65501159088E+03  0.81239875518E+02 0.  0.
          5    1    5    5  501    0  0.33507464720E+02  0.67647904691E+02  0.70313340464E+03  0.70718997725E+03  0.47000000000E+01 0. -1.
        -15    1    6    6    0    0  0.13208927391E+02  0.15188496495E+02  0.14886738464E+03  0.15023256014E+03  0.17770000000E+01 0.  1.
         16    1    6    6    0    0 -0.96935829213E+02  0.48232981722E+01  0.49536052596E+03  0.50477903074E+03  0.00000000000E+00 0. -1.
         -5    1    3    3    0  503  0.34598677507E+02 -0.96885029920E+02  0.15458330820E+03  0.18574678108E+03  0.47000000000E+01 0.  1.
         15    1    4    4    0    0  0.40460661242E+02  0.24913612800E+01  0.46307784145E+02  0.61569802587E+02  0.17770000000E+01 0. -1.
        -16    1    4    4    0    0 -0.24839901647E+02  0.67339692820E+01 -0.11943956191E+02  0.28372965048E+02  0.00000000000E+00 0.  1.
<mgrwt>
<rscale>  2 0.20069980E+03</rscale>
<asrwt>0</asrwt>
<pdfrwt beam="1">  1       21 0.24416916E+00 0.20075783E+03</pdfrwt>
<pdfrwt beam="2">  1       21 0.78140524E-02 0.20075783E+03</pdfrwt>
<totfact> 0.89288655E+03</totfact>
</mgrwt>
</event>
<event>
12    2  0.4090627E-002  0.2055678E+03  0.7546771E-02  0.1146385E+00
         21   -1    0    0  501  502  0.00000000000E+00  0.00000000000E+00  0.17970454223E+04  0.17970454223E+04  0.00000000000E+00 0.  1.
         21   -1    0    0  502  503 -0.00000000000E+00 -0.00000000000E+00 -0.58677598770E+02  0.58677598770E+02  0.00000000000E+00 0.  1.
         -6    2    1    2    0  503  0.84165230798E+02  0.37107707305E+02  0.14900367248E+03  0.25389017223E+03  0.18384057529E+03 0.  0.
        -24    2    3    3    0    0  0.88340234539E+02 -0.41343195139E+02  0.82199464592E+02  0.15065806994E+03  0.80173843846E+02 0.  0.
          6    2    1    2  501    0 -0.84165230798E+02 -0.37107707305E+02  0.15893641511E+04  0.16018328489E+04  0.17700085585E+03 0.  0.
         24    2    5    5    0    0  0.13013251670E+02 -0.16185165484E+02  0.10497913273E+04  0.10531596015E+04  0.81559861911E+02 0.  0.
          5    1    5    5  501    0 -0.97178482469E+02 -0.20922541821E+02  0.53957282378E+03  0.54867324736E+03  0.47000000000E+01 0. -1.
        -15    1    6    6    0    0  0.15043568646E+02 -0.31408391524E+02  0.10085311175E+04  0.10091337715E+04  0.17770000000E+01 0.  1.
         16    1    6    6    0    0 -0.20303169757E+01  0.15223226040E+02  0.41260209756E+02  0.44025830000E+02  0.00000000000E+00 0. -1.
         -5    1    3    3    0  503 -0.41750037411E+01  0.78450902444E+02  0.66804207887E+02  0.10323210228E+03  0.47000000000E+01 0.  1.
         15    1    4    4    0    0  0.40133351983E+02 -0.87343921233E+01  0.82811653446E+02  0.92454871275E+02  0.17770000000E+01 0. -1.
        -16    1    4    4    0    0  0.48206882557E+02 -0.32608803016E+02 -0.61218885365E+00  0.58203198668E+02  0.00000000000E+00 0.  1.
<mgrwt>
<rscale>  2 0.20402725E+03</rscale>
<asrwt>0</asrwt>
<pdfrwt beam="1">  1       21 0.27646848E+00 0.20556781E+03</pdfrwt>
<pdfrwt beam="2">  1       21 0.90273243E-02 0.20556781E+03</pdfrwt>
<totfact> 0.44684490E+03</totfact>
</mgrwt>
</event>
<event>
12    2  0.4090627E-002  0.2014166E+03  0.7546771E-02  0.1149045E+00
         21   -1    0    0  501  502  0.00000000000E+00  0.00000000000E+00  0.36760646712E+03  0.36760646712E+03  0.00000000000E+00 0.  1.
         21   -1    0    0  502  503 -0.00000000000E+00 -0.00000000000E+00 -0.13437100010E+03  0.13437100010E+03  0.00000000000E+00 0. -1.
         -6    2    1    2    0  503  0.67083275697E+02 -0.71771812710E+02  0.71526396595E+01  0.19918695219E+03  0.17312689766E+03 0.  0.
        -24    2    3    3    0    0  0.44032513113E+02 -0.11345392600E+03  0.15770404103E+02  0.15055473974E+03  0.87220229735E+02 0.  0.
          6    2    1    2  501    0 -0.67083275697E+02  0.71771812710E+02  0.22608282736E+03  0.30279051502E+03  0.17583313732E+03 0.  0.
         24    2    5    5    0    0 -0.65615448856E+02  0.11444809666E+03  0.14991831925E+03  0.21534600677E+03  0.80589367943E+02 0.  0.
          5    1    5    5  501    0 -0.14678268404E+01 -0.42676283953E+02  0.76164508112E+02  0.87444508253E+02  0.47000000000E+01 0. -1.
        -15    1    6    6    0    0 -0.45060030622E+02  0.63486392395E+02  0.13899079505E+03  0.15931894807E+03  0.17770000000E+01 0.  1.
         16    1    6    6    0    0 -0.20555418235E+02  0.50961704268E+02  0.10927524207E+02  0.56027058695E+02  0.00000000000E+00 0. -1.
         -5    1    3    3    0  503  0.23050762583E+02  0.41682113295E+02 -0.86177644431E+01  0.48632212456E+02  0.47000000000E+01 0.  1.
         15    1    4    4    0    0  0.49072598186E+02 -0.22367104292E+02 -0.11838419405E+02  0.55242313041E+02  0.17770000000E+01 0. -1.
        -16    1    4    4    0    0 -0.50400850728E+01 -0.91086821713E+02  0.27608823507E+02  0.95312426697E+02  0.00000000000E+00 0.  1.
<mgrwt>
<rscale>  2 0.20082447E+03</rscale>
<asrwt>0</asrwt>
<pdfrwt beam="1">  1       21 0.56554841E-01 0.20141661E+03</pdfrwt>
<pdfrwt beam="2">  1       21 0.20672462E-01 0.20141661E+03</pdfrwt>
<totfact> 0.63538574E+04</totfact>
</mgrwt>
</event>
<event>
12    2  0.4090627E-002  0.2700501E+03  0.7546771E-02  0.1101361E+00
         21   -1    0    0  501  502  0.00000000000E+00  0.00000000000E+00  0.14065369316E+03  0.14065369316E+03  0.00000000000E+00 0. -1.
         21   -1    0    0  502  503 -0.00000000000E+00 -0.00000000000E+00 -0.63438292933E+03  0.63438292933E+03  0.00000000000E+00 0. -1.
         -6    2    1    2    0  503  0.16830103852E+03 -0.12027042885E+03 -0.80468246234E+02  0.28178395962E+03  0.17359967058E+03 0.  0.
        -24    2    3    3    0    0  0.19497305122E+03 -0.89238590285E+02 -0.72100259614E+02  0.23975439306E+03  0.79408468411E+02 0.  0.
          6    2    1    2  501    0 -0.16830103852E+03  0.12027042885E+03 -0.41326098993E+03  0.49325266287E+03  0.17240454750E+03 0.  0.
         24    2    5    5    0    0 -0.52168061401E+02  0.10678506365E+03 -0.16617632286E+03  0.21986347845E+03  0.81245445589E+02 0.  0.
          5    1    5    5  501    0 -0.11613297712E+03  0.13485365193E+02 -0.24708466708E+03  0.27338918441E+03  0.47000000000E+01 0. -1.
        -15    1    6    6    0    0  0.17635872702E+02  0.28713325985E+02 -0.69847973067E+02  0.77571748502E+02  0.17770000000E+01 0.  1.
         16    1    6    6    0    0 -0.69803934104E+02  0.78071737670E+02 -0.96328349788E+02  0.14229172995E+03  0.00000000000E+00 0. -1.
         -5    1    3    3    0  503 -0.26672012695E+02 -0.31031838563E+02 -0.83679866205E+01  0.42029566568E+02  0.47000000000E+01 0.  1.
         15    1    4    4    0    0  0.10717198619E+03 -0.67885506776E+02 -0.78451315108E+02  0.14917118766E+03  0.17770000000E+01 0. -1.
        -16    1    4    4    0    0  0.87801065024E+02 -0.21353083509E+02  0.63510554947E+01  0.90583205401E+02  0.00000000000E+00 0.  1.
<mgrwt>
<rscale>  2 0.26985822E+03</rscale>
<asrwt>0</asrwt>
<pdfrwt beam="1">  1       21 0.21639030E-01 0.27005011E+03</pdfrwt>
<pdfrwt beam="2">  1       21 0.97597374E-01 0.27005011E+03</pdfrwt>
<totfact> 0.16582858E+04</totfact>
</mgrwt>
</event>
<event>
12    2  0.4090627E-002  0.5127229E+03  0.7546771E-02  0.1010518E+00
         21   -1    0    0  503  502  0.00000000000E+00  0.00000000000E+00  0.33086114268E+03  0.33086114268E+03  0.00000000000E+00 0. -1.
         21   -1    0    0  501  503 -0.00000000000E+00 -0.00000000000E+00 -0.89873713434E+03  0.89873713434E+03  0.00000000000E+00 0. -1.
          6    2    1    2  501    0  0.48232370256E+03  0.10157410611E+02 -0.49349125766E+03  0.71163078813E+03  0.17362439398E+03 0.  0.
         24    2    3    3    0    0  0.18421239839E+03  0.58024223658E+02 -0.22922139908E+03  0.31035503554E+03  0.80478444537E+02 0.  0.
         -6    2    1    2    0  502 -0.48232370256E+03 -0.10157410611E+02 -0.74384734002E+02  0.51796748890E+03  0.17325675704E+03 0.  0.
        -24    2    5    5    0    0 -0.29208315542E+03 -0.12158676630E+02 -0.11350517899E+03  0.32367912059E+03  0.80152007791E+02 0.  0.
          5    1    3    3  501    0  0.29811130417E+03 -0.47866813047E+02 -0.26426985858E+03  0.40127575259E+03  0.47000000000E+01 0. -1.
        -15    1    4    4    0    0  0.19052051759E+03  0.46615449289E+02 -0.21331082342E+03  0.28978566709E+03  0.17770000000E+01 0.  1.
         16    1    4    4    0    0 -0.63081191978E+01  0.11408774369E+02 -0.15910575660E+02  0.20569368446E+02  0.00000000000E+00 0. -1.
         -5    1    5    5    0  502 -0.19024054714E+03  0.20012660190E+01  0.39120444990E+02  0.19428836830E+03  0.47000000000E+01 0.  1.
         15    1    6    6    0    0 -0.29125934529E+03 -0.12311009432E+01 -0.11381850965E+03  0.31271605763E+03  0.17770000000E+01 0. -1.
        -16    1    6    6    0    0 -0.82381012519E+00 -0.10927575687E+02  0.31333065290E+00  0.10963062967E+02  0.00000000000E+00 0.  1.
<mgrwt>
<rscale>  2 0.51269179E+03</rscale>
<asrwt>0</asrwt>
<pdfrwt beam="1">  1       21 0.50901714E-01 0.51272289E+03</pdfrwt>
<pdfrwt beam="2">  1       21 0.13826725E+00 0.51272289E+03</pdfrwt>
<totfact> 0.11236095E+03</totfact>
</mgrwt>
</event>
<event>
12    2  0.4090627E-002  0.2570012E+03  0.7546771E-02  0.1109454E+00
         21   -1    0    0  501  502  0.00000000000E+00  0.00000000000E+00  0.23084984554E+04  0.23084984554E+04  0.00000000000E+00 0.  1.
         21   -1    0    0  502  503 -0.00000000000E+00 -0.00000000000E+00 -0.28309030145E+02  0.28309030145E+02  0.00000000000E+00 0. -1.
         -6    2    1    2    0  503 -0.18511304559E+03 -0.20719569753E+02  0.10954371358E+04  0.11251809429E+04  0.17706918298E+03 0.  0.
        -24    2    3    3    0    0 -0.21293170546E+03 -0.16171008863E+02  0.98991269674E+03  0.10158554450E+04  0.80210506429E+02 0.  0.
          6    2    1    2  501    0  0.18511304559E+03  0.20719569753E+02  0.11847522895E+04  0.12116265426E+04  0.17235066362E+03 0.  0.
         24    2    5    5    0    0  0.96706686228E+02  0.61223877105E+02  0.89849180925E+03  0.90926345657E+03  0.79824531842E+02 0.  0.
          5    1    5    5  501    0  0.88406359366E+02 -0.40504307352E+02  0.28626048021E+03  0.30236308608E+03  0.47000000000E+01 0. -1.
        -15    1    6    6    0    0  0.65279129224E+00  0.38766696129E+02  0.18874092924E+03  0.19269037071E+03  0.17770000000E+01 0.  1.
         16    1    6    6    0    0  0.96053894936E+02  0.22457180976E+02  0.70975088000E+03  0.71657308586E+03  0.00000000000E+00 0. -1.
         -5    1    3    3    0  503  0.27818659869E+02 -0.45485608900E+01  0.10552443911E+03  0.10932549790E+03  0.47000000000E+01 0.  1.
         15    1    4    4    0    0 -0.97416355674E+02  0.31920673070E+02  0.41402487802E+03  0.42653092862E+03  0.17770000000E+01 0. -1.
        -16    1    4    4    0    0 -0.11551534979E+03 -0.48091681933E+02  0.57588781872E+03  0.58932451642E+03  0.00000000000E+00 0.  1.
<mgrwt>
<rscale>  2 0.25619043E+03</rscale>
<asrwt>0</asrwt>
<pdfrwt beam="1">  1       21 0.35515346E+00 0.25700124E+03</pdfrwt>
<pdfrwt beam="2">  1       21 0.43552372E-02 0.25700124E+03</pdfrwt>
<totfact> 0.51571338E+03</totfact>
</mgrwt>
</event>
<event>
12    2  0.4090627E-002  0.2213828E+03  0.7546771E-02  0.1133012E+00
         21   -1    0    0  503  502  0.00000000000E+00  0.00000000000E+00  0.46105686882E+02  0.46105686882E+02  0.00000000000E+00 0. -1.
         21   -1    0    0  501  503 -0.00000000000E+00 -0.00000000000E+00 -0.12661697732E+04  0.12661697732E+04  0.00000000000E+00 0. -1.
          6    2    1    2  501    0  0.97689558679E+01 -0.13510747367E+03 -0.34557968098E+03  0.41040914758E+03  0.17510251448E+03 0.  0.
         24    2    3    3    0    0 -0.35305978711E+02 -0.13803599175E+03 -0.31635273043E+03  0.35640330916E+03  0.81509641030E+02 0.  0.
         -6    2    1    2    0  502 -0.97689558679E+01  0.13510747367E+03 -0.87448440536E+03  0.90186631252E+03  0.17404139880E+03 0.  0.
        -24    2    5    5    0    0 -0.32337398202E+02  0.15216263664E+03 -0.83450591561E+03  0.85266689366E+03  0.80259161732E+02 0.  0.
          5    1    3    3  501    0  0.45074934579E+02  0.29285180806E+01 -0.29226950550E+02  0.54005838424E+02  0.47000000000E+01 0. -1.
        -15    1    4    4    0    0 -0.16687713003E+02 -0.19504127173E+02 -0.14471836415E+03  0.14698793622E+03  0.17770000000E+01 0.  1.
         16    1    4    4    0    0 -0.18618265708E+02 -0.11853186457E+03 -0.17163436628E+03  0.20941537294E+03  0.00000000000E+00 0. -1.
         -5    1    5    5    0  502  0.22568442334E+02 -0.17055162973E+02 -0.39978489751E+02  0.49199418860E+02  0.47000000000E+01 0.  1.
         15    1    6    6    0    0  0.16748355966E+01  0.70856278109E+02 -0.20265488832E+03  0.21469880929E+03  0.17770000000E+01 0. -1.
        -16    1    6    6    0    0 -0.34012233798E+02  0.81306358531E+02 -0.63185102729E+03  0.63796808436E+03  0.00000000000E+00 0.  1.
<mgrwt>
<rscale>  2 0.22117294E+03</rscale>
<asrwt>0</asrwt>
<pdfrwt beam="1">  1       21 0.70931825E-02 0.22138282E+03</pdfrwt>
<pdfrwt beam="2">  1       21 0.19479535E+00 0.22138282E+03</pdfrwt>
<totfact> 0.21013823E+04</totfact>
</mgrwt>
</event>
<event>
12    2  0.4090627E-002  0.2338563E+03  0.7546771E-02  0.1123997E+00
         21   -1    0    0  503  502  0.00000000000E+00  0.00000000000E+00  0.47959362890E+03  0.47959362890E+03  0.00000000000E+00 0.  1.
         21   -1    0    0  501  503 -0.00000000000E+00 -0.00000000000E+00 -0.19084060104E+03  0.19084060104E+03  0.00000000000E+00 0.  1.
          6    2    1    2  501    0  0.10301339347E+03 -0.11719428494E+03 -0.68409432823E+02  0.24365676323E+03  0.17419101042E+03 0.  0.
         24    2    3    3    0    0  0.10629978488E+03 -0.13179637807E+03 -0.15472025947E+02  0.18844371641E+03  0.81250976173E+02 0.  0.
         -6    2    1    2    0  502 -0.10301339347E+03  0.11719428494E+03  0.35716246068E+03  0.42677746671E+03  0.17386121798E+03 0.  0.
        -24    2    5    5    0    0 -0.12677156066E+03  0.11149501052E+03  0.22690105256E+03  0.29416126603E+03  0.80898682429E+02 0.  0.
          5    1    3    3  501    0 -0.32863914129E+01  0.14602093127E+02 -0.52937406876E+02  0.55213046819E+02  0.47000000000E+01 0. -1.
        -15    1    4    4    0    0  0.10618477249E+03 -0.12993822394E+03 -0.32820540840E+02  0.17099559520E+03  0.17770000000E+01 0.  1.
         16    1    4    4    0    0  0.11501238956E+00 -0.18581541341E+01  0.17348514893E+02  0.17448121206E+02  0.00000000000E+00 0. -1.
         -5    1    5    5    0  502  0.23758167192E+02  0.56992744288E+01  0.13026140812E+03  0.13261620068E+03  0.47000000000E+01 0.  1.
         15    1    6    6    0    0  0.10466005366E+02  0.15678096358E+02  0.15161334247E+02  0.24256210728E+02  0.17770000000E+01 0. -1.
        -16    1    6    6    0    0 -0.13723756603E+03  0.95816914157E+02  0.21173971831E+03  0.26990505530E+03  0.00000000000E+00 0.  1.
<mgrwt>
<rscale>  2 0.23379489E+03</rscale>
<asrwt>0</asrwt>
<pdfrwt beam="1">  1       21 0.73783635E-01 0.23385630E+03</pdfrwt>
<pdfrwt beam="2">  1       21 0.29360093E-01 0.23385630E+03</pdfrwt>
<totfact> 0.17889383E+04</totfact>
</mgrwt>
</event>
<event>
12    2  0.4090627E-002  0.1808812E+03  0.7546771E-02  0.1167852E+00
         21   -1    0    0  501  502  0.00000000000E+00  0.00000000000E+00  0.52551943506E+02  0.52551943506E+02  0.00000000000E+00 0.  1.
         21   -1    0    0  502  503 -0.00000000000E+00 -0.00000000000E+00 -0.64556066001E+03  0.64556066001E+03  0.00000000000E+00 0.  1.
         -6    2    1    2    0  503 -0.52657527977E+02  0.15415915434E+02 -0.21159955344E+03  0.27598589171E+03  0.16847366473E+03 0.  0.
        -24    2    3    3    0    0  0.17212634878E+02  0.17685077034E+02 -0.43991973174E+02  0.94323072966E+02  0.79702645131E+02 0.  0.
          6    2    1    2  501    0  0.52657527977E+02 -0.15415915434E+02 -0.38140916306E+03  0.42212671180E+03  0.17235876957E+03 0.  0.
         24    2    5    5    0    0  0.13554460814E+02 -0.61254149298E+02 -0.32063282798E+03  0.33641763147E+03  0.80222304705E+02 0.  0.
          5    1    5    5  501    0  0.39103067163E+02  0.45838233864E+02 -0.60776335086E+02  0.85709080335E+02  0.47000000000E+01 0. -1.
        -15    1    6    6    0    0  0.31166571630E+02 -0.29663259679E+01 -0.50001557469E+02  0.59020909475E+02  0.17770000000E+01 0.  1.
         16    1    6    6    0    0 -0.17612110817E+02 -0.58287823330E+02 -0.27063127051E+03  0.27739672199E+03  0.00000000000E+00 0. -1.
         -5    1    3    3    0  503 -0.69870162855E+02 -0.22691616005E+01 -0.16760758027E+03  0.18166281875E+03  0.47000000000E+01 0.  1.
         15    1    4    4    0    0 -0.10179001254E+02 -0.68677386710E+01  0.18223704019E+02  0.22046292617E+02  0.17770000000E+01 0. -1.
        -16    1    4    4    0    0  0.27391636133E+02  0.24552815705E+02 -0.62215677193E+02  0.72276780349E+02  0.00000000000E+00 0.  1.
<mgrwt>
<rscale>  2 0.17994950E+03</rscale>
<asrwt>0</asrwt>
<pdfrwt beam="1">  1       21 0.80849142E-02 0.18088121E+03</pdfrwt>
<pdfrwt beam="2">  1       21 0.99317026E-01 0.18088121E+03</pdfrwt>
<totfact> 0.98782161E+04</totfact>
</mgrwt>
</event>
<event>
12    2  0.4090627E-002  0.2193519E+03  0.7546771E-02  0.1134447E+00
         21   -1    0    0  503  502  0.00000000000E+00  0.00000000000E+00  0.91979995868E+03  0.91979995868E+03  0.00000000000E+00 0.  1.
         21   -1    0    0  501  503 -0.00000000000E+00 -0.00000000000E+00 -0.29628038291E+03  0.29628038291E+03  0.00000000000E+00 0.  1.
          6    2    1    2  501    0  0.53293003186E+01  0.13358025347E+03 -0.24016580840E+03  0.32497556796E+03  0.17337075500E+03 0.  0.
         24    2    3    3    0    0 -0.26451210312E+02  0.12134761445E+03 -0.94877281215E+02  0.17567558657E+03  0.80220341348E+02 0.  0.
         -6    2    1    2    0  502 -0.53293003186E+01 -0.13358025347E+03  0.86368538416E+03  0.89110477363E+03  0.17390569057E+03 0.  0.
        -24    2    5    5    0    0  0.11711567092E+01 -0.79517304981E+02  0.79557191599E+03  0.80377440728E+03  0.82427245979E+02 0.  0.
          5    1    3    3  501    0  0.31780510631E+02  0.12232639024E+02 -0.14528852718E+03  0.14929998139E+03  0.47000000000E+01 0. -1.
        -15    1    4    4    0    0  0.51374090420E+01 -0.84565550390E+01 -0.20357572017E+02  0.22704509733E+02  0.17770000000E+01 0.  1.
         16    1    4    4    0    0 -0.31588619354E+02  0.12980416949E+03 -0.74519709198E+02  0.15297107684E+03  0.00000000000E+00 0. -1.
         -5    1    5    5    0  502 -0.65004570278E+01 -0.54062948492E+02  0.68113468172E+02  0.87330366355E+02  0.47000000000E+01 0.  1.
         15    1    6    6    0    0 -0.43222445986E+01  0.15739639592E+02  0.67062223172E+02  0.69042867544E+02  0.17770000000E+01 0. -1.
        -16    1    6    6    0    0  0.54934013078E+01 -0.95256944573E+02  0.72850969282E+03  0.73473153973E+03  0.00000000000E+00 0.  1.
<mgrwt>
<rscale>  2 0.21924590E+03</rscale>
<asrwt>0</asrwt>
<pdfrwt beam="1">  1       21 0.14150768E+00 0.21935194E+03</pdfrwt>
<pdfrwt beam="2">  1       21 0.45581598E-01 0.21935194E+03</pdfrwt>
<totfact> 0.15665641E+03</totfact>
</mgrwt>
</event>
<event>
12    2  0.4090627E-002  0.2762555E+03  0.7546771E-02  0.1097912E+00
         21   -1    0    0  501  502  0.00000000000E+00  0.00000000000E+00  0.18073045441E+03  0.18073045441E+03  0.00000000000E+00 0.  1.
         21   -1    0    0  502  503 -0.00000000000E+00 -0.00000000000E+00 -0.44359411051E+03  0.44359411051E+03  0.00000000000E+00 0. -1.
         -6    2    1    2    0  503 -0.16760340572E+03 -0.13470303708E+03 -0.20288753098E+03  0.34275425424E+03  0.17343966893E+03 0.  0.
        -24    2    3    3    0    0 -0.78444155064E+02 -0.92350224165E+00 -0.47448410994E+02  0.11908095242E+03  0.75990678405E+02 0.  0.
          6    2    1    2  501    0  0.16760340572E+03  0.13470303708E+03 -0.59976125122E+02  0.28157031069E+03  0.17160680192E+03 0.  0.
         24    2    5    5    0    0  0.16843339918E+03  0.82203839988E+02 -0.28882904893E+01  0.20386596430E+03  0.80160513397E+02 0.  0.
          5    1    5    5  501    0 -0.82999345950E+00  0.52499197092E+02 -0.57087834633E+02  0.77704346387E+02  0.47000000000E+01 0. -1.
        -15    1    6    6    0    0  0.96411407393E+02  0.77584456495E+01  0.17464202729E+02  0.98303148782E+02  0.17770000000E+01 0.  1.
         16    1    6    6    0    0  0.72021991791E+02  0.74445394338E+02 -0.20352493218E+02  0.10556281552E+03  0.00000000000E+00 0. -1.
         -5    1    3    3    0  503 -0.89159250661E+02 -0.13377953484E+03 -0.15543911999E+03  0.22367330181E+03  0.47000000000E+01 0.  1.
         15    1    4    4    0    0  0.11514000866E+02  0.22230333269E+01  0.71059258657E+01  0.13826279490E+02  0.17770000000E+01 0. -1.
        -16    1    4    4    0    0 -0.89958155930E+02 -0.31465355685E+01 -0.54554336860E+02  0.10525467293E+03  0.00000000000E+00 0.  1.
<mgrwt>
<rscale>  2 0.27596835E+03</rscale>
<asrwt>0</asrwt>
<pdfrwt beam="1">  1       21 0.27804685E-01 0.27625555E+03</pdfrwt>
<pdfrwt beam="2">  1       21 0.68245248E-01 0.27625555E+03</pdfrwt>
<totfact> 0.23197692E+04</totfact>
</mgrwt>
</event>
<event>
12    2  0.4090627E-002  0.1792480E+03  0.7546771E-02  0.1170028E+00
         21   -1    0    0  503  502  0.00000000000E+00  0.00000000000E+00  0.47253083772E+02  0.47253083772E+02  0.00000000000E+00 0.  1.
         21   -1    0    0  501  503 -0.00000000000E+00 -0.00000000000E+00 -0.10265072944E+04  0.10265072944E+04  0.00000000000E+00 0.  1.
          6    2    1    2  501    0 -0.37813639423E+02 -0.26160167802E+02 -0.81696081238E+03  0.83639394564E+03  0.17325021683E+03 0.  0.
         24    2    3    3    0    0 -0.55848122616E+02 -0.74072959012E+02 -0.46699356724E+03  0.48267083243E+03  0.79261116449E+02 0.  0.
         -6    2    1    2    0  502  0.37813639423E+02  0.26160167802E+02 -0.16229339822E+03  0.23736643250E+03  0.16700134870E+03 0.  0.
        -24    2    5    5    0    0  0.39289359296E+02 -0.12993090844E+02 -0.24267138385E+02  0.93809845001E+02  0.80615872198E+02 0.  0.
          5    1    3    3  501    0  0.18034483193E+02  0.47912791211E+02 -0.34996724515E+03  0.35372311321E+03  0.47000000000E+01 0. -1.
        -15    1    4    4    0    0 -0.29234854384E+02 -0.42379047440E+02 -0.40417569900E+03  0.40744547336E+03  0.17770000000E+01 0.  1.
         16    1    4    4    0    0 -0.26613268232E+02 -0.31693911573E+02 -0.62817868234E+02  0.75225359064E+02  0.00000000000E+00 0. -1.
         -5    1    5    5    0  502 -0.14757198726E+01  0.39153258646E+02 -0.13802625983E+03  0.14355658750E+03  0.47000000000E+01 0.  1.
         15    1    6    6    0    0 -0.62581435788E+01 -0.36616340067E+02 -0.20245361604E+02  0.42343277111E+02  0.17770000000E+01 0. -1.
        -16    1    6    6    0    0  0.45547502875E+02  0.23623249223E+02 -0.40217767814E+01  0.51466567891E+02  0.00000000000E+00 0.  1.
<mgrwt>
<rscale>  2 0.17772055E+03</rscale>
<asrwt>0</asrwt>
<pdfrwt beam="1">  1       21 0.72697050E-02 0.17924805E+03</pdfrwt>
<pdfrwt beam="2">  1       21 0.15792420E+00 0.17924805E+03</pdfrwt>
<totfact> 0.37244424E+04</totfact>
</mgrwt>
</event>
<event>
12    2  0.4090627E-002  0.2507766E+03  0.7546771E-02  0.1112986E+00
         21   -1    0    0  501  502  0.00000000000E+00  0.00000000000E+00  0.61352699071E+02  0.61352699071E+02  0.00000000000E+00 0.  1.
         21   -1    0    0  502  503 -0.00000000000E+00 -0.00000000000E+00 -0.11303160642E+04  0.11303160642E+04  0.00000000000E+00 0.  1.
         -6    2    1    2    0  503 -0.15294591848E+03  0.10000819248E+03 -0.34990413836E+03  0.43049017960E+03  0.17174049069E+03 0.  0.
        -24    2    3    3    0    0 -0.72077186973E+02  0.11574155879E+03 -0.16826132429E+03  0.23098205330E+03  0.80309441444E+02 0.  0.
          6    2    1    2  501    0  0.15294591848E+03 -0.10000819248E+03 -0.71905922676E+03  0.76117858367E+03  0.17015455360E+03 0.  0.
         24    2    5    5    0    0  0.15250735922E+03 -0.98242743682E+02 -0.44578317555E+03  0.48785606483E+03  0.79817097682E+02 0.  0.
          5    1    5    5  501    0  0.43855926065E+00 -0.17654487956E+01 -0.27327605120E+03  0.27332251884E+03  0.47000000000E+01 0. -1.
        -15    1    6    6    0    0  0.11769192949E+03 -0.93212551654E+02 -0.41422924595E+03  0.44060072172E+03  0.17770000000E+01 0.  1.
         16    1    6    6    0    0  0.34815429724E+02 -0.50301920285E+01 -0.31553929606E+02  0.47255343109E+02  0.00000000000E+00 0. -1.
         -5    1    3    3    0  503 -0.80868731503E+02 -0.15733366309E+02 -0.18164281408E+03  0.19950812629E+03  0.47000000000E+01 0.  1.
         15    1    4    4    0    0 -0.32589308304E+02  0.73980249080E+02 -0.15046468094E+03  0.17081545074E+03  0.17770000000E+01 0. -1.
        -16    1    4    4    0    0 -0.39487878669E+02  0.41761309706E+02 -0.17796643342E+02  0.60166602566E+02  0.00000000000E+00 0.  1.
<mgrwt>
<rscale>  2 0.25050527E+03</rscale>
<asrwt>0</asrwt>
<pdfrwt beam="1">  1       21 0.94388767E-02 0.25077657E+03</pdfrwt>
<pdfrwt beam="2">  1       21 0.17389478E+00 0.25077657E+03</pdfrwt>
<totfact> 0.17332222E+04</totfact>
</mgrwt>
</event>
<event>
12    2  0.4090627E-002  0.1782676E+03  0.7546771E-02  0.1169898E+00
         21   -1    0    0  503  502  0.00000000000E+00  0.00000000000E+00  0.47819774444E+03  0.47819774444E+03  0.00000000000E+00 0. -1.
         21   -1    0    0  501  503 -0.00000000000E+00 -0.00000000000E+00 -0.18907900959E+03  0.18907900959E+03  0.00000000000E+00 0. -1.
          6    2    1    2  501    0  0.28692351362E+02  0.29378432750E+02 -0.12456078409E+03  0.21747351332E+03  0.17347333145E+03 0.  0.
         24    2    3    3    0    0  0.35351135653E+02 -0.47283210075E+02 -0.55599789068E+02  0.11403727343E+03  0.80173302536E+02 0.  0.
         -6    2    1    2    0  502 -0.28692351362E+02 -0.29378432750E+02  0.41367951895E+03  0.44980324071E+03  0.17177272081E+03 0.  0.
        -24    2    5    5    0    0 -0.12427842013E+02  0.17554210436E+02  0.95589979614E+02  0.12782458878E+03  0.82091898098E+02 0.  0.
          5    1    3    3  501    0 -0.66587842904E+01  0.76661642825E+02 -0.68960995023E+02  0.10343623989E+03  0.47000000000E+01 0. -1.
        -15    1    4    4    0    0  0.60967355203E+02 -0.37850681468E+02 -0.45183328259E+02  0.84819710974E+02  0.17770000000E+01 0.  1.
         16    1    4    4    0    0 -0.25616219551E+02 -0.94325286069E+01 -0.10416460809E+02  0.29217562454E+02  0.00000000000E+00 0. -1.
         -5    1    5    5    0  502 -0.16264509349E+02 -0.46932643186E+02  0.31808953934E+03  0.32197865193E+03  0.47000000000E+01 0.  1.
         15    1    6    6    0    0 -0.32359474376E+01 -0.28554015630E+02  0.10569603370E+02  0.30670464764E+02  0.17770000000E+01 0. -1.
        -16    1    6    6    0    0 -0.91918945754E+01  0.46108226067E+02  0.85020376244E+02  0.97154124017E+02  0.00000000000E+00 0.  1.
<mgrwt>
<rscale>  2 0.17785255E+03</rscale>
<asrwt>0</asrwt>
<pdfrwt beam="1">  1       21 0.73568883E-01 0.17826761E+03</pdfrwt>
<pdfrwt beam="2">  1       21 0.29089079E-01 0.17826761E+03</pdfrwt>
<totfact> 0.18945401E+04</totfact>
</mgrwt>
</event>
<event>
12    2  0.4090627E-002  0.3076469E+03  0.7546771E-02  0.1081548E+00
         21   -1    0    0  501  502  0.00000000000E+00  0.00000000000E+00  0.55080032379E+03  0.55080032379E+03  0.00000000000E+00 0.  1.
         21   -1    0    0  502  503 -0.00000000000E+00 -0.00000000000E+00 -0.20511843121E+03  0.20511843121E+03  0.00000000000E+00 0. -1.
         -6    2    1    2    0  503 -0.23468560775E+03 -0.96675603571E+02  0.19729760033E+02  0.30770962261E+03  0.17283645913E+03 0.  0.
        -24    2    3    3    0    0 -0.10410789101E+03 -0.70645400914E+02  0.69853744712E+02  0.16536280881E+03  0.81462182915E+02 0.  0.
          6    2    1    2  501    0  0.23468560775E+03  0.96675603571E+02  0.32595213254E+03  0.44820913239E+03  0.17384799925E+03 0.  0.
         24    2    5    5    0    0  0.74582995994E+02  0.94967384188E+02  0.13410136196E+03  0.19827999748E+03  0.82160542670E+02 0.  0.
          5    1    5    5  501    0  0.16010261176E+03  0.17082193834E+01  0.19185077058E+03  0.24992913491E+03  0.47000000000E+01 0. -1.
        -15    1    6    6    0    0  0.31442475782E+02  0.21095093826E+02  0.98644448799E+02  0.10567647456E+03  0.17770000000E+01 0.  1.
         16    1    6    6    0    0  0.43140520212E+02  0.73872290362E+02  0.35456913157E+02  0.92603522925E+02  0.00000000000E+00 0. -1.
         -5    1    3    3    0  503 -0.13057771674E+03 -0.26030202657E+02 -0.50123984679E+02  0.14234681380E+03  0.47000000000E+01 0.  1.
         15    1    4    4    0    0 -0.83587194002E+02 -0.54565132768E+02  0.10316960485E+02  0.10036817283E+03  0.17770000000E+01 0. -1.
        -16    1    4    4    0    0 -0.20520697009E+02 -0.16080268146E+02  0.59536784227E+02  0.64994635975E+02  0.00000000000E+00 0.  1.
<mgrwt>
<rscale>  2 0.30750421E+03</rscale>
<asrwt>0</asrwt>
<pdfrwt beam="1">  1       21 0.84738511E-01 0.30764693E+03</pdfrwt>
<pdfrwt beam="2">  1       21 0.31556682E-01 0.30764693E+03</pdfrwt>
<totfact> 0.10932343E+04</totfact>
</mgrwt>
</event>
<event>
12    2  0.4090627E-002  0.2217745E+03  0.7546771E-02  0.1132720E+00
         21   -1    0    0  503  502  0.00000000000E+00  0.00000000000E+00  0.13509895279E+04  0.13509895279E+04  0.00000000000E+00 0.  1.
         21   -1    0    0  501  503 -0.00000000000E+00 -0.00000000000E+00 -0.17492287721E+03  0.17492287721E+03  0.00000000000E+00 0.  1.
          6    2    1    2  501    0  0.23264414736E+02  0.13584857268E+03 -0.91462186681E+02  0.23912832063E+03  0.17268744727E+03 0.  0.
         24    2    3    3    0    0 -0.25463682110E+02  0.13663111806E+03 -0.36266051423E+02  0.16534659426E+03  0.81901210108E+02 0.  0.
         -6    2    1    2    0  502 -0.23264414736E+02 -0.13584857268E+03  0.12675288374E+04  0.12867840845E+04  0.17374653612E+03 0.  0.
        -24    2    5    5    0    0 -0.34274632299E+01 -0.36274813693E+02  0.26729556000E+03  0.28140000996E+03  0.80071465587E+02 0.  0.
          5    1    3    3  501    0  0.48728096846E+02 -0.78254538203E+00 -0.55196135258E+02  0.73781726376E+02  0.47000000000E+01 0. -1.
        -15    1    4    4    0    0  0.94901611775E+01  0.12273363037E+03 -0.33710003228E+02  0.12764454249E+03  0.17770000000E+01 0.  1.
         16    1    4    4    0    0 -0.34953843288E+02  0.13897487698E+02 -0.25560481948E+01  0.37702051765E+02  0.00000000000E+00 0. -1.
         -5    1    5    5    0  502 -0.19836951506E+02 -0.99573758988E+02  0.10002332774E+04  0.10053840746E+04  0.47000000000E+01 0.  1.
         15    1    6    6    0    0 -0.25511508966E+01 -0.59966747541E+02  0.14701484752E+03  0.15880504495E+03  0.17770000000E+01 0. -1.
        -16    1    6    6    0    0 -0.87631233327E+00  0.23691933848E+02  0.12028071247E+03  0.12259496501E+03  0.00000000000E+00 0.  1.
<mgrwt>
<rscale>  2 0.22156702E+03</rscale>
<asrwt>0</asrwt>
<pdfrwt beam="1">  1       21 0.20784454E+00 0.22177449E+03</pdfrwt>
<pdfrwt beam="2">  1       21 0.26911213E-01 0.22177449E+03</pdfrwt>
<totfact> 0.15277940E+03</totfact>
</mgrwt>
</event>
<event>
12    2  0.4090627E-002  0.2260290E+03  0.7546771E-02  0.1129690E+00
         21   -1    0    0  503  502  0.00000000000E+00  0.00000000000E+00  0.96441990264E+02  0.96441990264E+02  0.00000000000E+00 0.  1.
         21   -1    0    0  501  503 -0.00000000000E+00 -0.00000000000E+00 -0.58570269370E+03  0.58570269370E+03  0.00000000000E+00 0.  1.
          6    2    1    2  501    0  0.55995025989E+02  0.13377558293E+03 -0.35215034538E+03  0.41778059502E+03  0.17175392369E+03 0.  0.
         24    2    3    3    0    0  0.57057879961E+02  0.15793748538E+03 -0.34518075783E+03  0.39217605755E+03  0.80327165921E+02 0.  0.
         -6    2    1    2    0  502 -0.55995025989E+02 -0.13377558293E+03 -0.13711035806E+03  0.26436408894E+03  0.17337177311E+03 0.  0.
        -24    2    5    5    0    0 -0.82664175337E+02 -0.12638706412E+03 -0.15466722909E+03  0.23125566920E+03  0.82159460335E+02 0.  0.
          5    1    3    3  501    0 -0.10628539725E+01 -0.24161902452E+02 -0.69695875499E+01  0.25604537475E+02  0.47000000000E+01 0. -1.
        -15    1    4    4    0    0 -0.44962951781E+01  0.59163486091E+02 -0.61139891798E+02  0.85216071576E+02  0.17770000000E+01 0.  1.
         16    1    4    4    0    0  0.61554175139E+02  0.98773999291E+02 -0.28404086603E+03  0.30695998597E+03  0.00000000000E+00 0. -1.
         -5    1    5    5    0  502  0.26669149349E+02 -0.73885188088E+01  0.17556871031E+02  0.33108419738E+02  0.47000000000E+01 0.  1.
         15    1    6    6    0    0 -0.81991779617E+01  0.12057547602E+02 -0.14504405474E+02  0.20643315640E+02  0.17770000000E+01 0. -1.
        -16    1    6    6    0    0 -0.74464997376E+02 -0.13844461172E+03 -0.14016282361E+03  0.21061235356E+03  0.00000000000E+00 0.  1.
<mgrwt>
<rscale>  2 0.22571875E+03</rscale>
<asrwt>0</asrwt>
<pdfrwt beam="1">  1       21 0.14837229E-01 0.22602903E+03</pdfrwt>
<pdfrwt beam="2">  1       21 0.90108106E-01 0.22602903E+03</pdfrwt>
<totfact> 0.41219140E+04</totfact>
</mgrwt>
</event>
<event>
12    2  0.4090627E-002  0.2036833E+03  0.7546771E-02  0.1147228E+00
         21   -1    0    0  503  502  0.00000000000E+00  0.00000000000E+00  0.19772212878E+03  0.19772212878E+03  0.00000000000E+00 0. -1.
         21   -1    0    0  501  503 -0.00000000000E+00 -0.00000000000E+00 -0.22607592171E+03  0.22607592171E+03  0.00000000000E+00 0. -1.
          6    2    1    2  501    0 -0.39361803886E+02  0.97455723613E+02  0.47375380380E+02  0.20649229766E+03  0.17131162440E+03 0.  0.
         24    2    3    3    0    0 -0.19580091769E+02 -0.16941576541E+02  0.26911368825E+02  0.88513807306E+02  0.80250079766E+02 0.  0.
         -6    2    1    2    0  502  0.39361803886E+02 -0.97455723613E+02 -0.75729173309E+02  0.21730575283E+03  0.17447037816E+03 0.  0.
        -24    2    5    5    0    0 -0.16760660220E+01 -0.43142583967E+02 -0.10786314990E+03  0.14188223955E+03  0.81437209200E+02 0.  0.
          5    1    3    3  501    0 -0.19781712117E+02  0.11439730015E+03  0.20464011556E+02  0.11797849035E+03  0.47000000000E+01 0. -1.
        -15    1    4    4    0    0 -0.37470125021E+02  0.20543912128E+02  0.14579957790E+02  0.45186231230E+02  0.17770000000E+01 0.  1.
         16    1    4    4    0    0  0.17890033252E+02 -0.37485488669E+02  0.12331411034E+02  0.43327576076E+02  0.00000000000E+00 0. -1.
         -5    1    5    5    0  502  0.41037869908E+02 -0.54313139647E+02  0.32133976596E+02  0.75423513288E+02  0.47000000000E+01 0.  1.
         15    1    6    6    0    0  0.25379998834E+02  0.53175605865E+01 -0.70069136875E+02  0.74734613552E+02  0.17770000000E+01 0. -1.
        -16    1    6    6    0    0 -0.27056064856E+02 -0.48460144553E+02 -0.37794013030E+02  0.67147625993E+02  0.00000000000E+00 0.  1.
<mgrwt>
<rscale>  2 0.20300513E+03</rscale>
<asrwt>0</asrwt>
<pdfrwt beam="1">  1       21 0.30418789E-01 0.20368329E+03</pdfrwt>
<pdfrwt beam="2">  1       21 0.34780911E-01 0.20368329E+03</pdfrwt>
<totfact> 0.82256259E+04</totfact>
</mgrwt>
</event>
<event>
12    2  0.4090627E-002  0.1969272E+03  0.7546771E-02  0.1153235E+00
         21   -1    0    0  501  502  0.00000000000E+00  0.00000000000E+00  0.16982869283E+03  0.16982869283E+03  0.00000000000E+00 0. -1.
         21   -1    0    0  502  503 -0.00000000000E+00 -0.00000000000E+00 -0.60245654190E+03  0.60245654190E+03  0.00000000000E+00 0. -1.
         -6    2    1    2    0  503  0.30860023675E+02 -0.80155698592E+02 -0.52331105771E+03  0.55913755365E+03  0.17720909599E+03 0.  0.
        -24    2    3    3    0    0  0.39146867528E+01 -0.58978854620E+02 -0.12622683872E+03  0.16054944937E+03  0.79681119567E+02 0.  0.
          6    2    1    2  501    0 -0.30860023675E+02  0.80155698592E+02  0.90683208633E+02  0.21314768108E+03  0.17271714606E+03 0.  0.
         24    2    5    5    0    0 -0.82040334004E+02  0.30334971358E+02  0.38214431795E+02  0.12439751730E+03  0.79772004005E+02 0.  0.
          5    1    5    5  501    0  0.51180310329E+02  0.49820727234E+02  0.52468776839E+02  0.88750163777E+02  0.47000000000E+01 0. -1.
        -15    1    6    6    0    0 -0.67526310732E+02  0.47617654450E+01  0.57830168958E+02  0.89050340943E+02  0.17770000000E+01 0.  1.
         16    1    6    6    0    0 -0.14514023272E+02  0.25573205913E+02 -0.19615737164E+02  0.35347176361E+02  0.00000000000E+00 0. -1.
         -5    1    3    3    0  503  0.26945336922E+02 -0.21176843972E+02 -0.39708421899E+03  0.39858810428E+03  0.47000000000E+01 0.  1.
         15    1    4    4    0    0 -0.82642376308E+01 -0.36587116546E+02 -0.12951488490E+03  0.13484872213E+03  0.17770000000E+01 0. -1.
        -16    1    4    4    0    0  0.12178924384E+02 -0.22391738074E+02  0.32880461776E+01  0.25700727242E+02  0.00000000000E+00 0.  1.
<mgrwt>
<rscale>  2 0.19591136E+03</rscale>
<asrwt>0</asrwt>
<pdfrwt beam="1">  1       21 0.26127491E-01 0.19692725E+03</pdfrwt>
<pdfrwt beam="2">  1       21 0.92685624E-01 0.19692725E+03</pdfrwt>
<totfact> 0.13621255E+04</totfact>
</mgrwt>
</event>
<event>
12    2  0.4090627E-002  0.1899439E+03  0.7546771E-02  0.1158661E+00
         21   -1    0    0  501  502  0.00000000000E+00  0.00000000000E+00  0.11178365484E+03  0.11178365484E+03  0.00000000000E+00 0. -1.
         21   -1    0    0  502  503 -0.00000000000E+00 -0.00000000000E+00 -0.32268677966E+03  0.32268677966E+03  0.00000000000E+00 0. -1.
         -6    2    1    2    0  503 -0.36130089823E+02  0.70067529770E+02 -0.11767076012E+03  0.22287897924E+03  0.17208657554E+03 0.  0.
        -24    2    3    3    0    0 -0.55061885157E+02  0.39115402263E+02 -0.14379383999E+03  0.17792397536E+03  0.80115208911E+02 0.  0.
          6    2    1    2  501    0  0.36130089823E+02 -0.70067529770E+02 -0.93232364698E+02  0.21159145527E+03  0.17281153896E+03 0.  0.
         24    2    5    5    0    0  0.67410170538E+02  0.15910903035E+02 -0.82848146595E+02  0.11939245125E+03  0.50925966783E+02 0.  0.
          5    1    5    5  501    0 -0.31280080715E+02 -0.85978432805E+02 -0.10384218103E+02  0.92199004023E+02  0.47000000000E+01 0. -1.
        -15    1    6    6    0    0  0.21898250708E+01  0.14722274539E+02 -0.36249982816E+02  0.39227027476E+02  0.17770000000E+01 0.  1.
         16    1    6    6    0    0  0.65220345467E+02  0.11886284957E+01 -0.46598163779E+02  0.80165423770E+02  0.00000000000E+00 0. -1.
         -5    1    3    3    0  503  0.18931795334E+02  0.30952127507E+02  0.26123079868E+02  0.44955003877E+02  0.47000000000E+01 0.  1.
         15    1    4    4    0    0 -0.55449037570E+02  0.61051517158E+02 -0.11927129170E+03  0.14501959270E+03  0.17770000000E+01 0. -1.
        -16    1    4    4    0    0  0.38715241347E+00 -0.21936114895E+02 -0.24522548289E+02  0.32904382660E+02  0.00000000000E+00 0.  1.
<mgrwt>
<rscale>  2 0.18977881E+03</rscale>
<asrwt>0</asrwt>
<pdfrwt beam="1">  1       21 0.17197486E-01 0.18994386E+03</pdfrwt>
<pdfrwt beam="2">  1       21 0.49644119E-01 0.18994386E+03</pdfrwt>
<totfact> 0.11823565E+05</totfact>
</mgrwt>
</event>
<event>
12    2  0.4090627E-002  0.2525382E+03  0.7546771E-02  0.1112114E+00
         21   -1    0    0  503  502  0.00000000000E+00  0.00000000000E+00  0.31736166661E+03  0.31736166661E+03  0.00000000000E+00 0. -1.
         21   -1    0    0  501  503 -0.00000000000E+00 -0.00000000000E+00 -0.21411673072E+03  0.21411673072E+03  0.00000000000E+00 0. -1.
          6    2    1    2  501    0 -0.53659129004E+02 -0.17285222745E+03 -0.19422989229E+02  0.25072411890E+03  0.17241849271E+03 0.  0.
         24    2    3    3    0    0 -0.64223384838E+02 -0.79077232730E+02  0.44419459029E+02  0.13669210000E+03  0.79585111456E+02 0.  0.
         -6    2    1    2    0  502  0.53659129004E+02  0.17285222745E+03  0.12266792512E+03  0.28075427842E+03  0.17612027237E+03 0.  0.
        -24    2    5    5    0    0  0.47151063687E+02  0.28718589045E+02  0.94008246456E+02  0.13357979757E+03  0.77188287667E+02 0.  0.
          5    1    3    3  501    0  0.10564255834E+02 -0.93774994719E+02 -0.63842448257E+02  0.11403201890E+03  0.47000000000E+01 0. -1.
        -15    1    4    4    0    0 -0.50304437159E+00 -0.39151969964E+02  0.47315288896E+02  0.61441224744E+02  0.17770000000E+01 0.  1.
         16    1    4    4    0    0 -0.63720340467E+02 -0.39925262766E+02 -0.28958298671E+01  0.75250875255E+02  0.00000000000E+00 0. -1.
         -5    1    5    5    0  502  0.65080653167E+01  0.14413363840E+03  0.28659678663E+02  0.14717448085E+03  0.47000000000E+01 0.  1.
         15    1    6    6    0    0  0.29889699918E+02  0.37227756957E+02  0.11884208475E+02  0.49231008413E+02  0.17770000000E+01 0. -1.
        -16    1    6    6    0    0  0.17261363769E+02 -0.85091679121E+01  0.82124037980E+02  0.84348789155E+02  0.00000000000E+00 0.  1.
<mgrwt>
<rscale>  2 0.25189386E+03</rscale>
<asrwt>0</asrwt>
<pdfrwt beam="1">  1       21 0.48824872E-01 0.25253821E+03</pdfrwt>
<pdfrwt beam="2">  1       21 0.32941035E-01 0.25253821E+03</pdfrwt>
<totfact> 0.34509562E+04</totfact>
</mgrwt>
</event>
<event>
12    2  0.4090627E-002  0.1975012E+03  0.7546771E-02  0.1153210E+00
         21   -1    0    0  503  502  0.00000000000E+00  0.00000000000E+00  0.31365235387E+03  0.31365235387E+03  0.00000000000E+00 0.  1.
         21   -1    0    0  501  503 -0.00000000000E+00 -0.00000000000E+00 -0.48098054862E+03  0.48098054862E+03  0.00000000000E+00 0. -1.
          6    2    1    2  501    0  0.57916027249E+02  0.61842059328E+02 -0.42728114839E+03  0.46816352413E+03  0.17154940699E+03 0.  0.
         24    2    3    3    0    0 -0.32741231892E+02  0.42671211750E+02 -0.19013942210E+03  0.21351759665E+03  0.80894645465E+02 0.  0.
         -6    2    1    2    0  502 -0.57916027249E+02 -0.61842059328E+02  0.25995295365E+03  0.32646937836E+03  0.17840406493E+03 0.  0.
        -24    2    5    5    0    0 -0.59957651329E+01  0.53928216935E+01  0.37045818326E+02  0.87877836557E+02  0.79278558117E+02 0.  0.
          5    1    3    3  501    0  0.90657259141E+02  0.19170847578E+02 -0.23714172629E+03  0.25464592747E+03  0.47000000000E+01 0. -1.
        -15    1    4    4    0    0  0.29669677030E+01 -0.22445441449E+02 -0.39384592330E+02  0.45463222292E+02  0.17770000000E+01 0.  1.
         16    1    4    4    0    0 -0.35708199595E+02  0.65116653199E+02 -0.15075482977E+03  0.16805437436E+03  0.00000000000E+00 0. -1.
         -5    1    5    5    0  502 -0.51920262116E+02 -0.67234881021E+02  0.22290713532E+03  0.23859154181E+03  0.47000000000E+01 0.  1.
         15    1    6    6    0    0 -0.24485685528E+02  0.64973094267E+01 -0.17123597940E+02  0.30629057461E+02  0.17770000000E+01 0. -1.
        -16    1    6    6    0    0  0.18489920395E+02 -0.11044877332E+01  0.54169416265E+02  0.57248779095E+02  0.00000000000E+00 0.  1.
<mgrwt>
<rscale>  2 0.19594047E+03</rscale>
<asrwt>0</asrwt>
<pdfrwt beam="1">  1       21 0.48254209E-01 0.19750118E+03</pdfrwt>
<pdfrwt beam="2">  1       21 0.73997007E-01 0.19750118E+03</pdfrwt>
<totfact> 0.66976665E+03</totfact>
</mgrwt>
</event>
<event>
12    2  0.4090627E-002  0.1836030E+03  0.7546771E-02  0.1164438E+00
         21   -1    0    0  503  502  0.00000000000E+00  0.00000000000E+00  0.71661362933E+03  0.71661362933E+03  0.00000000000E+00 0. -1.
         21   -1    0    0  501  503 -0.00000000000E+00 -0.00000000000E+00 -0.13438592875E+03  0.13438592875E+03  0.00000000000E+00 0. -1.
          6    2    1    2  501    0  0.35262041084E+02  0.44697043616E+02 -0.52178996471E+02  0.19055887047E+03  0.17420906461E+03 0.  0.
         24    2    3    3    0    0  0.63087684288E+02  0.49218240825E+02  0.15526752745E+02  0.11706828521E+03  0.84032209379E+02 0.  0.
         -6    2    1    2    0  502 -0.35262041084E+02 -0.44697043616E+02  0.63440669705E+03  0.66044068762E+03  0.17455316483E+03 0.  0.
        -24    2    5    5    0    0 -0.18457423508E+01 -0.72157906554E+02  0.58398775187E+03  0.59384558234E+03  0.80004444162E+02 0.  0.
          5    1    3    3  501    0 -0.27825643204E+02 -0.45211972087E+01 -0.67705749216E+02  0.73490585253E+02  0.47000000000E+01 0. -1.
        -15    1    4    4    0    0  0.54135513824E+01  0.73755418757E+01  0.40504770300E+02  0.41563196492E+02  0.17770000000E+01 0.  1.
         16    1    4    4    0    0  0.57674132906E+02  0.41842698949E+02 -0.24978017555E+02  0.75505088721E+02  0.00000000000E+00 0. -1.
         -5    1    5    5    0  502 -0.33416298734E+02  0.27460862939E+02  0.50418945181E+02  0.66595105282E+02  0.47000000000E+01 0.  1.
         15    1    6    6    0    0  0.30225779775E+02 -0.25132677298E+02  0.38104796789E+03  0.38307435413E+03  0.17770000000E+01 0. -1.
        -16    1    6    6    0    0 -0.32071522125E+02 -0.47025229257E+02  0.20293978398E+03  0.21077122821E+03  0.00000000000E+00 0.  1.
<mgrwt>
<rscale>  2 0.18352112E+03</rscale>
<asrwt>0</asrwt>
<pdfrwt beam="1">  1       21 0.11024825E+00 0.18360295E+03</pdfrwt>
<pdfrwt beam="2">  1       21 0.20674759E-01 0.18360295E+03</pdfrwt>
<totfact> 0.14176836E+04</totfact>
</mgrwt>
</event>
<event>
12    2  0.4090627E-002  0.1879100E+03  0.7546771E-02  0.1160589E+00
         21   -1    0    0  503  502  0.00000000000E+00  0.00000000000E+00  0.68209105479E+03  0.68209105479E+03  0.00000000000E+00 0. -1.
         21   -1    0    0  501  503 -0.00000000000E+00 -0.00000000000E+00 -0.11148510138E+03  0.11148510138E+03  0.00000000000E+00 0.  1.
          6    2    1    2  501    0  0.71135198994E+02  0.34804148291E+01 -0.61192542380E+01  0.18701030211E+03  0.17280936896E+03 0.  0.
         24    2    3    3    0    0 -0.10975250448E+02  0.43925913895E+02 -0.19441682215E+02  0.94395285026E+02  0.80514276956E+02 0.  0.
         -6    2    1    2    0  502 -0.71135198994E+02 -0.34804148291E+01  0.57672520764E+03  0.60656585406E+03  0.17389031127E+03 0.  0.
        -24    2    5    5    0    0 -0.20406911758E+02  0.61998361440E+02  0.35278016520E+03  0.36774730096E+03  0.80771242016E+02 0.  0.
          5    1    3    3  501    0  0.82110449441E+02 -0.40445499066E+02  0.13322427977E+02  0.92615017084E+02  0.47000000000E+01 0. -1.
        -15    1    4    4    0    0  0.24315848781E+01 -0.22575431116E+02  0.29282296899E+01  0.22962903850E+02  0.17770000000E+01 0.  1.
         16    1    4    4    0    0 -0.13406835326E+02  0.66501345012E+02 -0.22369911905E+02  0.71432381176E+02  0.00000000000E+00 0. -1.
         -5    1    5    5    0  502 -0.50728287235E+02 -0.65478776269E+02  0.22394504245E+03  0.23881855310E+03  0.47000000000E+01 0.  1.
         15    1    6    6    0    0 -0.34336140892E+02  0.31222575545E+02  0.30889065305E+03  0.31236263071E+03  0.17770000000E+01 0. -1.
        -16    1    6    6    0    0  0.13929229133E+02  0.30775785895E+02  0.43889512147E+02  0.55384670246E+02  0.00000000000E+00 0.  1.
<mgrwt>
<rscale>  2 0.18765954E+03</rscale>
<asrwt>0</asrwt>
<pdfrwt beam="1">  1       21 0.10493708E+00 0.18791001E+03</pdfrwt>
<pdfrwt beam="2">  1       21 0.17151554E-01 0.18791001E+03</pdfrwt>
<totfact> 0.22520279E+04</totfact>
</mgrwt>
</event>
<event>
12    2  0.4090627E-002  0.2253924E+03  0.7546771E-02  0.1130185E+00
         21   -1    0    0  501  502  0.00000000000E+00  0.00000000000E+00  0.14166937471E+03  0.14166937471E+03  0.00000000000E+00 0. -1.
         21   -1    0    0  502  503 -0.00000000000E+00 -0.00000000000E+00 -0.35869015461E+03  0.35869015461E+03  0.00000000000E+00 0. -1.
         -6    2    1    2    0  503 -0.12621599591E+03 -0.66228321863E+02 -0.88522734220E+02  0.24215287619E+03  0.17459975009E+03 0.  0.
        -24    2    3    3    0    0 -0.12979810237E+03 -0.40434987205E+02 -0.96868673107E+01  0.15899452417E+03  0.81871165542E+02 0.  0.
          6    2    1    2  501    0  0.12621599591E+03  0.66228321863E+02 -0.12849804568E+03  0.25820665314E+03  0.17274912371E+03 0.  0.
         24    2    5    5    0    0  0.60124976358E+02  0.47771984438E+02  0.15485097034E+01  0.11109154235E+03  0.80260560798E+02 0.  0.
          5    1    5    5  501    0  0.66091019550E+02  0.18456337425E+02 -0.13004655538E+03  0.14711511079E+03  0.47000000000E+01 0. -1.
        -15    1    6    6    0    0  0.60892451895E+02  0.63953693617E+02 -0.13051860876E+02  0.89283113892E+02  0.17770000000E+01 0.  1.
         16    1    6    6    0    0 -0.76747553726E+00 -0.16181709179E+02  0.14600370579E+02  0.21808428455E+02  0.00000000000E+00 0. -1.
         -5    1    3    3    0  503  0.35821064656E+01 -0.25793334658E+02 -0.78835866909E+02  0.83158352021E+02  0.47000000000E+01 0.  1.
         15    1    4    4    0    0 -0.59042441092E+02  0.22786852270E+02 -0.10069164715E+02  0.64107692936E+02  0.17770000000E+01 0. -1.
        -16    1    4    4    0    0 -0.70755661282E+02 -0.63221839476E+02  0.38229740430E+00  0.94886831233E+02  0.00000000000E+00 0.  1.
<mgrwt>
<rscale>  2 0.22503393E+03</rscale>
<asrwt>0</asrwt>
<pdfrwt beam="1">  1       21 0.21795289E-01 0.22539242E+03</pdfrwt>
<pdfrwt beam="2">  1       21 0.55183100E-01 0.22539242E+03</pdfrwt>
<totfact> 0.59961186E+04</totfact>
</mgrwt>
</event>
<event>
12    2  0.4090627E-002  0.2593515E+03  0.7546771E-02  0.1107624E+00
         21   -1    0    0  503  502  0.00000000000E+00  0.00000000000E+00  0.25720579790E+04  0.25720579790E+04  0.00000000000E+00 0.  1.
         21   -1    0    0  501  503 -0.00000000000E+00 -0.00000000000E+00 -0.26272624504E+02  0.26272624504E+02  0.00000000000E+00 0.  1.
          6    2    1    2  501    0  0.13532365234E+03  0.13741415006E+03  0.11664163180E+04  0.11949017644E+04  0.17340144165E+03 0.  0.
         24    2    3    3    0    0  0.15460645712E+03  0.90679509589E+02  0.74691004004E+03  0.77233394678E+03  0.80617537699E+02 0.  0.
         -6    2    1    2    0  502 -0.13532365234E+03 -0.13741415006E+03  0.13793690364E+04  0.14034288391E+04  0.17250631374E+03 0.  0.
        -24    2    5    5    0    0 -0.49516969783E+02 -0.34856892887E+02  0.92238807250E+03  0.92726240901E+03  0.73136075803E+02 0.  0.
          5    1    3    3  501    0 -0.19282804781E+02  0.46734640472E+02  0.41950627799E+03  0.42256781758E+03  0.47000000000E+01 0. -1.
        -15    1    4    4    0    0  0.87258686177E+02  0.26859527856E+02  0.50601197621E+03  0.51418556022E+03  0.17770000000E+01 0.  1.
         16    1    4    4    0    0  0.67347770946E+02  0.63819981733E+02  0.24089806384E+03  0.25814838655E+03  0.00000000000E+00 0. -1.
         -5    1    5    5    0  502 -0.85806682559E+02 -0.10255725717E+03  0.45698096394E+03  0.47616643012E+03  0.47000000000E+01 0.  1.
         15    1    6    6    0    0 -0.20285607670E+02  0.20832346690E+02  0.40898391046E+03  0.41002010840E+03  0.17770000000E+01 0. -1.
        -16    1    6    6    0    0 -0.29231362113E+02 -0.55689239577E+02  0.51340416204E+03  0.51724230060E+03  0.00000000000E+00 0.  1.
<mgrwt>
<rscale>  2 0.25920196E+03</rscale>
<asrwt>0</asrwt>
<pdfrwt beam="1">  1       21 0.39570103E+00 0.25935150E+03</pdfrwt>
<pdfrwt beam="2">  1       21 0.40419443E-02 0.25935150E+03</pdfrwt>
<totfact> 0.32928936E+03</totfact>
</mgrwt>
</event>
<event>
12    2  0.4090627E-002  0.2561255E+03  0.7546771E-02  0.1109945E+00
         21   -1    0    0  503  502  0.00000000000E+00  0.00000000000E+00  0.73415392852E+03  0.73415392852E+03  0.00000000000E+00 0.  1.
         21   -1    0    0  501  503 -0.00000000000E+00 -0.00000000000E+00 -0.96409308206E+02  0.96409308206E+02  0.00000000000E+00 0.  1.
          6    2    1    2  501    0 -0.11852222360E+03  0.14194603288E+03  0.19701965880E+03  0.32081939344E+03  0.17295127497E+03 0.  0.
         24    2    3    3    0    0 -0.17865098218E+02  0.10286157533E+03  0.15922629076E+03  0.20632100751E+03  0.79471259308E+02 0.  0.
         -6    2    1    2    0  502  0.11852222360E+03 -0.14194603288E+03  0.44072496151E+03  0.50974384329E+03  0.17721202085E+03 0.  0.
        -24    2    5    5    0    0  0.92009612533E+02 -0.15925948492E+02  0.26178705157E+03  0.28923342215E+03  0.80025667675E+02 0.  0.
          5    1    3    3  501    0 -0.10065712539E+03  0.39084457550E+02  0.37793368039E+02  0.11449838593E+03  0.47000000000E+01 0. -1.
        -15    1    4    4    0    0  0.32982821807E+01  0.73018254574E+02  0.43787721109E+02  0.85223625922E+02  0.17770000000E+01 0.  1.
         16    1    4    4    0    0 -0.21163380399E+02  0.29843320756E+02  0.11543856965E+03  0.12109738159E+03  0.00000000000E+00 0. -1.
         -5    1    5    5    0  502  0.26512611071E+02 -0.12602008439E+03  0.17893790994E+03  0.22051042114E+03  0.47000000000E+01 0.  1.
         15    1    6    6    0    0  0.63257679450E+01  0.17861740135E+01 -0.50113775265E+01  0.84544302832E+01  0.17770000000E+01 0. -1.
        -16    1    6    6    0    0  0.85683844588E+02 -0.17712122506E+02  0.26679842910E+03  0.28077899187E+03  0.00000000000E+00 0.  1.
<mgrwt>
<rscale>  2 0.25539006E+03</rscale>
<asrwt>0</asrwt>
<pdfrwt beam="1">  1       21 0.11294675E+00 0.25612554E+03</pdfrwt>
<pdfrwt beam="2">  1       21 0.14832202E-01 0.25612554E+03</pdfrwt>
<totfact> 0.23687103E+04</totfact>
</mgrwt>
</event>
<event>
12    2  0.4090627E-002  0.1878971E+03  0.7546771E-02  0.1161047E+00
         21   -1    0    0  503  502  0.00000000000E+00  0.00000000000E+00  0.41054404948E+02  0.41054404948E+02  0.00000000000E+00 0. -1.
         21   -1    0    0  501  503 -0.00000000000E+00 -0.00000000000E+00 -0.90361560174E+03  0.90361560174E+03  0.00000000000E+00 0. -1.
          6    2    1    2  501    0  0.52516747790E+02 -0.31807433803E+02 -0.55306557263E+03  0.58411201314E+03  0.17758264167E+03 0.  0.
         24    2    3    3    0    0  0.68166412312E+02  0.35716749221E+02 -0.25583626763E+03  0.27887148987E+03  0.79967281361E+02 0.  0.
         -6    2    1    2    0  502 -0.52516747790E+02  0.31807433803E+02 -0.30949562417E+03  0.36055799355E+03  0.17448439383E+03 0.  0.
        -24    2    5    5    0    0 -0.68700412695E+02  0.64842650601E+02 -0.29633219662E+03  0.32120570793E+03  0.80224809223E+02 0.  0.
          5    1    3    3  501    0 -0.15649664522E+02 -0.67524183024E+02 -0.29722930500E+03  0.30524052326E+03  0.47000000000E+01 0. -1.
        -15    1    4    4    0    0  0.55328706028E+01  0.36900037885E+02 -0.42766232475E+02  0.56783217786E+02  0.17770000000E+01 0.  1.
         16    1    4    4    0    0  0.62633541709E+02 -0.11832886641E+01 -0.21307003515E+03  0.22208827209E+03  0.00000000000E+00 0. -1.
         -5    1    5    5    0  502  0.16183664905E+02 -0.33035216798E+02 -0.13163427551E+02  0.39352285620E+02  0.47000000000E+01 0.  1.
         15    1    6    6    0    0 -0.59644162721E+02  0.81970146689E+02 -0.21662931164E+03  0.23918182933E+03  0.17770000000E+01 0. -1.
        -16    1    6    6    0    0 -0.90562499739E+01 -0.17127496088E+02 -0.79702884984E+02  0.82023878600E+02  0.00000000000E+00 0.  1.
<mgrwt>
<rscale>  2 0.18716143E+03</rscale>
<asrwt>0</asrwt>
<pdfrwt beam="1">  1       21 0.63160624E-02 0.18789709E+03</pdfrwt>
<pdfrwt beam="2">  1       21 0.13901778E+00 0.18789709E+03</pdfrwt>
<totfact> 0.65956390E+04</totfact>
</mgrwt>
</event>
<event>
12    2  0.4090627E-002  0.2074529E+03  0.7546771E-02  0.1143685E+00
         21   -1    0    0  501  502  0.00000000000E+00  0.00000000000E+00  0.72694975376E+03  0.72694975376E+03  0.00000000000E+00 0. -1.
         21   -1    0    0  502  503 -0.00000000000E+00 -0.00000000000E+00 -0.93202499075E+02  0.93202499075E+02  0.00000000000E+00 0.  1.
         -6    2    1    2    0  503 -0.48715311736E+02  0.10269326796E+03  0.56520703126E+03  0.60207613944E+03  0.17354423246E+03 0.  0.
        -24    2    3    3    0    0  0.26948719413E+02  0.22210833151E+02  0.34970085732E+03  0.35986245500E+03  0.77399885825E+02 0.  0.
          6    2    1    2  501    0  0.48715311736E+02 -0.10269326796E+03  0.68540223430E+02  0.21807611340E+03  0.17303277182E+03 0.  0.
         24    2    5    5    0    0  0.47665013197E+02 -0.70765132317E+02 -0.24368578102E+02  0.11971634329E+03  0.80364904145E+02 0.  0.
          5    1    5    5  501    0  0.10502985388E+01 -0.31928135641E+02  0.92908801532E+02  0.98359770103E+02  0.47000000000E+01 0. -1.
        -15    1    6    6    0    0  0.61688084430E+02 -0.75543995594E+02 -0.83606361301E+01  0.97904918142E+02  0.17770000000E+01 0.  1.
         16    1    6    6    0    0 -0.14023071233E+02  0.47788632767E+01 -0.16007941972E+02  0.21811425153E+02  0.00000000000E+00 0. -1.
         -5    1    3    3    0  503 -0.75664031149E+02  0.80482434807E+02  0.21550617394E+03  0.24221368444E+03  0.47000000000E+01 0.  1.
         15    1    4    4    0    0 -0.84732351285E+01  0.36767834161E+02  0.25383699383E+03  0.25663212291E+03  0.17770000000E+01 0. -1.
        -16    1    4    4    0    0  0.35421954541E+02 -0.14557001010E+02  0.95863863482E+02  0.10323033209E+03  0.00000000000E+00 0.  1.
<mgrwt>
<rscale>  2 0.20734586E+03</rscale>
<asrwt>0</asrwt>
<pdfrwt beam="1">  1       21 0.11183842E+00 0.20745286E+03</pdfrwt>
<pdfrwt beam="2">  1       21 0.14338846E-01 0.20745286E+03</pdfrwt>
<totfact> 0.26479111E+04</totfact>
</mgrwt>
</event>
<event>
12    2  0.4090627E-002  0.2029975E+03  0.7546771E-02  0.1149873E+00
         21   -1    0    0  501  502  0.00000000000E+00  0.00000000000E+00  0.38179773057E+03  0.38179773057E+03  0.00000000000E+00 0.  1.
         21   -1    0    0  502  503 -0.00000000000E+00 -0.00000000000E+00 -0.11361467829E+03  0.11361467829E+03  0.00000000000E+00 0.  1.
         -6    2    1    2    0  503  0.23234668995E+02 -0.77903336795E+02  0.56903474458E+02  0.21082222357E+03  0.18600866867E+03 0.  0.
        -24    2    3    3    0    0  0.34785003447E+02 -0.10314661433E+03 -0.12473469592E+02  0.13594977436E+03  0.80483123645E+02 0.  0.
          6    2    1    2  501    0 -0.23234668995E+02  0.77903336795E+02  0.21127957782E+03  0.28459018528E+03  0.17246371742E+03 0.  0.
         24    2    5    5    0    0  0.15624140746E+02  0.46184251411E+02  0.21423086106E+03  0.23412328975E+03  0.80881111006E+02 0.  0.
          5    1    5    5  501    0 -0.38858809741E+02  0.31719085384E+02 -0.29512832382E+01  0.50466895535E+02  0.47000000000E+01 0. -1.
        -15    1    6    6    0    0  0.65269125481E+00  0.67870657536E+02  0.14747082187E+03  0.16235040250E+03  0.17770000000E+01 0.  1.
         16    1    6    6    0    0  0.14971449491E+02 -0.21686406125E+02  0.66760039197E+02  0.71772887249E+02  0.00000000000E+00 0. -1.
         -5    1    3    3    0  503 -0.11550334451E+02  0.25243277531E+02  0.69376944050E+02  0.74872449219E+02  0.47000000000E+01 0.  1.
         15    1    4    4    0    0  0.16724434617E+02  0.14050683527E+01  0.18870491270E+02  0.25316676324E+02  0.17770000000E+01 0. -1.
        -16    1    4    4    0    0  0.18060568830E+02 -0.10455168268E+03 -0.31343960862E+02  0.11063309803E+03  0.00000000000E+00 0.  1.
<mgrwt>
<rscale>  2 0.19984114E+03</rscale>
<asrwt>0</asrwt>
<pdfrwt beam="1">  1       21 0.58738112E-01 0.20299755E+03</pdfrwt>
<pdfrwt beam="2">  1       21 0.17479182E-01 0.20299755E+03</pdfrwt>
<totfact> 0.80022352E+04</totfact>
</mgrwt>
</event>
<event>
12    2  0.4090627E-002  0.2268325E+03  0.7546771E-02  0.1128987E+00
         21   -1    0    0  501  502  0.00000000000E+00  0.00000000000E+00  0.14763496621E+04  0.14763496621E+04  0.00000000000E+00 0. -1.
         21   -1    0    0  502  503 -0.00000000000E+00 -0.00000000000E+00 -0.16300091271E+03  0.16300091271E+03  0.00000000000E+00 0. -1.
         -6    2    1    2    0  503  0.13684058949E+03 -0.52449278394E+02 -0.70514900053E+02  0.23701980257E+03  0.17242320593E+03 0.  0.
        -24    2    3    3    0    0  0.56933515947E+02 -0.85294650059E+02 -0.83719358883E+01  0.13049376426E+03  0.80261638619E+02 0.  0.
          6    2    1    2  501    0 -0.13684058949E+03  0.52449278394E+02  0.13838636494E+04  0.14023307722E+04  0.17313786641E+03 0.  0.
         24    2    5    5    0    0 -0.67765375871E+02 -0.13035251655E+02  0.10464242860E+04  0.10516927498E+04  0.79320801805E+02 0.  0.
          5    1    5    5  501    0 -0.69075213616E+02  0.65484530049E+02  0.33743936341E+03  0.35063802246E+03  0.47000000000E+01 0. -1.
        -15    1    6    6    0    0  0.73436585813E+01 -0.24062164637E+02  0.15463763046E+03  0.15668079516E+03  0.17770000000E+01 0.  1.
         16    1    6    6    0    0 -0.75109034452E+02  0.11026912983E+02  0.89178665554E+03  0.89501195459E+03  0.00000000000E+00 0. -1.
         -5    1    3    3    0  503  0.79907073540E+02  0.32845371665E+02 -0.62142964165E+02  0.10652603830E+03  0.47000000000E+01 0.  1.
         15    1    4    4    0    0  0.62442220993E+02 -0.30144273014E+02 -0.23168940462E+02  0.73127735430E+02  0.17770000000E+01 0. -1.
        -16    1    4    4    0    0 -0.55087050457E+01 -0.55150377045E+02  0.14797004574E+02  0.57366028831E+02  0.00000000000E+00 0.  1.
<mgrwt>
<rscale>  2 0.22669615E+03</rscale>
<asrwt>0</asrwt>
<pdfrwt beam="1">  1       21 0.22713071E+00 0.22683253E+03</pdfrwt>
<pdfrwt beam="2">  1       21 0.25077065E-01 0.22683253E+03</pdfrwt>
<totfact> 0.13210375E+03</totfact>
</mgrwt>
</event>
<event>
12    2  0.4090627E-002  0.1898295E+03  0.7546771E-02  0.1159617E+00
         21   -1    0    0  501  502  0.00000000000E+00  0.00000000000E+00  0.21516300899E+03  0.21516300899E+03  0.00000000000E+00 0.  1.
         21   -1    0    0  502  503 -0.00000000000E+00 -0.00000000000E+00 -0.16364707305E+03  0.16364707305E+03  0.00000000000E+00 0.  1.
         -6    2    1    2    0  503  0.39494188080E+02 -0.59770405598E+02  0.27149267592E+02  0.18742313297E+03  0.17104986339E+03 0.  0.
        -24    2    3    3    0    0  0.10644896623E+02  0.24065603997E+02  0.46928619551E+02  0.96461212993E+02  0.80062495335E+02 0.  0.
          6    2    1    2  501    0 -0.39494188080E+02  0.59770405598E+02  0.24366668347E+02  0.19138694907E+03  0.17579231346E+03 0.  0.
         24    2    5    5    0    0 -0.41552250999E+02  0.15752825656E+02 -0.49893762096E+02  0.10490871773E+03  0.80880841243E+02 0.  0.
          5    1    5    5  501    0  0.20580629193E+01  0.44017579942E+02  0.74260430444E+02  0.86478231345E+02  0.47000000000E+01 0. -1.
        -15    1    6    6    0    0 -0.12085633930E+02  0.39287825605E+02  0.14913789996E+01  0.41170107221E+02  0.17770000000E+01 0.  1.
         16    1    6    6    0    0 -0.29466617069E+02 -0.23534999949E+02 -0.51385141096E+02  0.63738610508E+02  0.00000000000E+00 0. -1.
         -5    1    3    3    0  503  0.28849291457E+02 -0.83836009595E+02 -0.19779351959E+02  0.90961919980E+02  0.47000000000E+01 0.  1.
         15    1    4    4    0    0  0.12182009978E+02  0.47674300493E+02  0.65635847386E+01  0.49673722110E+02  0.17770000000E+01 0. -1.
        -16    1    4    4    0    0 -0.15371133554E+01 -0.23608696496E+02  0.40365034813E+02  0.46787490883E+02  0.00000000000E+00 0.  1.
<mgrwt>
<rscale>  2 0.18872408E+03</rscale>
<asrwt>0</asrwt>
<pdfrwt beam="1">  1       21 0.33102001E-01 0.18982948E+03</pdfrwt>
<pdfrwt beam="2">  1       21 0.25176473E-01 0.18982948E+03</pdfrwt>
<totfact> 0.13144710E+05</totfact>
</mgrwt>
</event>
<event>
12    2  0.4090627E-002  0.1996148E+03  0.7546771E-02  0.1150087E+00
         21   -1    0    0  503  502  0.00000000000E+00  0.00000000000E+00  0.83139833035E+02  0.83139833035E+02  0.00000000000E+00 0. -1.
         21   -1    0    0  501  503 -0.00000000000E+00 -0.00000000000E+00 -0.65369650242E+03  0.65369650242E+03  0.00000000000E+00 0. -1.
          6    2    1    2  501    0  0.53777156904E+02 -0.83115001985E+02 -0.47567195392E+03  0.51581785822E+03  0.17321711510E+03 0.  0.
         24    2    3    3    0    0  0.65452713609E+02 -0.59287904486E+02 -0.15827685794E+03  0.19728091194E+03  0.77904307447E+02 0.  0.
         -6    2    1    2    0  502 -0.53777156904E+02  0.83115001985E+02 -0.94884715468E+02  0.22101847723E+03  0.17333773936E+03 0.  0.
        -24    2    5    5    0    0 -0.10184465539E+03  0.71413321820E+02 -0.56626378475E+02  0.15830321530E+03  0.79882193709E+02 0.  0.
          5    1    3    3  501    0 -0.11675556705E+02 -0.23827097499E+02 -0.31739509598E+03  0.31853694629E+03  0.47000000000E+01 0. -1.
        -15    1    4    4    0    0  0.78379905697E+01 -0.95641926884E+01 -0.10166435142E+03  0.10242902888E+03  0.17770000000E+01 0.  1.
         16    1    4    4    0    0  0.57614723039E+02 -0.49723711798E+02 -0.56612506517E+02  0.94851883060E+02  0.00000000000E+00 0. -1.
         -5    1    5    5    0  502  0.48067498482E+02  0.11701680165E+02 -0.38258336993E+02  0.62715261926E+02  0.47000000000E+01 0.  1.
         15    1    6    6    0    0 -0.31502459529E+02  0.64128200671E+02 -0.50106466853E+02  0.87284860240E+02  0.17770000000E+01 0. -1.
        -16    1    6    6    0    0 -0.70342195857E+02  0.72851211493E+01 -0.65199116216E+01  0.71018355062E+02  0.00000000000E+00 0.  1.
<mgrwt>
<rscale>  2 0.19958858E+03</rscale>
<asrwt>0</asrwt>
<pdfrwt beam="1">  1       21 0.12790743E-01 0.19961477E+03</pdfrwt>
<pdfrwt beam="2">  1       21 0.10056869E+00 0.19961477E+03</pdfrwt>
<totfact> 0.42233707E+04</totfact>
</mgrwt>
</event>
<event>
12    2  0.4090627E-002  0.2997962E+03  0.7546771E-02  0.1085427E+00
         21   -1    0    0  503  502  0.00000000000E+00  0.00000000000E+00  0.14537577915E+03  0.14537577915E+03  0.00000000000E+00 0. -1.
         21   -1    0    0  501  503 -0.00000000000E+00 -0.00000000000E+00 -0.11116747577E+04  0.11116747577E+04  0.00000000000E+00 0.  1.
          6    2    1    2  501    0  0.92763710907E+02  0.22664006953E+03 -0.90277787699E+03  0.95125476912E+03  0.17293615411E+03 0.  0.
         24    2    3    3    0    0 -0.19701660438E+02  0.98620030559E+02 -0.38242693527E+03  0.40369218577E+03  0.81258563720E+02 0.  0.
         -6    2    1    2    0  502 -0.92763710907E+02 -0.22664006953E+03 -0.63521101510E+02  0.30579576769E+03  0.17177105117E+03 0.  0.
        -24    2    5    5    0    0 -0.13137969893E+03 -0.16259567319E+03 -0.42891939751E+02  0.22807491110E+03  0.80501356179E+02 0.  0.
          5    1    3    3  501    0  0.11246537134E+03  0.12802003897E+03 -0.52035094172E+03  0.54756258335E+03  0.47000000000E+01 0. -1.
        -15    1    4    4    0    0  0.67591799385E+01  0.83641382672E+02 -0.34699691204E+03  0.35700361638E+03  0.17770000000E+01 0.  1.
         16    1    4    4    0    0 -0.26460840376E+02  0.14978647888E+02 -0.35430023226E+02  0.46688569391E+02  0.00000000000E+00 0. -1.
         -5    1    5    5    0  502  0.38615988025E+02 -0.64044396340E+02 -0.20629161759E+02  0.77720856587E+02  0.47000000000E+01 0.  1.
         15    1    6    6    0    0 -0.12183217174E+03 -0.12479123491E+03 -0.61797734314E+01  0.17452013554E+03  0.17770000000E+01 0. -1.
        -16    1    6    6    0    0 -0.95475271901E+01 -0.37804438286E+02 -0.36712166319E+02  0.53554775562E+02  0.00000000000E+00 0.  1.
<mgrwt>
<rscale>  2 0.29962838E+03</rscale>
<asrwt>0</asrwt>
<pdfrwt beam="1">  1       21 0.22365504E-01 0.29979617E+03</pdfrwt>
<pdfrwt beam="2">  1       21 0.17102689E+00 0.29979617E+03</pdfrwt>
<totfact> 0.36286502E+03</totfact>
</mgrwt>
</event>
<event>
12    2  0.4090627E-002  0.1826493E+03  0.7546771E-02  0.1165980E+00
         21   -1    0    0  501  502  0.00000000000E+00  0.00000000000E+00  0.31689948306E+03  0.31689948306E+03  0.00000000000E+00 0. -1.
         21   -1    0    0  502  503 -0.00000000000E+00 -0.00000000000E+00 -0.18487248272E+03  0.18487248272E+03  0.00000000000E+00 0. -1.
         -6    2    1    2    0  503 -0.35099168398E+02  0.39298682257E+02  0.23209668435E+03  0.29350599252E+03  0.17175726683E+03 0.  0.
        -24    2    3    3    0    0  0.31768333981E+02  0.52673829610E+02  0.18443883254E+03  0.21017821635E+03  0.79833829373E+02 0.  0.
          6    2    1    2  501    0  0.35099168398E+02 -0.39298682257E+02 -0.10006968402E+03  0.20826597326E+03  0.17488406419E+03 0.  0.
         24    2    5    5    0    0  0.37926471714E+02 -0.67115824731E+02 -0.39925155646E+01  0.10809262671E+03  0.75664553017E+02 0.  0.
          5    1    5    5  501    0 -0.28273033152E+01  0.27817142474E+02 -0.96077168457E+02  0.10017334655E+03  0.47000000000E+01 0. -1.
        -15    1    6    6    0    0  0.36092943014E+02 -0.25480714389E+02 -0.34798213824E+02  0.56267581746E+02  0.17770000000E+01 0.  1.
         16    1    6    6    0    0  0.18335287000E+01 -0.41635110342E+02  0.30805698259E+02  0.51825044967E+02  0.00000000000E+00 0. -1.
         -5    1    3    3    0  503 -0.66867502380E+02 -0.13375147352E+02  0.47657851818E+02  0.83327776168E+02  0.47000000000E+01 0.  1.
         15    1    4    4    0    0  0.23028778867E+02  0.21831977786E+02  0.17337867802E+03  0.17626764771E+03  0.17770000000E+01 0. -1.
        -16    1    4    4    0    0  0.87395551145E+01  0.30841851824E+02  0.11060154518E+02  0.33910568640E+02  0.00000000000E+00 0.  1.
<mgrwt>
<rscale>  2 0.18189678E+03</rscale>
<asrwt>0</asrwt>
<pdfrwt beam="1">  1       21 0.48753767E-01 0.18264932E+03</pdfrwt>
<pdfrwt beam="2">  1       21 0.28441920E-01 0.18264932E+03</pdfrwt>
<totfact> 0.47693779E+04</totfact>
</mgrwt>
</event>
<event>
12    2  0.4090627E-002  0.1883654E+03  0.7546771E-02  0.1160341E+00
         21   -1    0    0  503  502  0.00000000000E+00  0.00000000000E+00  0.36420297929E+03  0.36420297929E+03  0.00000000000E+00 0. -1.
         21   -1    0    0  501  503 -0.00000000000E+00 -0.00000000000E+00 -0.39479325263E+03  0.39479325263E+03  0.00000000000E+00 0. -1.
          6    2    1    2  501    0 -0.74480011611E+02  0.81959057706E+01 -0.34513446264E+03  0.39236349281E+03  0.17092942457E+03 0.  0.
         24    2    3    3    0    0 -0.46399677159E+02 -0.26010735547E+02 -0.84611428259E+02  0.12806642332E+03  0.80077628503E+02 0.  0.
         -6    2    1    2    0  502  0.74480011611E+02 -0.81959057706E+01  0.31454418930E+03  0.36663273911E+03  0.17282092860E+03 0.  0.
        -24    2    5    5    0    0  0.88394783871E+01  0.44371550801E+02  0.98752036960E+02  0.13498567976E+03  0.80138617647E+02 0.  0.
          5    1    3    3  501    0 -0.28080334452E+02  0.34206641318E+02 -0.26052303438E+03  0.26429706948E+03  0.47000000000E+01 0. -1.
        -15    1    4    4    0    0 -0.49296677075E+02  0.12347725271E+02 -0.70853641294E+02  0.87212527217E+02  0.17770000000E+01 0.  1.
         16    1    4    4    0    0  0.28969999159E+01 -0.38358460819E+02 -0.13757786966E+02  0.40853896107E+02  0.00000000000E+00 0. -1.
         -5    1    5    5    0  502  0.65640533224E+02 -0.52567456572E+02  0.21579215234E+03  0.23164705935E+03  0.47000000000E+01 0.  1.
         15    1    6    6    0    0 -0.19430525257E+00  0.42252991805E+02  0.11148137847E+03  0.11923342042E+03  0.17770000000E+01 0. -1.
        -16    1    6    6    0    0  0.90337836396E+01  0.21185589963E+01 -0.12729341509E+02  0.15752259341E+02  0.00000000000E+00 0.  1.
<mgrwt>
<rscale>  2 0.18793041E+03</rscale>
<asrwt>0</asrwt>
<pdfrwt beam="1">  1       21 0.56031228E-01 0.18836539E+03</pdfrwt>
<pdfrwt beam="2">  1       21 0.60737423E-01 0.18836539E+03</pdfrwt>
<totfact> 0.75927461E+03</totfact>
</mgrwt>
</event>
<event>
12    2  0.4090627E-002  0.2863803E+03  0.7546771E-02  0.1092272E+00
         21   -1    0    0  503  502  0.00000000000E+00  0.00000000000E+00  0.17576464568E+04  0.17576464568E+04  0.00000000000E+00 0.  1.
         21   -1    0    0  501  503 -0.00000000000E+00 -0.00000000000E+00 -0.71547058195E+02  0.71547058195E+02  0.00000000000E+00 0. -1.
          6    2    1    2  501    0 -0.22879322858E+03 -0.26440036190E+01  0.30354459318E+03  0.41731644899E+03  0.17222185211E+03 0.  0.
         24    2    3    3    0    0 -0.75187102033E+02 -0.93387283314E+01  0.21043280272E+03  0.23750666901E+03  0.79919592118E+02 0.  0.
         -6    2    1    2    0  502  0.22879322858E+03  0.26440036190E+01  0.13825548054E+04  0.14118770660E+04  0.17200502117E+03 0.  0.
        -24    2    5    5    0    0  0.10163337209E+03 -0.34894669192E+02  0.95535524176E+03  0.96455130299E+03  0.78157519676E+02 0.  0.
          5    1    3    3  501    0 -0.15360612655E+03  0.66947247124E+01  0.93111790461E+02  0.17980977998E+03  0.47000000000E+01 0. -1.
        -15    1    4    4    0    0 -0.37297018951E+01  0.28755446780E+02  0.60034989466E+02  0.66694408198E+02  0.17770000000E+01 0.  1.
         16    1    4    4    0    0 -0.71457400138E+02 -0.38094175111E+02  0.15039781325E+03  0.17081226081E+03  0.00000000000E+00 0. -1.
         -5    1    5    5    0  502  0.12715985650E+03  0.37538672812E+02  0.42719956362E+03  0.44732576298E+03  0.47000000000E+01 0.  1.
         15    1    6    6    0    0  0.63971996857E+02  0.81865611332E-01  0.75503645140E+03  0.75774377183E+03  0.17770000000E+01 0. -1.
        -16    1    6    6    0    0  0.37661375228E+02 -0.34976534804E+02  0.20031879037E+03  0.20680753116E+03  0.00000000000E+00 0.  1.
<mgrwt>
<rscale>  2 0.28634775E+03</rscale>
<asrwt>0</asrwt>
<pdfrwt beam="1">  1       21 0.27040711E+00 0.28638034E+03</pdfrwt>
<pdfrwt beam="2">  1       21 0.11007241E-01 0.28638034E+03</pdfrwt>
<totfact> 0.31705101E+03</totfact>
</mgrwt>
</event>
<event>
12    2  0.4090627E-002  0.2193580E+03  0.7546771E-02  0.1134576E+00
         21   -1    0    0  501  502  0.00000000000E+00  0.00000000000E+00  0.18735193943E+03  0.18735193943E+03  0.00000000000E+00 0.  1.
         21   -1    0    0  502  503 -0.00000000000E+00 -0.00000000000E+00 -0.27024164410E+03  0.27024164410E+03  0.00000000000E+00 0.  1.
         -6    2    1    2    0  503 -0.13275680051E+03 -0.22642618526E+02 -0.94777979507E+02  0.23791368106E+03  0.17170613845E+03 0.  0.
        -24    2    3    3    0    0 -0.14768411728E+03 -0.54352323822E+01 -0.11623942812E+03  0.20626557369E+03  0.84815930083E+02 0.  0.
          6    2    1    2  501    0  0.13275680051E+03  0.22642618526E+02  0.11888274843E+02  0.21967990247E+03  0.17314985479E+03 0.  0.
         24    2    5    5    0    0  0.53231439978E+01  0.22117510903E+01 -0.32705145214E+02  0.83051134381E+02  0.76122511083E+02 0.  0.
          5    1    5    5  501    0  0.12743365651E+03  0.20430867436E+02  0.44593420057E+02  0.13662876809E+03  0.47000000000E+01 0. -1.
        -15    1    6    6    0    0 -0.16198990547E+02  0.28831176657E+02 -0.35691413680E+02  0.48689616775E+02  0.17770000000E+01 0.  1.
         16    1    6    6    0    0  0.21522134545E+02 -0.26619425566E+02  0.29862684662E+01  0.34361517606E+02  0.00000000000E+00 0. -1.
         -5    1    3    3    0  503  0.14927316765E+02 -0.17207386144E+02  0.21461448609E+02  0.31648107370E+02  0.47000000000E+01 0.  1.
         15    1    4    4    0    0 -0.22960337373E+02  0.32239919183E+02 -0.20707680096E+02  0.44705203558E+02  0.17770000000E+01 0. -1.
        -16    1    4    4    0    0 -0.12472377990E+03 -0.37675151565E+02 -0.95531748020E+02  0.16156037014E+03  0.00000000000E+00 0.  1.
<mgrwt>
<rscale>  2 0.21907299E+03</rscale>
<asrwt>0</asrwt>
<pdfrwt beam="1">  1       21 0.28823375E-01 0.21935799E+03</pdfrwt>
<pdfrwt beam="2">  1       21 0.41575637E-01 0.21935799E+03</pdfrwt>
<totfact> 0.63398267E+04</totfact>
</mgrwt>
</event>
<event>
12    2  0.4090627E-002  0.1799293E+03  0.7546771E-02  0.1168947E+00
         21   -1    0    0  503  502  0.00000000000E+00  0.00000000000E+00  0.11134122396E+03  0.11134122396E+03  0.00000000000E+00 0.  1.
         21   -1    0    0  501  503 -0.00000000000E+00 -0.00000000000E+00 -0.10760556864E+04  0.10760556864E+04  0.00000000000E+00 0.  1.
          6    2    1    2  501    0  0.11683162246E+02  0.21540946817E+02 -0.99336519511E+03  0.10095290823E+04  0.17825276576E+03 0.  0.
         24    2    3    3    0    0  0.21231005230E+02  0.78528175949E+02 -0.51053618310E+03  0.52323220752E+03  0.80667953561E+02 0.  0.
         -6    2    1    2    0  502 -0.11683162246E+02 -0.21540946817E+02  0.28650732681E+02  0.17786782804E+03  0.17382632452E+03 0.  0.
        -24    2    5    5    0    0  0.19622437441E+02  0.34364854558E+02  0.59164144264E+02  0.10674358825E+03  0.79547560523E+02 0.  0.
          5    1    3    3  501    0 -0.95478429847E+01 -0.56987229133E+02 -0.48282901201E+03  0.48629687479E+03  0.47000000000E+01 0. -1.
        -15    1    4    4    0    0 -0.29699160988E+02  0.24743153674E+02 -0.22154747142E+03  0.22490154210E+03  0.17770000000E+01 0.  1.
         16    1    4    4    0    0  0.50930166218E+02  0.53785022275E+02 -0.28898871167E+03  0.29833066541E+03  0.00000000000E+00 0. -1.
         -5    1    5    5    0  502 -0.31305599687E+02 -0.55905801375E+02 -0.30513411583E+02  0.71124239789E+02  0.47000000000E+01 0.  1.
         15    1    6    6    0    0 -0.20808512324E+02  0.41877300518E+02  0.39129868578E+02  0.61000055965E+02  0.17770000000E+01 0. -1.
        -16    1    6    6    0    0  0.40430949766E+02 -0.75124459599E+01  0.20034275686E+02  0.45743532281E+02  0.00000000000E+00 0.  1.
<mgrwt>
<rscale>  2 0.17882311E+03</rscale>
<asrwt>0</asrwt>
<pdfrwt beam="1">  1       21 0.17129420E-01 0.17992931E+03</pdfrwt>
<pdfrwt beam="2">  1       21 0.16554702E+00 0.17992931E+03</pdfrwt>
<totfact> 0.71352724E+03</totfact>
</mgrwt>
</event>
<event>
12    2  0.4090627E-002  0.2391208E+03  0.7546771E-02  0.1120422E+00
         21   -1    0    0  503  502  0.00000000000E+00  0.00000000000E+00  0.37226322788E+03  0.37226322788E+03  0.00000000000E+00 0. -1.
         21   -1    0    0  501  503 -0.00000000000E+00 -0.00000000000E+00 -0.17368052277E+03  0.17368052277E+03  0.00000000000E+00 0.  1.
          6    2    1    2  501    0 -0.38282458994E+02  0.15987670335E+03  0.19253297440E+03  0.30699786024E+03  0.17364513531E+03 0.  0.
         24    2    3    3    0    0  0.33143425427E+02  0.35008177079E+02  0.53717729170E+02  0.10703394318E+03  0.79035507546E+02 0.  0.
         -6    2    1    2    0  502  0.38282458994E+02 -0.15987670335E+03  0.60497307123E+01  0.23894589042E+03  0.17329867964E+03 0.  0.
        -24    2    5    5    0    0 -0.37100278788E+02 -0.11994261113E+03 -0.16036401177E+02  0.15070091267E+03  0.81798155626E+02 0.  0.
          5    1    3    3  501    0 -0.71425884422E+02  0.12486852627E+03  0.13881524523E+03  0.19996391706E+03  0.47000000000E+01 0. -1.
        -15    1    4    4    0    0  0.30331124794E+02  0.34751073672E+01 -0.12966357566E+02  0.33216526910E+02  0.17770000000E+01 0.  1.
         16    1    4    4    0    0  0.28123006335E+01  0.31533069712E+02  0.66684086735E+02  0.73817416265E+02  0.00000000000E+00 0. -1.
         -5    1    5    5    0  502  0.75382737782E+02 -0.39934092215E+02  0.22086131889E+02  0.88244977751E+02  0.47000000000E+01 0.  1.
         15    1    6    6    0    0  0.20313461738E+02 -0.45286214591E+01 -0.87104292980E+00  0.20906017910E+02  0.17770000000E+01 0. -1.
        -16    1    6    6    0    0 -0.57413740525E+02 -0.11541398968E+03 -0.15165358247E+02  0.12979489476E+03  0.00000000000E+00 0.  1.
<mgrwt>
<rscale>  2 0.23905787E+03</rscale>
<asrwt>0</asrwt>
<pdfrwt beam="1">  1       21 0.57271265E-01 0.23912076E+03</pdfrwt>
<pdfrwt beam="2">  1       21 0.26720081E-01 0.23912076E+03</pdfrwt>
<totfact> 0.37309672E+04</totfact>
</mgrwt>
</event>
<event>
12    2  0.4090627E-002  0.1882927E+03  0.7546771E-02  0.1161458E+00
         21   -1    0    0  503  502  0.00000000000E+00  0.00000000000E+00  0.16273421739E+02  0.16273421739E+02  0.00000000000E+00 0.  1.
         21   -1    0    0  501  503 -0.00000000000E+00 -0.00000000000E+00 -0.21471630703E+04  0.21471630703E+04  0.00000000000E+00 0. -1.
          6    2    1    2  501    0 -0.57898919253E+02  0.33763575116E+02 -0.12306702905E+04  0.12449913715E+04  0.17595990245E+03 0.  0.
         24    2    3    3    0    0 -0.32709759685E+01 -0.31681454441E+02 -0.36729235746E+03  0.37740229285E+03  0.80711839053E+02 0.  0.
         -6    2    1    2    0  502  0.57898919253E+02 -0.33763575116E+02 -0.90021935799E+03  0.91844512050E+03  0.16927576024E+03 0.  0.
        -24    2    5    5    0    0  0.95270584296E+02 -0.56574071402E+02 -0.66271831608E+03  0.67689637801E+03  0.81951389889E+02 0.  0.
          5    1    3    3  501    0 -0.54627943285E+02  0.65445029557E+02 -0.86337793308E+03  0.86758907866E+03  0.47000000000E+01 0. -1.
        -15    1    4    4    0    0 -0.27646304883E+01  0.24754831349E+02 -0.18199947898E+03  0.18370468947E+03  0.17770000000E+01 0.  1.
         16    1    4    4    0    0 -0.50634548014E+00 -0.56436285790E+02 -0.18529287848E+03  0.19369760338E+03  0.00000000000E+00 0. -1.
         -5    1    5    5    0  502 -0.37371665043E+02  0.22810496285E+02 -0.23750104191E+03  0.24154874248E+03  0.47000000000E+01 0.  1.
         15    1    6    6    0    0  0.87474375105E+02 -0.58832091072E+02 -0.65995264486E+03  0.66832150379E+03  0.17770000000E+01 0. -1.
        -16    1    6    6    0    0  0.77962091907E+01  0.22580196701E+01 -0.27656712207E+01  0.85748742192E+01  0.00000000000E+00 0.  1.
<mgrwt>
<rscale>  2 0.18671532E+03</rscale>
<asrwt>0</asrwt>
<pdfrwt beam="1">  1       21 0.25036051E-02 0.18829273E+03</pdfrwt>
<pdfrwt beam="2">  1       21 0.33033255E+00 0.18829273E+03</pdfrwt>
<totfact> 0.19529498E+04</totfact>
</mgrwt>
</event>
<event>
12    2  0.4090627E-002  0.1737780E+03  0.7546771E-02  0.1174184E+00
         21   -1    0    0  503  502  0.00000000000E+00  0.00000000000E+00  0.34072474160E+03  0.34072474160E+03  0.00000000000E+00 0. -1.
         21   -1    0    0  501  503 -0.00000000000E+00 -0.00000000000E+00 -0.17900667586E+03  0.17900667586E+03  0.00000000000E+00 0. -1.
          6    2    1    2  501    0 -0.12231585404E+02  0.18482199643E+01 -0.10413651771E+03  0.20259120261E+03  0.17333710928E+03 0.  0.
         24    2    3    3    0    0  0.71153352921E+01 -0.73188919910E+01 -0.13865669334E+03  0.16170022796E+03  0.82565676516E+02 0.  0.
         -6    2    1    2    0  502  0.12231585404E+02 -0.18482199643E+01  0.26585458345E+03  0.31714021486E+03  0.17247095042E+03 0.  0.
        -24    2    5    5    0    0  0.59751620535E+02 -0.23802197953E+02  0.23365066903E+03  0.25550164744E+03  0.80942299983E+02 0.  0.
          5    1    3    3  501    0 -0.19346920696E+02  0.91671119553E+01  0.34520175629E+02  0.40890974645E+02  0.47000000000E+01 0. -1.
        -15    1    4    4    0    0  0.22690492595E+02  0.31429827483E+02 -0.87087152953E+02  0.95341609218E+02  0.17770000000E+01 0.  1.
         16    1    4    4    0    0 -0.15575157303E+02 -0.38748719474E+02 -0.51569540390E+02  0.66358618746E+02  0.00000000000E+00 0. -1.
         -5    1    5    5    0  502 -0.47520035131E+02  0.21953977988E+02  0.32203914429E+02  0.61638567414E+02  0.47000000000E+01 0.  1.
         15    1    6    6    0    0 -0.10397248499E+02  0.19975291284E+01  0.11345608719E+03  0.11396286390E+03  0.17770000000E+01 0. -1.
        -16    1    6    6    0    0  0.70148869034E+02 -0.25799727081E+02  0.12019458183E+03  0.14153878354E+03  0.00000000000E+00 0.  1.
<mgrwt>
<rscale>  2 0.17356157E+03</rscale>
<asrwt>0</asrwt>
<pdfrwt beam="1">  1       21 0.52419191E-01 0.17377796E+03</pdfrwt>
<pdfrwt beam="2">  1       21 0.27539489E-01 0.17377796E+03</pdfrwt>
<totfact> 0.43831964E+04</totfact>
</mgrwt>
</event>
<event>
12    2  0.4090627E-002  0.1770375E+03  0.7546771E-02  0.1170754E+00
         21   -1    0    0  503  502  0.00000000000E+00  0.00000000000E+00  0.66918654550E+02  0.66918654550E+02  0.00000000000E+00 0.  1.
         21   -1    0    0  501  503 -0.00000000000E+00 -0.00000000000E+00 -0.58421759821E+03  0.58421759821E+03  0.00000000000E+00 0.  1.
          6    2    1    2  501    0 -0.27020757734E+02 -0.27364820804E+02 -0.40410202295E+03  0.44118105292E+03  0.17281007419E+03 0.  0.
         24    2    3    3    0    0 -0.40828569082E+01 -0.70505488674E+02 -0.15819531235E+03  0.19042327172E+03  0.79041583407E+02 0.  0.
         -6    2    1    2    0  502  0.27020757734E+02  0.27364820804E+02 -0.11319692071E+03  0.20995519984E+03  0.17259399849E+03 0.  0.
        -24    2    5    5    0    0  0.53895078980E+02 -0.30187446725E+02 -0.10449897124E+03  0.14567272194E+03  0.80526675386E+02 0.  0.
          5    1    3    3  501    0 -0.22937900826E+02  0.43140667870E+02 -0.24590671060E+03  0.25075778120E+03  0.47000000000E+01 0. -1.
        -15    1    4    4    0    0 -0.13990965972E+02 -0.55174241113E+02 -0.16205104952E+03  0.17176624928E+03  0.17770000000E+01 0.  1.
         16    1    4    4    0    0  0.99081090641E+01 -0.15331247560E+02  0.38557371733E+01  0.18657022435E+02  0.00000000000E+00 0. -1.
         -5    1    5    5    0  502 -0.26874321246E+02  0.57552267529E+02 -0.86979494737E+01  0.64282477902E+02  0.47000000000E+01 0.  1.
         15    1    6    6    0    0  0.68592335645E+02 -0.20207745151E+02 -0.47238916757E+02  0.85720093669E+02  0.17770000000E+01 0. -1.
        -16    1    6    6    0    0 -0.14697256665E+02 -0.99797015741E+01 -0.57260054484E+02  0.59952628270E+02  0.00000000000E+00 0.  1.
<mgrwt>
<rscale>  2 0.17698475E+03</rscale>
<asrwt>0</asrwt>
<pdfrwt beam="1">  1       21 0.10295177E-01 0.17703750E+03</pdfrwt>
<pdfrwt beam="2">  1       21 0.89879632E-01 0.17703750E+03</pdfrwt>
<totfact> 0.81773585E+04</totfact>
</mgrwt>
</event>
<event>
12    2  0.4090627E-002  0.2187025E+03  0.7546771E-02  0.1135206E+00
         21   -1    0    0  503  502  0.00000000000E+00  0.00000000000E+00  0.55819564965E+02  0.55819564965E+02  0.00000000000E+00 0.  1.
         21   -1    0    0  501  503 -0.00000000000E+00 -0.00000000000E+00 -0.20893570187E+04  0.20893570187E+04  0.00000000000E+00 0. -1.
          6    2    1    2  501    0 -0.87639617005E+02  0.96903273686E+02 -0.18412166567E+04  0.18539411709E+04  0.17305531314E+03 0.  0.
         24    2    3    3    0    0 -0.11229748174E+03  0.74981072326E+02 -0.10228284749E+04  0.10348746905E+04  0.80960795462E+02 0.  0.
         -6    2    1    2    0  502  0.87639617005E+02 -0.96903273686E+02 -0.19232079707E+03  0.29123541278E+03  0.17538480479E+03 0.  0.
        -24    2    5    5    0    0  0.93172400134E+02 -0.12862332144E+03 -0.18590569398E+03  0.25806891362E+03  0.82544425359E+02 0.  0.
          5    1    3    3  501    0  0.24657864733E+02  0.21922201359E+02 -0.81838818182E+03  0.81906648042E+03  0.47000000000E+01 0. -1.
        -15    1    4    4    0    0 -0.11744011101E+03  0.45188303437E+02 -0.76537687019E+03  0.77565396511E+03  0.17770000000E+01 0.  1.
         16    1    4    4    0    0  0.51426292757E+01  0.29792768889E+02 -0.25745160467E+03  0.25922072537E+03  0.00000000000E+00 0. -1.
         -5    1    5    5    0  502 -0.55327831295E+01  0.31720047757E+02 -0.64151030932E+01  0.33166499161E+02  0.47000000000E+01 0.  1.
         15    1    6    6    0    0  0.74019781660E+02 -0.33582546930E+02 -0.73175985947E+02  0.10938280570E+03  0.17770000000E+01 0. -1.
        -16    1    6    6    0    0  0.19152618474E+02 -0.95040774513E+02 -0.11272970803E+03  0.14868610792E+03  0.00000000000E+00 0.  1.
<mgrwt>
<rscale>  2 0.21823508E+03</rscale>
<asrwt>0</asrwt>
<pdfrwt beam="1">  1       21 0.85876248E-02 0.21870248E+03</pdfrwt>
<pdfrwt beam="2">  1       21 0.32143956E+00 0.21870248E+03</pdfrwt>
<totfact> 0.26379944E+03</totfact>
</mgrwt>
</event>
<event>
12    2  0.4090627E-002  0.1933740E+03  0.7546771E-02  0.1156004E+00
         21   -1    0    0  503  502  0.00000000000E+00  0.00000000000E+00  0.63378497505E+03  0.63378497505E+03  0.00000000000E+00 0.  1.
         21   -1    0    0  501  503 -0.00000000000E+00 -0.00000000000E+00 -0.58456712193E+02  0.58456712193E+02  0.00000000000E+00 0.  1.
          6    2    1    2  501    0  0.81983306723E+02 -0.22631560046E+02  0.30665373581E+03  0.36121375518E+03  0.17089591322E+03 0.  0.
         24    2    3    3    0    0  0.68129844081E+02 -0.40726749494E+02  0.94311734545E+02  0.14760062401E+03  0.81184340582E+02 0.  0.
         -6    2    1    2    0  502 -0.81983306723E+02  0.22631560046E+02  0.26867452705E+03  0.33102793207E+03  0.17366646259E+03 0.  0.
        -24    2    5    5    0    0 -0.33367916499E+02 -0.19004385647E+01  0.41971911475E+02  0.97829645126E+02  0.81804453390E+02 0.  0.
          5    1    3    3  501    0  0.13853462642E+02  0.18095189448E+02  0.21234200126E+03  0.21361313117E+03  0.47000000000E+01 0. -1.
        -15    1    4    4    0    0  0.36900455426E+02 -0.40822664255E+02  0.10157562612E+03  0.11553743583E+03  0.17770000000E+01 0.  1.
         16    1    4    4    0    0  0.31229388655E+02  0.95914761049E-01 -0.72638915733E+01  0.32063188179E+02  0.00000000000E+00 0. -1.
         -5    1    5    5    0  502 -0.48615390224E+02  0.24531998610E+02  0.22670261558E+03  0.23319828694E+03  0.47000000000E+01 0.  1.
         15    1    6    6    0    0  0.44906655379E+01 -0.36657182483E+02  0.17334941418E+02  0.40835928146E+02  0.17770000000E+01 0. -1.
        -16    1    6    6    0    0 -0.37858582037E+02  0.34756743918E+02  0.24636970057E+02  0.56993716980E+02  0.00000000000E+00 0.  1.
<mgrwt>
<rscale>  2 0.19274987E+03</rscale>
<asrwt>0</asrwt>
<pdfrwt beam="1">  1       21 0.97505376E-01 0.19337396E+03</pdfrwt>
<pdfrwt beam="2">  1       21 0.89933408E-02 0.19337396E+03</pdfrwt>
<totfact> 0.85212088E+04</totfact>
</mgrwt>
</event>
<event>
12    2  0.4090627E-002  0.2335001E+03  0.7546771E-02  0.1124249E+00
         21   -1    0    0  503  502  0.00000000000E+00  0.00000000000E+00  0.47220746126E+02  0.47220746126E+02  0.00000000000E+00 0.  1.
         21   -1    0    0  501  503 -0.00000000000E+00 -0.00000000000E+00 -0.14060310849E+04  0.14060310849E+04  0.00000000000E+00 0.  1.
          6    2    1    2  501    0 -0.86420414058E+02 -0.13047922240E+03 -0.98717949415E+03  0.10143534584E+04  0.17290537738E+03 0.  0.
         24    2    3    3    0    0 -0.10909923587E+02 -0.11463074849E+03 -0.79063760311E+03  0.80315730972E+03  0.81820595108E+02 0.  0.
         -6    2    1    2    0  502  0.86420414058E+02  0.13047922240E+03 -0.37163084467E+03  0.43889837264E+03  0.17328872250E+03 0.  0.
        -24    2    5    5    0    0  0.79544991151E+02  0.73798066851E+02 -0.35422107700E+03  0.37902170903E+03  0.80070745197E+02 0.  0.
          5    1    3    3  501    0 -0.75510490471E+02 -0.15848473911E+02 -0.19654189104E+03  0.21119614871E+03  0.47000000000E+01 0. -1.
        -15    1    4    4    0    0 -0.39933731022E+02 -0.10207915567E+03 -0.61754900862E+03  0.62720394823E+03  0.17770000000E+01 0.  1.
         16    1    4    4    0    0  0.29023807435E+02 -0.12551592820E+02 -0.17308859448E+03  0.17595336149E+03  0.00000000000E+00 0. -1.
         -5    1    5    5    0  502  0.68754229073E+01  0.56681155551E+02 -0.17409767678E+02  0.59876663613E+02  0.47000000000E+01 0.  1.
         15    1    6    6    0    0  0.84410708268E+02  0.86372851754E+02 -0.30674649265E+03  0.32966954010E+03  0.17770000000E+01 0. -1.
        -16    1    6    6    0    0 -0.48657171176E+01 -0.12574784903E+02 -0.47474584350E+02  0.49352168926E+02  0.00000000000E+00 0.  1.
<mgrwt>
<rscale>  2 0.23342898E+03</rscale>
<asrwt>0</asrwt>
<pdfrwt beam="1">  1       21 0.72647311E-02 0.23350010E+03</pdfrwt>
<pdfrwt beam="2">  1       21 0.21631245E+00 0.23350010E+03</pdfrwt>
<totfact> 0.14566383E+04</totfact>
</mgrwt>
</event>
<event>
12    2  0.4090627E-002  0.2139063E+03  0.7546771E-02  0.1138964E+00
         21   -1    0    0  501  502  0.00000000000E+00  0.00000000000E+00  0.16714677938E+03  0.16714677938E+03  0.00000000000E+00 0.  1.
         21   -1    0    0  502  503 -0.00000000000E+00 -0.00000000000E+00 -0.33699755040E+03  0.33699755040E+03  0.00000000000E+00 0. -1.
         -6    2    1    2    0  503 -0.94033616133E+02  0.81068142669E+02 -0.19705173524E+03  0.29083554072E+03  0.17418829084E+03 0.  0.
        -24    2    3    3    0    0 -0.73390742340E+02  0.64430438509E+02 -0.42121301688E+02  0.13358265305E+03  0.80824740474E+02 0.  0.
          6    2    1    2  501    0  0.94033616133E+02 -0.81068142669E+02  0.27200964220E+02  0.21330878906E+03  0.17130785831E+03 0.  0.
         24    2    5    5    0    0  0.31346139568E+02 -0.11009904401E+03  0.33705184094E+02  0.14376090752E+03  0.80167194904E+02 0.  0.
          5    1    5    5  501    0  0.62687476566E+02  0.29030901339E+02 -0.65042198738E+01  0.69547881542E+02  0.47000000000E+01 0. -1.
        -15    1    6    6    0    0  0.30272943571E+02 -0.71707478095E+02  0.59075223362E+02  0.97731536729E+02  0.17770000000E+01 0.  1.
         16    1    6    6    0    0  0.10731959965E+01 -0.38391565913E+02 -0.25370039268E+02  0.46029370790E+02  0.00000000000E+00 0. -1.
         -5    1    3    3    0  503 -0.20642873793E+02  0.16637704159E+02 -0.15493043355E+03  0.15725288767E+03  0.47000000000E+01 0.  1.
         15    1    4    4    0    0 -0.59989648761E+01  0.18396325438E+02 -0.47973616372E+02  0.51759423935E+02  0.17770000000E+01 0. -1.
        -16    1    4    4    0    0 -0.67391777464E+02  0.46034113071E+02  0.58523146842E+01  0.81823229117E+02  0.00000000000E+00 0.  1.
<mgrwt>
<rscale>  2 0.21331919E+03</rscale>
<asrwt>0</asrwt>
<pdfrwt beam="1">  1       21 0.25714889E-01 0.21390635E+03</pdfrwt>
<pdfrwt beam="2">  1       21 0.51845777E-01 0.21390635E+03</pdfrwt>
<totfact> 0.50180215E+04</totfact>
</mgrwt>
</event>
<event>
12    2  0.4090627E-002  0.3156256E+03  0.7546771E-02  0.1077683E+00
         21   -1    0    0  501  502  0.00000000000E+00  0.00000000000E+00  0.85071573925E+03  0.85071573925E+03  0.00000000000E+00 0. -1.
         21   -1    0    0  502  503 -0.00000000000E+00 -0.00000000000E+00 -0.12106867676E+03  0.12106867676E+03  0.00000000000E+00 0. -1.
         -6    2    1    2    0  503 -0.26155345832E+03 -0.36944724286E+02  0.45290603406E+03  0.55203570817E+03  0.17275538544E+03 0.  0.
        -24    2    3    3    0    0 -0.16214860769E+03 -0.13594530810E+02  0.15952157153E+03  0.24135405645E+03  0.79546631210E+02 0.  0.
          6    2    1    2  501    0  0.26155345832E+03  0.36944724286E+02  0.27674102843E+03  0.41974870783E+03  0.17270858896E+03 0.  0.
         24    2    5    5    0    0  0.25023330840E+03  0.42328138217E+02  0.29493979052E+03  0.39715641088E+03  0.79594941759E+02 0.  0.
          5    1    5    5  501    0  0.11320149919E+02 -0.53834139304E+01 -0.18198762096E+02  0.22592296952E+02  0.47000000000E+01 0. -1.
        -15    1    6    6    0    0  0.13480159876E+02  0.61601718132E+01  0.59378089364E+02  0.61225629050E+02  0.17770000000E+01 0.  1.
         16    1    6    6    0    0  0.23675314852E+03  0.36167966404E+02  0.23556170116E+03  0.33593078183E+03  0.00000000000E+00 0. -1.
         -5    1    3    3    0  503 -0.99404850627E+02 -0.23350193477E+02  0.29338446253E+03  0.31068165172E+03  0.47000000000E+01 0.  1.
         15    1    4    4    0    0 -0.62060465751E+02  0.10969865356E+02  0.11052131837E+03  0.12723976932E+03  0.17770000000E+01 0. -1.
        -16    1    4    4    0    0 -0.10008814194E+03 -0.24564396166E+02  0.49000253165E+02  0.11411428713E+03  0.00000000000E+00 0.  1.
<mgrwt>
<rscale>  2 0.31561924E+03</rscale>
<asrwt>0</asrwt>
<pdfrwt beam="1">  1       21 0.13087934E+00 0.31562564E+03</pdfrwt>
<pdfrwt beam="2">  1       21 0.18625951E-01 0.31562564E+03</pdfrwt>
<totfact> 0.10431902E+04</totfact>
</mgrwt>
</event>
<event>
12    2  0.4090627E-002  0.1827572E+03  0.7546771E-02  0.1165652E+00
         21   -1    0    0  503  502  0.00000000000E+00  0.00000000000E+00  0.15562312628E+04  0.15562312628E+04  0.00000000000E+00 0.  1.
         21   -1    0    0  501  503 -0.00000000000E+00 -0.00000000000E+00 -0.54964366284E+02  0.54964366284E+02  0.00000000000E+00 0.  1.
          6    2    1    2  501    0 -0.81637230259E+01 -0.60553407495E+02  0.11779503881E+03  0.21570482644E+03  0.17005745926E+03 0.  0.
         24    2    3    3    0    0  0.39733959599E+02  0.24224807212E+02  0.52175720851E+02  0.98190918416E+02  0.68945788727E+02 0.  0.
         -6    2    1    2    0  502  0.81637230259E+01  0.60553407495E+02  0.13834718578E+04  0.13954908027E+04  0.17224063883E+03 0.  0.
        -24    2    5    5    0    0 -0.34390254776E+02  0.92437517749E+02  0.11212602537E+04  0.11279007192E+04  0.72167107470E+02 0.  0.
          5    1    3    3  501    0 -0.47897682625E+02 -0.84778214706E+02  0.65619317958E+02  0.11751390802E+03  0.47000000000E+01 0. -1.
        -15    1    4    4    0    0  0.91934984057E+01  0.39151581720E+02  0.57704679492E+01  0.40667220134E+02  0.17770000000E+01 0.  1.
         16    1    4    4    0    0  0.30540461193E+02 -0.14926774508E+02  0.46405252902E+02  0.57523698282E+02  0.00000000000E+00 0. -1.
         -5    1    5    5    0  502  0.42553977802E+02 -0.31884110254E+02  0.26221160402E+03  0.26759008352E+03  0.47000000000E+01 0.  1.
         15    1    6    6    0    0 -0.15778081561E+02  0.54545509268E+02  0.28674558264E+03  0.29231891374E+03  0.17770000000E+01 0. -1.
        -16    1    6    6    0    0 -0.18612173215E+02  0.37892008481E+02  0.83451467110E+03  0.83558180543E+03  0.00000000000E+00 0.  1.
<mgrwt>
<rscale>  2 0.18224101E+03</rscale>
<asrwt>0</asrwt>
<pdfrwt beam="1">  1       21 0.23942016E+00 0.18275721E+03</pdfrwt>
<pdfrwt beam="2">  1       21 0.84560575E-02 0.18275721E+03</pdfrwt>
<totfact> 0.84469969E+03</totfact>
</mgrwt>
</event>
<event>
12    2  0.4090627E-002  0.2947586E+03  0.7546771E-02  0.1087916E+00
         21   -1    0    0  503  502  0.00000000000E+00  0.00000000000E+00  0.30232077405E+03  0.30232077405E+03  0.00000000000E+00 0. -1.
         21   -1    0    0  501  503 -0.00000000000E+00 -0.00000000000E+00 -0.36378897572E+03  0.36378897572E+03  0.00000000000E+00 0. -1.
          6    2    1    2  501    0 -0.23647565869E+03 -0.32227195579E+02 -0.18357238285E+03  0.34724842068E+03  0.17298357330E+03 0.  0.
         24    2    3    3    0    0 -0.23721246915E+03 -0.38315983593E+02 -0.20418212432E+03  0.32523779432E+03  0.79695751735E+02 0.  0.
         -6    2    1    2    0  502  0.23647565869E+03  0.32227195579E+02  0.12210418117E+03  0.31886132908E+03  0.17263773294E+03 0.  0.
        -24    2    5    5    0    0  0.12261686972E+03  0.33405494944E+02  0.13677431922E+03  0.20395913082E+03  0.82105351917E+02 0.  0.
          5    1    3    3  501    0  0.73681045842E+00  0.60887880137E+01  0.20609741473E+02  0.22010626359E+02  0.47000000000E+01 0.  1.
        -15    1    4    4    0    0 -0.18281580355E+02 -0.13544361380E+02  0.27304122203E+01  0.22984316073E+02  0.17770000000E+01 0.  1.
         16    1    4    4    0    0 -0.21893088880E+03 -0.24771622212E+02 -0.20691253654E+03  0.30225347825E+03  0.00000000000E+00 0. -1.
         -5    1    5    5    0  502  0.11385878897E+03 -0.11782993652E+01 -0.14670138049E+02  0.11490219827E+03  0.47000000000E+01 0.  1.
         15    1    6    6    0    0  0.38538363253E+01  0.12098262435E+01  0.57313323822E+02  0.57482958783E+02  0.17770000000E+01 0. -1.
        -16    1    6    6    0    0  0.11876303340E+03  0.32195668701E+02  0.79460995399E+02  0.14647617204E+03  0.00000000000E+00 0.  1.
<mgrwt>
<rscale>  2 0.29470790E+03</rscale>
<asrwt>0</asrwt>
<pdfrwt beam="1">  1       21 0.46510888E-01 0.29475862E+03</pdfrwt>
<pdfrwt beam="2">  1       21 0.55967535E-01 0.29475862E+03</pdfrwt>
<totfact> 0.12588924E+04</totfact>
</mgrwt>
</event>
<event>
12    2  0.4090627E-002  0.1886727E+03  0.7546771E-02  0.1160085E+00
         21   -1    0    0  501  502  0.00000000000E+00  0.00000000000E+00  0.23140803503E+03  0.23140803503E+03  0.00000000000E+00 0.  1.
         21   -1    0    0  502  503 -0.00000000000E+00 -0.00000000000E+00 -0.22040547576E+03  0.22040547576E+03  0.00000000000E+00 0.  1.
         -6    2    1    2    0  503  0.38526993048E+02  0.58055263601E+02 -0.12002551763E+03  0.22361468778E+03  0.17533585168E+03 0.  0.
        -24    2    3    3    0    0  0.50857348900E+02 -0.12316725625E+02 -0.16641071486E+02  0.97858223744E+02  0.81000833495E+02 0.  0.
          6    2    1    2  501    0 -0.38526993048E+02 -0.58055263601E+02  0.13102807689E+03  0.22819882301E+03  0.17335398196E+03 0.  0.
         24    2    5    5    0    0 -0.50265266389E+02  0.25744175891E+02  0.94070588576E+02  0.13574300079E+03  0.79922005917E+02 0.  0.
          5    1    5    5  501    0  0.11738273341E+02 -0.83799439492E+02  0.36957488317E+02  0.92455822223E+02  0.47000000000E+01 0. -1.
        -15    1    6    6    0    0  0.23837832754E+01  0.14653648706E+02  0.78242926156E+02  0.79658804068E+02  0.17770000000E+01 0.  1.
         16    1    6    6    0    0 -0.52649049664E+02  0.11090527186E+02  0.15827662420E+02  0.56084196718E+02  0.00000000000E+00 0. -1.
         -5    1    3    3    0  503 -0.12330355852E+02  0.70371989226E+02 -0.10338444614E+03  0.12575646404E+03  0.47000000000E+01 0.  1.
         15    1    4    4    0    0  0.48624230106E+02 -0.27273933480E+02 -0.40972155101E+02  0.69210247966E+02  0.17770000000E+01 0. -1.
        -16    1    4    4    0    0  0.22331187938E+01  0.14957207855E+02  0.24331083615E+02  0.28647975779E+02  0.00000000000E+00 0.  1.
<mgrwt>
<rscale>  2 0.18821096E+03</rscale>
<asrwt>0</asrwt>
<pdfrwt beam="1">  1       21 0.35601236E-01 0.18867274E+03</pdfrwt>
<pdfrwt beam="2">  1       21 0.33908535E-01 0.18867274E+03</pdfrwt>
<totfact> 0.63855406E+04</totfact>
</mgrwt>
</event>
<event>
12    2  0.4090627E-002  0.1945379E+03  0.7546771E-02  0.1154529E+00
         21   -1    0    0  501  502  0.00000000000E+00  0.00000000000E+00  0.64264892606E+02  0.64264892606E+02  0.00000000000E+00 0.  1.
         21   -1    0    0  502  503 -0.00000000000E+00 -0.00000000000E+00 -0.87669488828E+03  0.87669488828E+03  0.00000000000E+00 0.  1.
         -6    2    1    2    0  503  0.75761563960E+02 -0.44560317439E+02 -0.13570445690E+03  0.23682737508E+03  0.17304932679E+03 0.  0.
        -24    2    3    3    0    0  0.63047378761E+02  0.38855789234E+02 -0.77084070206E+02  0.13397633185E+03  0.80764839448E+02 0.  0.
          6    2    1    2  501    0 -0.75761563960E+02  0.44560317439E+02 -0.67672553877E+03  0.70413240580E+03  0.17354985914E+03 0.  0.
         24    2    5    5    0    0 -0.48190116061E+02 -0.42985496405E+02 -0.39307154777E+03  0.40596109452E+03  0.78288750207E+02 0.  0.
          5    1    5    5  501    0 -0.27571447899E+02  0.87545813844E+02 -0.28365399101E+03  0.29817131129E+03  0.47000000000E+01 0. -1.
        -15    1    6    6    0    0  0.88996032707E+01 -0.42680675144E+02 -0.19523920791E+03  0.20005586471E+03  0.17770000000E+01 0.  1.
         16    1    6    6    0    0 -0.57089719331E+02 -0.30482126084E+00 -0.19783233986E+03  0.20590522981E+03  0.00000000000E+00 0. -1.
         -5    1    3    3    0  503  0.12714185199E+02 -0.83416106672E+02 -0.58620386692E+02  0.10285104323E+03  0.47000000000E+01 0.  1.
         15    1    4    4    0    0 -0.14663776179E+01  0.14280602237E+02 -0.61533167357E+02  0.63210555111E+02  0.17770000000E+01 0. -1.
        -16    1    4    4    0    0  0.64513756379E+02  0.24575186997E+02 -0.15550902849E+02  0.70765776739E+02  0.00000000000E+00 0.  1.
<mgrwt>
<rscale>  2 0.19442619E+03</rscale>
<asrwt>0</asrwt>
<pdfrwt beam="1">  1       21 0.98869076E-02 0.19453789E+03</pdfrwt>
<pdfrwt beam="2">  1       21 0.13487612E+00 0.19453789E+03</pdfrwt>
<totfact> 0.32563893E+04</totfact>
</mgrwt>
</event>
<event>
12    2  0.4090627E-002  0.2075894E+03  0.7546771E-02  0.1143581E+00
         21   -1    0    0  501  502  0.00000000000E+00  0.00000000000E+00  0.26142069291E+03  0.26142069291E+03  0.00000000000E+00 0. -1.
         21   -1    0    0  502  503 -0.00000000000E+00 -0.00000000000E+00 -0.62165484593E+03  0.62165484593E+03  0.00000000000E+00 0. -1.
         -6    2    1    2    0  503  0.77213175796E+02  0.84839847557E+02 -0.55881543026E+03  0.59612754057E+03  0.17301354072E+03 0.  0.
        -24    2    3    3    0    0  0.13379190455E+02 -0.20098217661E+02 -0.22392338333E+03  0.23939017455E+03  0.81135892041E+02 0.  0.
          6    2    1    2  501    0 -0.77213175796E+02 -0.84839847557E+02  0.19858127725E+03  0.28694799827E+03  0.17246726005E+03 0.  0.
         24    2    5    5    0    0 -0.28756627740E+02 -0.49092153796E+02  0.20383571161E+03  0.22632099324E+03  0.80219769692E+02 0.  0.
          5    1    5    5  501    0 -0.48456548056E+02 -0.35747693761E+02 -0.52544343640E+01  0.60627005033E+02  0.47000000000E+01 0. -1.
        -15    1    6    6    0    0  0.25121211068E+02 -0.28102031635E+02  0.55494881582E+02  0.67109157634E+02  0.17770000000E+01 0.  1.
         16    1    6    6    0    0 -0.53877838808E+02 -0.20990122161E+02  0.14834083003E+03  0.15921183561E+03  0.00000000000E+00 0. -1.
         -5    1    3    3    0  503  0.63833985341E+02  0.10493806522E+03 -0.33489204693E+03  0.35673736602E+03  0.47000000000E+01 0.  1.
         15    1    4    4    0    0  0.26508098920E+02  0.19711529118E+02 -0.15680768340E+03  0.16025926179E+03  0.17770000000E+01 0. -1.
        -16    1    4    4    0    0 -0.13128908465E+02 -0.39809746779E+02 -0.67115699935E+02  0.79130912757E+02  0.00000000000E+00 0.  1.
<mgrwt>
<rscale>  2 0.20747554E+03</rscale>
<asrwt>0</asrwt>
<pdfrwt beam="1">  1       21 0.40218568E-01 0.20758940E+03</pdfrwt>
<pdfrwt beam="2">  1       21 0.95639207E-01 0.20758940E+03</pdfrwt>
<totfact> 0.53704212E+03</totfact>
</mgrwt>
</event>
<event>
12    2  0.4090627E-002  0.1910947E+03  0.7546771E-02  0.1157755E+00
         21   -1    0    0  501  502  0.00000000000E+00  0.00000000000E+00  0.19697300648E+03  0.19697300648E+03  0.00000000000E+00 0. -1.
         21   -1    0    0  502  503 -0.00000000000E+00 -0.00000000000E+00 -0.21548076069E+03  0.21548076069E+03  0.00000000000E+00 0. -1.
         -6    2    1    2    0  503  0.41737199231E+02 -0.68369675603E+02 -0.87856366220E+02  0.21032337669E+03  0.17349575025E+03 0.  0.
        -24    2    3    3    0    0 -0.24505921804E+02  0.39548201317E+00 -0.75489202089E+02  0.11392921330E+03  0.81734627922E+02 0.  0.
          6    2    1    2  501    0 -0.41737199231E+02  0.68369675603E+02  0.69348612010E+02  0.20213039047E+03  0.17213674339E+03 0.  0.
         24    2    5    5    0    0  0.21169258658E+02 -0.50167069021E+01  0.64711208613E+02  0.10524706326E+03  0.80100555210E+02 0.  0.
          5    1    5    5  501    0 -0.62906457890E+02  0.73386382505E+02  0.46374033970E+01  0.96883327212E+02  0.47000000000E+01 0. -1.
        -15    1    6    6    0    0 -0.77658565171E+01 -0.26995560165E+02 -0.30974229407E+01  0.28316436110E+02  0.17770000000E+01 0.  1.
         16    1    6    6    0    0  0.28935115175E+02  0.21978853263E+02  0.67808631554E+02  0.76930627153E+02  0.00000000000E+00 0. -1.
         -5    1    3    3    0  503  0.66243121035E+02 -0.68765157616E+02 -0.12367164131E+02  0.96394163387E+02  0.47000000000E+01 0.  1.
         15    1    4    4    0    0  0.35940664488E+01  0.23063441597E+01 -0.84293488169E+02  0.84420296219E+02  0.17770000000E+01 0. -1.
        -16    1    4    4    0    0 -0.28099988252E+02 -0.19108621465E+01  0.88042860794E+01  0.29508917081E+02  0.00000000000E+00 0.  1.
<mgrwt>
<rscale>  2 0.19078570E+03</rscale>
<asrwt>0</asrwt>
<pdfrwt beam="1">  1       21 0.30303540E-01 0.19109469E+03</pdfrwt>
<pdfrwt beam="2">  1       21 0.33150886E-01 0.19109469E+03</pdfrwt>
<totfact> 0.91607572E+04</totfact>
</mgrwt>
</event>
<event>
12    2  0.4090627E-002  0.2835764E+03  0.7546771E-02  0.1093959E+00
         21   -1    0    0  503  502  0.00000000000E+00  0.00000000000E+00  0.20284686384E+04  0.20284686384E+04  0.00000000000E+00 0.  1.
         21   -1    0    0  501  503 -0.00000000000E+00 -0.00000000000E+00 -0.45515298277E+02  0.45515298277E+02  0.00000000000E+00 0. -1.
          6    2    1    2  501    0 -0.17825446256E+03 -0.13315563741E+03  0.61459715706E+03  0.67686425944E+03  0.17581377376E+03 0.  0.
         24    2    3    3    0    0 -0.17718076618E+03 -0.98091054687E+02  0.60025778595E+03  0.63867544761E+03  0.81129765639E+02 0.  0.
         -6    2    1    2    0  502  0.17825446256E+03  0.13315563741E+03  0.13683561830E+04  0.13971196772E+04  0.17331956498E+03 0.  0.
        -24    2    5    5    0    0  0.71964982692E+02  0.13836145523E+03  0.88709611718E+03  0.90421208439E+03  0.79606038851E+02 0.  0.
          5    1    3    3  501    0 -0.10736963797E+01 -0.35064582721E+02  0.14339371114E+02  0.38188811833E+02  0.47000000000E+01 0. -1.
        -15    1    4    4    0    0 -0.13991032149E+03 -0.54480304661E+02  0.33236259530E+03  0.36470680572E+03  0.17770000000E+01 0.  1.
         16    1    4    4    0    0 -0.37270444687E+02 -0.43610750026E+02  0.26789519065E+03  0.27396864189E+03  0.00000000000E+00 0. -1.
         -5    1    5    5    0  502  0.10628947986E+03 -0.52058178256E+01  0.48126006587E+03  0.49290759283E+03  0.47000000000E+01 0.  1.
         15    1    6    6    0    0 -0.35126493054E+01  0.67674781954E+02  0.44824985933E+03  0.45334678661E+03  0.17770000000E+01 0. -1.
        -16    1    6    6    0    0  0.75477631998E+02  0.70686673279E+02  0.43884625785E+03  0.45086529778E+03  0.00000000000E+00 0.  1.
<mgrwt>
<rscale>  2 0.28319069E+03</rscale>
<asrwt>0</asrwt>
<pdfrwt beam="1">  1       21 0.31207203E+00 0.28357637E+03</pdfrwt>
<pdfrwt beam="2">  1       21 0.70023551E-02 0.28357637E+03</pdfrwt>
<totfact> 0.40161230E+03</totfact>
</mgrwt>
</event>
<event>
12    2  0.4090627E-002  0.1795394E+03  0.7546771E-02  0.1168790E+00
         21   -1    0    0  501  502  0.00000000000E+00  0.00000000000E+00  0.11257692080E+04  0.11257692080E+04  0.00000000000E+00 0. -1.
         21   -1    0    0  502  503 -0.00000000000E+00 -0.00000000000E+00 -0.34741195033E+02  0.34741195033E+02  0.00000000000E+00 0. -1.
         -6    2    1    2    0  503 -0.14329664307E+02 -0.42816400131E+02  0.29806691686E+03  0.34796304623E+03  0.17376941968E+03 0.  0.
        -24    2    3    3    0    0 -0.31512127769E+02 -0.13133786379E+02  0.30159105073E+03  0.31316643534E+03  0.77139767948E+02 0.  0.
          6    2    1    2  501    0  0.14329664307E+02  0.42816400131E+02  0.79296109616E+03  0.81254735685E+03  0.17148563703E+03 0.  0.
         24    2    5    5    0    0  0.60979714542E+02  0.69169793614E+02  0.58296939731E+03  0.59577712799E+03  0.81203953740E+02 0.  0.
          5    1    5    5  501    0 -0.46650050236E+02 -0.26353393483E+02  0.20999169885E+03  0.21677022886E+03  0.47000000000E+01 0. -1.
        -15    1    6    6    0    0  0.29936140010E+02  0.39922771643E+02  0.10899624012E+03  0.11988885797E+03  0.17770000000E+01 0.  1.
         16    1    6    6    0    0  0.31043574532E+02  0.29247021971E+02  0.47397315718E+03  0.47588827002E+03  0.00000000000E+00 0. -1.
         -5    1    3    3    0  503  0.17182463462E+02 -0.29682613752E+02 -0.35241338779E+01  0.34796610889E+02  0.47000000000E+01 0.  1.
         15    1    4    4    0    0  0.16464842336E+02  0.17050462689E+02  0.51324133037E+02  0.56560884647E+02  0.17770000000E+01 0. -1.
        -16    1    4    4    0    0 -0.47976970105E+02 -0.30184249069E+02  0.25026691770E+03  0.25660555069E+03  0.00000000000E+00 0.  1.
<mgrwt>
<rscale>  2 0.17898446E+03</rscale>
<asrwt>0</asrwt>
<pdfrwt beam="1">  1       21 0.17319523E+00 0.17953940E+03</pdfrwt>
<pdfrwt beam="2">  1       21 0.53448001E-02 0.17953940E+03</pdfrwt>
<totfact> 0.49072057E+04</totfact>
</mgrwt>
</event>
<event>
12    2  0.4090627E-002  0.2129670E+03  0.7546771E-02  0.1139307E+00
         21   -1    0    0  501  502  0.00000000000E+00  0.00000000000E+00  0.30440448300E+03  0.30440448300E+03  0.00000000000E+00 0.  1.
         21   -1    0    0  502  503 -0.00000000000E+00 -0.00000000000E+00 -0.15962563644E+03  0.15962563644E+03  0.00000000000E+00 0.  1.
         -6    2    1    2    0  503  0.89787316772E+02 -0.82252099248E+02  0.13301974549E+03  0.25109597780E+03  0.17472197141E+03 0.  0.
        -24    2    3    3    0    0  0.10186143504E+03 -0.79628692908E+02  0.16030040278E+03  0.22078111586E+03  0.79571359841E+02 0.  0.
          6    2    1    2  501    0 -0.89787316772E+02  0.82252099248E+02  0.11759101067E+02  0.21293414164E+03  0.17428569113E+03 0.  0.
         24    2    5    5    0    0 -0.68704157024E+02  0.49683792041E+02 -0.59865757414E+02  0.13134122153E+03  0.80485198502E+02 0.  0.
          5    1    5    5  501    0 -0.21083159747E+02  0.32568307207E+02  0.71624858480E+02  0.81592920107E+02  0.47000000000E+01 0. -1.
        -15    1    6    6    0    0 -0.33005792646E+02  0.39364843356E+02  0.98531830123E+01  0.52337521771E+02  0.17770000000E+01 0.  1.
         16    1    6    6    0    0 -0.35698364378E+02  0.10318948684E+02 -0.69718940426E+02  0.79003699757E+02  0.00000000000E+00 0. -1.
         -5    1    3    3    0  503 -0.12074118266E+02 -0.26234063402E+01 -0.27280657287E+02  0.30314861945E+02  0.47000000000E+01 0.  1.
         15    1    4    4    0    0 -0.10594070347E+02 -0.17117174001E+02  0.39145673427E+02  0.44054210348E+02  0.17770000000E+01 0. -1.
        -16    1    4    4    0    0  0.11245550538E+03 -0.62511518907E+02  0.12115472935E+03  0.17672690551E+03  0.00000000000E+00 0.  1.
<mgrwt>
<rscale>  2 0.21287748E+03</rscale>
<asrwt>0</asrwt>
<pdfrwt beam="1">  1       21 0.46831459E-01 0.21296699E+03</pdfrwt>
<pdfrwt beam="2">  1       21 0.24557790E-01 0.21296699E+03</pdfrwt>
<totfact> 0.67788191E+04</totfact>
</mgrwt>
</event>
<event>
11    2  0.4090627E-002  0.2047922E+03  0.7546771E-02  0.1145979E+00
         21   -1    0    0  501  502  0.00000000000E+00  0.00000000000E+00  0.12601242581E+04  0.12601242581E+04  0.00000000000E+00 0.  1.
         21   -1    0    0  502  503 -0.00000000000E+00 -0.00000000000E+00 -0.70907875156E+02  0.70907875156E+02  0.00000000000E+00 0. -1.
         -6    2    1    2    0  503  0.61909825674E+02  0.90311181760E+02  0.10942713027E+03  0.23219418138E+03  0.17306329756E+03 0.  0.
          6    2    1    2  501    0 -0.61909825674E+02 -0.90311181760E+02  0.10797892527E+04  0.10988379519E+04  0.17178788732E+03 0.  0.
         24    2    4    4    0    0 -0.69789734962E+02 -0.26219352583E+02  0.90955520792E+03  0.91670729676E+03  0.86622919216E+02 0.  0.
          5    1    4    4  501    0  0.78799092881E+01 -0.64091829177E+02  0.17023404475E+03  0.18213065510E+03  0.47000000000E+01 0. -1.
        -15    1    5    5    0    0 -0.32134821082E+02  0.31513492226E+02  0.39334396405E+03  0.39591461037E+03  0.17770000000E+01 0.  1.
         16    1    5    5    0    0 -0.37654913880E+02 -0.57732844809E+02  0.51621124386E+03  0.52079268639E+03  0.00000000000E+00 0. -1.
         -5    1    3    3    0  503 -0.36781730145E+02  0.66760938802E+02  0.10023072017E+03  0.12600875322E+03  0.47000000000E+01 0.  1.
         15    1    3    3    0    0  0.61933005877E+02  0.73742997312E+01  0.18264492059E+02  0.65014051655E+02  0.17770000000E+01 0. -1.
        -16    1    3    3    0    0  0.36758549943E+02  0.16175943227E+02 -0.90680819556E+01  0.41171376507E+02  0.00000000000E+00 0.  1.
<mgrwt>
<rscale>  2 0.20452249E+03</rscale>
<asrwt>0</asrwt>
<pdfrwt beam="1">  1       21 0.19386525E+00 0.20479219E+03</pdfrwt>
<pdfrwt beam="2">  1       21 0.10908905E-01 0.20479219E+03</pdfrwt>
<totfact> 0.10131762E+04</totfact>
</mgrwt>
</event>
<event>
12    2  0.4090627E-002  0.2049087E+03  0.7546771E-02  0.1146022E+00
         21   -1    0    0  501  502  0.00000000000E+00  0.00000000000E+00  0.27306142126E+03  0.27306142126E+03  0.00000000000E+00 0.  1.
         21   -1    0    0  502  503 -0.00000000000E+00 -0.00000000000E+00 -0.15329520991E+03  0.15329520991E+03  0.00000000000E+00 0. -1.
         -6    2    1    2    0  503  0.68236935362E+02 -0.86838381305E+02  0.43824698182E+02  0.20782820758E+03  0.17051327186E+03 0.  0.
        -24    2    3    3    0    0  0.84775615600E+02 -0.11466901945E+03  0.55988820686E+02  0.17292651364E+03  0.80205623607E+02 0.  0.
          6    2    1    2  501    0 -0.68236935362E+02  0.86838381305E+02  0.75941513162E+02  0.21852842359E+03  0.17259888377E+03 0.  0.
         24    2    5    5    0    0 -0.22569100750E+02 -0.22673237104E+02  0.27289709777E+02  0.90202924729E+02  0.79802251726E+02 0.  0.
          5    1    5    5  501    0 -0.45667834612E+02  0.10951161841E+03  0.48651803385E+02  0.12832549886E+03  0.47000000000E+01 0. -1.
        -15    1    6    6    0    0 -0.67501917245E+01  0.10244898405E+02 -0.24132773689E+02  0.27130638153E+02  0.17770000000E+01 0.  1.
         16    1    6    6    0    0 -0.15818909025E+02 -0.32918135509E+02  0.51422483466E+02  0.63072286577E+02  0.00000000000E+00 0. -1.
         -5    1    3    3    0  503 -0.16538680239E+02  0.27830638142E+02 -0.12164122504E+02  0.34901693937E+02  0.47000000000E+01 0.  1.
         15    1    4    4    0    0  0.15802001327E+02 -0.43116903980E+02  0.57403630489E+02  0.73533020998E+02  0.17770000000E+01 0. -1.
        -16    1    4    4    0    0  0.68973614274E+02 -0.71552115466E+02 -0.14148098034E+01  0.99393492646E+02  0.00000000000E+00 0.  1.
<mgrwt>
<rscale>  2 0.20446883E+03</rscale>
<asrwt>0</asrwt>
<pdfrwt beam="1">  1       21 0.42009450E-01 0.20490866E+03</pdfrwt>
<pdfrwt beam="2">  1       21 0.23583878E-01 0.20490866E+03</pdfrwt>
<totfact> 0.91837171E+04</totfact>
</mgrwt>
</event>
<event>
12    2  0.4090627E-002  0.1923076E+03  0.7546771E-02  0.1156983E+00
         21   -1    0    0  501  502  0.00000000000E+00  0.00000000000E+00  0.74885004355E+02  0.74885004355E+02  0.00000000000E+00 0.  1.
         21   -1    0    0  502  503 -0.00000000000E+00 -0.00000000000E+00 -0.73778341992E+03  0.73778341992E+03  0.00000000000E+00 0.  1.
         -6    2    1    2    0  503  0.11013153567E+02  0.77840631313E+02 -0.56978831851E+03  0.60136590869E+03  0.17550434405E+03 0.  0.
        -24    2    3    3    0    0  0.35667192120E+02  0.10979385833E+03 -0.51026947445E+03  0.52930056936E+03  0.80357428093E+02 0.  0.
          6    2    1    2  501    0 -0.11013153567E+02 -0.77840631313E+02 -0.93110097052E+02  0.21130251559E+03  0.17262331675E+03 0.  0.
         24    2    5    5    0    0 -0.10534329904E+02 -0.31131892603E+01  0.13055241952E+02  0.81388740056E+02  0.79580296629E+02 0.  0.
          5    1    5    5  501    0 -0.47882366301E+00 -0.74727442053E+02 -0.10616533900E+03  0.12991377553E+03  0.47000000000E+01 0. -1.
        -15    1    6    6    0    0 -0.24801543762E+02 -0.34270846983E+02  0.19339100975E+02  0.46548534686E+02  0.17770000000E+01 0.  1.
         16    1    6    6    0    0  0.14267213857E+02  0.31157657723E+02 -0.62838590232E+01  0.34840205370E+02  0.00000000000E+00 0. -1.
         -5    1    3    3    0  503 -0.24654038553E+02 -0.31953227013E+02 -0.59518844067E+02  0.72065339329E+02  0.47000000000E+01 0.  1.
         15    1    4    4    0    0  0.59870208332E+02  0.80284768041E+02 -0.32272525809E+03  0.33791246761E+03  0.17770000000E+01 0. -1.
        -16    1    4    4    0    0 -0.24203016212E+02  0.29509090285E+02 -0.18754421635E+03  0.19138810175E+03  0.00000000000E+00 0.  1.
<mgrwt>
<rscale>  2 0.19164784E+03</rscale>
<asrwt>0</asrwt>
<pdfrwt beam="1">  1       21 0.11520769E-01 0.19230764E+03</pdfrwt>
<pdfrwt beam="2">  1       21 0.11350515E+00 0.19230764E+03</pdfrwt>
<totfact> 0.38208125E+04</totfact>
</mgrwt>
</event>
<event>
12    2  0.4090627E-002  0.2326762E+03  0.7546771E-02  0.1125126E+00
         21   -1    0    0  503  502  0.00000000000E+00  0.00000000000E+00  0.16930409519E+03  0.16930409519E+03  0.00000000000E+00 0.  1.
         21   -1    0    0  501  503 -0.00000000000E+00 -0.00000000000E+00 -0.34640502187E+03  0.34640502187E+03  0.00000000000E+00 0.  1.
          6    2    1    2  501    0 -0.24757280513E+02  0.13443227723E+03 -0.16407776820E+03  0.28470992942E+03  0.18829038688E+03 0.  0.
         24    2    3    3    0    0 -0.44687768651E+02  0.14386033229E+03 -0.64063818218E+02  0.18218679656E+03  0.79969145064E+02 0.  0.
         -6    2    1    2    0  502  0.24757280513E+02 -0.13443227723E+03 -0.13023158478E+02  0.23099918765E+03  0.18575807368E+03 0.  0.
        -24    2    5    5    0    0 -0.29479892474E+02 -0.14831655474E+03 -0.25528429398E+02  0.17344125252E+03  0.81014214177E+02 0.  0.
          5    1    3    3  501    0  0.19930488138E+02 -0.94280550590E+01 -0.10001394998E+03  0.10252313286E+03  0.47000000000E+01 0. -1.
        -15    1    4    4    0    0 -0.60672566106E+02  0.10956319562E+03 -0.70610447455E+02  0.14378542044E+03  0.17770000000E+01 0.  1.
         16    1    4    4    0    0  0.15984797456E+02  0.34297136668E+02  0.65466292373E+01  0.38401376117E+02  0.00000000000E+00 0. -1.
         -5    1    5    5    0  502  0.54237172987E+02  0.13884277508E+02  0.12505270920E+02  0.57557935129E+02  0.47000000000E+01 0.  1.
         15    1    6    6    0    0 -0.31820894175E+02 -0.32683888233E+02 -0.34817102629E+02  0.57412491851E+02  0.17770000000E+01 0. -1.
        -16    1    6    6    0    0  0.23410017010E+01 -0.11563266651E+03  0.92886732307E+01  0.11602876067E+03  0.00000000000E+00 0.  1.
<mgrwt>
<rscale>  2 0.23216343E+03</rscale>
<asrwt>0</asrwt>
<pdfrwt beam="1">  1       21 0.26046784E-01 0.23267623E+03</pdfrwt>
<pdfrwt beam="2">  1       21 0.53293080E-01 0.23267623E+03</pdfrwt>
<totfact> 0.45809861E+04</totfact>
</mgrwt>
</event>
<event>
12    2  0.4090627E-002  0.1782010E+03  0.7546771E-02  0.1170403E+00
         21   -1    0    0  503  502  0.00000000000E+00  0.00000000000E+00  0.31708853399E+03  0.31708853399E+03  0.00000000000E+00 0.  1.
         21   -1    0    0  501  503 -0.00000000000E+00 -0.00000000000E+00 -0.10032832698E+03  0.10032832698E+03  0.00000000000E+00 0.  1.
          6    2    1    2  501    0 -0.22282730579E+02 -0.87332883870E+01  0.77204260535E+02  0.19107320520E+03  0.17313486504E+03 0.  0.
         24    2    3    3    0    0 -0.40586561216E+01 -0.67222915584E+02  0.12913458863E+02  0.10214317338E+03  0.75703879553E+02 0.  0.
         -6    2    1    2    0  502  0.22282730579E+02  0.87332883870E+01  0.13955594647E+03  0.22634365577E+03  0.17658651676E+03 0.  0.
        -24    2    5    5    0    0  0.73530355972E+02  0.25940610863E+02  0.12923160816E+03  0.17110695586E+03  0.80604920781E+02 0.  0.
          5    1    3    3  501    0 -0.18224074457E+02  0.58489627197E+02  0.64290801673E+02  0.88930031818E+02  0.47000000000E+01 0. -1.
        -15    1    4    4    0    0 -0.36499748096E+02 -0.20425654000E+02  0.16707435951E+02  0.45074772295E+02  0.17770000000E+01 0.  1.
         16    1    4    4    0    0  0.32441091975E+02 -0.46797261584E+02 -0.37939770881E+01  0.57068401085E+02  0.00000000000E+00 0. -1.
         -5    1    5    5    0  502 -0.51247625393E+02 -0.17207322476E+02  0.10324338310E+02  0.55236699909E+02  0.47000000000E+01 0.  1.
         15    1    6    6    0    0  0.30018739794E+01  0.24779928583E+02  0.83190577381E+02  0.86872815092E+02  0.17770000000E+01 0. -1.
        -16    1    6    6    0    0  0.70528481993E+02  0.11606822808E+01  0.46041030780E+02  0.84234140767E+02  0.00000000000E+00 0.  1.
<mgrwt>
<rscale>  2 0.17733981E+03</rscale>
<asrwt>0</asrwt>
<pdfrwt beam="1">  1       21 0.48782851E-01 0.17820098E+03</pdfrwt>
<pdfrwt beam="2">  1       21 0.15435127E-01 0.17820098E+03</pdfrwt>
<totfact> 0.15005694E+05</totfact>
</mgrwt>
</event>
<event>
12    2  0.4090627E-002  0.1792244E+03  0.7546771E-02  0.1168560E+00
         21   -1    0    0  503  502  0.00000000000E+00  0.00000000000E+00  0.80127184557E+03  0.80127184557E+03  0.00000000000E+00 0. -1.
         21   -1    0    0  501  503 -0.00000000000E+00 -0.00000000000E+00 -0.10302248192E+03  0.10302248192E+03  0.00000000000E+00 0. -1.
          6    2    1    2  501    0  0.26744711530E+02 -0.41940110024E+02 -0.42876087701E+01  0.17925668162E+03  0.17216364858E+03 0.  0.
         24    2    3    3    0    0  0.29443939888E+02  0.11234553736E+01  0.58034724870E+02  0.10330985964E+03  0.80228985156E+02 0.  0.
         -6    2    1    2    0  502 -0.26744711530E+02  0.41940110024E+02  0.70253697242E+03  0.72503764587E+03  0.17218344257E+03 0.  0.
        -24    2    5    5    0    0  0.37850753169E+02  0.74912164638E+02  0.44720446572E+03  0.45956352393E+03  0.64515784432E+02 0.  0.
          5    1    3    3  501    0 -0.26992283582E+01 -0.43063565398E+02 -0.62322333640E+02  0.75946821980E+02  0.47000000000E+01 0. -1.
        -15    1    4    4    0    0 -0.19486178899E+02 -0.36700256154E+01  0.49574950641E+02  0.53422969930E+02  0.17770000000E+01 0.  1.
         16    1    4    4    0    0  0.48930118787E+02  0.47934809890E+01  0.84597742286E+01  0.49886889706E+02  0.00000000000E+00 0. -1.
         -5    1    5    5    0  502 -0.64595464699E+02 -0.32972054614E+02  0.25533250670E+03  0.26547412195E+03  0.47000000000E+01 0.  1.
         15    1    6    6    0    0  0.45393964647E+02  0.30986266441E+02  0.16657848716E+03  0.17542038322E+03  0.17770000000E+01 0. -1.
        -16    1    6    6    0    0 -0.75432114779E+01  0.43925898197E+02  0.28062597855E+03  0.28414314071E+03  0.00000000000E+00 0.  1.
<mgrwt>
<rscale>  2 0.17921966E+03</rscale>
<asrwt>0</asrwt>
<pdfrwt beam="1">  1       21 0.12327259E+00 0.17922441E+03</pdfrwt>
<pdfrwt beam="2">  1       21 0.15849613E-01 0.17922441E+03</pdfrwt>
<totfact> 0.17677478E+04</totfact>
</mgrwt>
</event>
<event>
12    2  0.4090627E-002  0.1758827E+03  0.7546771E-02  0.1172010E+00
         21   -1    0    0  501  502  0.00000000000E+00  0.00000000000E+00  0.12484299904E+04  0.12484299904E+04  0.00000000000E+00 0. -1.
         21   -1    0    0  502  503 -0.00000000000E+00 -0.00000000000E+00 -0.42387892334E+02  0.42387892334E+02  0.00000000000E+00 0.  1.
         -6    2    1    2    0  503 -0.30740307287E+02 -0.13453294887E+02  0.18531412621E+03  0.25504748186E+03  0.17199399697E+03 0.  0.
        -24    2    3    3    0    0 -0.55313461895E+02 -0.46980090501E+02  0.16676978310E+03  0.20928867273E+03  0.10355133995E+03 0.  0.
          6    2    1    2  501    0  0.30740307287E+02  0.13453294887E+02  0.10207279719E+04  0.10357704009E+04  0.17265217396E+03 0.  0.
         24    2    5    5    0    0  0.82510948190E+02 -0.15547831164E+02  0.69930593757E+03  0.70888283811E+03  0.80226505686E+02 0.  0.
          5    1    5    5  501    0 -0.51770640902E+02  0.29001126051E+02  0.32142203430E+03  0.32688756279E+03  0.47000000000E+01 0. -1.
        -15    1    6    6    0    0  0.80761564360E+02  0.14770982808E+02  0.42176727020E+03  0.42968756108E+03  0.17770000000E+01 0.  1.
         16    1    6    6    0    0  0.17493838295E+01 -0.30318813971E+02  0.27753866738E+03  0.27919527703E+03  0.00000000000E+00 0. -1.
         -5    1    3    3    0  503  0.24573154608E+02  0.33526795614E+02  0.18544343111E+02  0.45758809129E+02  0.47000000000E+01 0.  1.
         15    1    4    4    0    0 -0.27600813623E+02  0.32163117082E+02  0.61304847903E+02  0.74550071218E+02  0.17770000000E+01 0. -1.
        -16    1    4    4    0    0 -0.27712648272E+02 -0.79143207583E+02  0.10546493520E+03  0.13473860151E+03  0.00000000000E+00 0.  1.
<mgrwt>
<rscale>  2 0.17572099E+03</rscale>
<asrwt>0</asrwt>
<pdfrwt beam="1">  1       21 0.19206612E+00 0.17588272E+03</pdfrwt>
<pdfrwt beam="2">  1       21 0.65212152E-02 0.17588272E+03</pdfrwt>
<totfact> 0.26154665E+04</totfact>
</mgrwt>
</event>
<event>
12    2  0.4090627E-002  0.1964630E+03  0.7546771E-02  0.1152775E+00
         21   -1    0    0  503  502  0.00000000000E+00  0.00000000000E+00  0.14876479236E+03  0.14876479236E+03  0.00000000000E+00 0.  1.
         21   -1    0    0  501  503 -0.00000000000E+00 -0.00000000000E+00 -0.46182059185E+03  0.46182059185E+03  0.00000000000E+00 0.  1.
          6    2    1    2  501    0 -0.88211964628E+02  0.24657553564E+02 -0.35865418762E+03  0.40890021104E+03  0.17371589059E+03 0.  0.
         24    2    3    3    0    0 -0.60027353290E+02  0.67606619218E+02 -0.14527211882E+03  0.18937118827E+03  0.81138895322E+02 0.  0.
         -6    2    1    2    0  502  0.88211964628E+02 -0.24657553564E+02  0.45598388130E+02  0.20168517316E+03  0.17380549595E+03 0.  0.
        -24    2    5    5    0    0  0.14137719235E+02 -0.37203929809E+02  0.79636511675E+02  0.11907107484E+03  0.79069206226E+02 0.  0.
          5    1    3    3  501    0 -0.28184611338E+02 -0.42949065654E+02 -0.21338206880E+03  0.21952902278E+03  0.47000000000E+01 0. -1.
        -15    1    4    4    0    0 -0.46779811116E+02  0.43415429784E+02 -0.14845971954E+03  0.16160660979E+03  0.17770000000E+01 0.  1.
         16    1    4    4    0    0 -0.13247542174E+02  0.24191189434E+02  0.31876007209E+01  0.27764578481E+02  0.00000000000E+00 0. -1.
         -5    1    5    5    0  502  0.74074245393E+02  0.12546376244E+02 -0.34038123545E+02  0.82614098323E+02  0.47000000000E+01 0.  1.
         15    1    6    6    0    0 -0.60165633559E+01  0.16670847935E+02 -0.33242475432E+01  0.18119728371E+02  0.17770000000E+01 0. -1.
        -16    1    6    6    0    0  0.20154282591E+02 -0.53874777744E+02  0.82960759218E+02  0.10095134647E+03  0.00000000000E+00 0.  1.
<mgrwt>
<rscale>  2 0.19644314E+03</rscale>
<asrwt>0</asrwt>
<pdfrwt beam="1">  1       21 0.22886891E-01 0.19646296E+03</pdfrwt>
<pdfrwt beam="2">  1       21 0.71049321E-01 0.19646296E+03</pdfrwt>
<totfact> 0.32055417E+04</totfact>
</mgrwt>
</event>
<event>
11    2  0.4090627E-002  0.1878812E+03  0.7546771E-02  0.1160758E+00
         21   -1    0    0  503  502  0.00000000000E+00  0.00000000000E+00  0.88142492705E+02  0.88142492705E+02  0.00000000000E+00 0.  1.
         21   -1    0    0  501  503 -0.00000000000E+00 -0.00000000000E+00 -0.52669739448E+03  0.52669739448E+03  0.00000000000E+00 0.  1.
          6    2    1    2  501    0 -0.69372274699E+02  0.14036605012E+02 -0.37251646485E+03  0.41721441703E+03  0.17403969208E+03 0.  0.
         -6    2    1    2    0  502  0.69372274699E+02 -0.14036605012E+02 -0.66038436926E+02  0.19762547015E+03  0.17229397124E+03 0.  0.
        -24    2    4    4    0    0  0.65564395186E+02  0.48756473034E+01 -0.11677842943E+03  0.14313868210E+03  0.50289351560E+02 0.  0.
          5    1    3    3  501    0  0.25109866236E+02  0.25233851817E+02 -0.58729079818E+02  0.68836381923E+02  0.47000000000E+01 0. -1.
        -15    1    3    3    0    0  0.14602627056E+02 -0.35720992933E+02 -0.98130202723E+02  0.10546051616E+03  0.17770000000E+01 0.  1.
         16    1    3    3    0    0 -0.10908476799E+03  0.24523746127E+02 -0.21565718231E+03  0.24291751895E+03  0.00000000000E+00 0. -1.
         -5    1    4    4    0  502  0.38078795134E+01 -0.18912252315E+02  0.50739992500E+02  0.54486788058E+02  0.47000000000E+01 0.  1.
         15    1    5    5    0    0  0.93600367820E+01  0.14987580031E+02 -0.60142488041E+02  0.62709763518E+02  0.17770000000E+01 0. -1.
        -16    1    5    5    0    0  0.56204358404E+02 -0.10111932727E+02 -0.56635941385E+02  0.80428918578E+02  0.00000000000E+00 0.  1.
<mgrwt>
<rscale>  2 0.18747592E+03</rscale>
<asrwt>0</asrwt>
<pdfrwt beam="1">  1       21 0.13560383E-01 0.18788122E+03</pdfrwt>
<pdfrwt beam="2">  1       21 0.81030370E-01 0.18788122E+03</pdfrwt>
<totfact> 0.63073666E+04</totfact>
</mgrwt>
</event>
<event>
12    2  0.4090627E-002  0.2200265E+03  0.7546771E-02  0.1134132E+00
         21   -1    0    0  503  502  0.00000000000E+00  0.00000000000E+00  0.18445704747E+03  0.18445704747E+03  0.00000000000E+00 0.  1.
         21   -1    0    0  501  503 -0.00000000000E+00 -0.00000000000E+00 -0.66488245168E+03  0.66488245168E+03  0.00000000000E+00 0.  1.
          6    2    1    2  501    0 -0.94470535456E+02  0.94773897107E+02 -0.57099184387E+03  0.61140268032E+03  0.17284321825E+03 0.  0.
         24    2    3    3    0    0 -0.79603810512E+02  0.11732689309E+03 -0.32084108208E+03  0.35975381631E+03  0.79883927682E+02 0.  0.
         -6    2    1    2    0  502  0.94470535456E+02 -0.94773897107E+02  0.90566439656E+02  0.23793681883E+03  0.17465645170E+03 0.  0.
        -24    2    5    5    0    0  0.12348506123E+03 -0.98194670780E+02  0.10461542793E+03  0.20518001083E+03  0.79143511204E+02 0.  0.
          5    1    3    3  501    0 -0.14866724944E+02 -0.22552995987E+02 -0.25015076179E+03  0.25164886402E+03  0.47000000000E+01 0. -1.
        -15    1    4    4    0    0 -0.41520979493E+02  0.11724713631E+03 -0.25399730162E+03  0.28282268239E+03  0.17770000000E+01 0.  1.
         16    1    4    4    0    0 -0.38082831019E+02  0.79756780258E-01 -0.66843780461E+02  0.76931133918E+02  0.00000000000E+00 0. -1.
         -5    1    5    5    0  502 -0.29014525777E+02  0.34207736733E+01 -0.14048988276E+02  0.32756807998E+02  0.47000000000E+01 0.  1.
         15    1    6    6    0    0  0.69936940082E+02 -0.65979619361E+02  0.17146951055E+02  0.97681428217E+02  0.17770000000E+01 0. -1.
        -16    1    6    6    0    0  0.53548121151E+02 -0.32215051419E+02  0.87468476876E+02  0.10749858261E+03  0.00000000000E+00 0.  1.
<mgrwt>
<rscale>  2 0.21966645E+03</rscale>
<asrwt>0</asrwt>
<pdfrwt beam="1">  1       21 0.28378008E-01 0.22002648E+03</pdfrwt>
<pdfrwt beam="2">  1       21 0.10228961E+00 0.22002648E+03</pdfrwt>
<totfact> 0.90599381E+03</totfact>
</mgrwt>
</event>
<event>
12    2  0.4090627E-002  0.1808984E+03  0.7546771E-02  0.1167492E+00
         21   -1    0    0  501  502  0.00000000000E+00  0.00000000000E+00  0.93569631144E+03  0.93569631144E+03  0.00000000000E+00 0.  1.
         21   -1    0    0  502  503 -0.00000000000E+00 -0.00000000000E+00 -0.57393338645E+02  0.57393338645E+02  0.00000000000E+00 0.  1.
         -6    2    1    2    0  503 -0.19039298950E+02 -0.43144588633E+02  0.75085394254E+03  0.77180366383E+03  0.17226520846E+03 0.  0.
        -24    2    3    3    0    0 -0.74355310279E+02 -0.14864356150E+01  0.48918505355E+03  0.50108617218E+03  0.79084851114E+02 0.  0.
          6    2    1    2  501    0  0.19039298950E+02  0.43144588633E+02  0.12744903025E+03  0.22128598625E+03  0.17464329923E+03 0.  0.
         24    2    5    5    0    0  0.65289236886E+02  0.67184445760E+02  0.93245236312E+02  0.15876430193E+03  0.87948821870E+02 0.  0.
          5    1    5    5  501    0 -0.46249937936E+02 -0.24039857127E+02  0.34203793942E+02  0.62521684317E+02  0.47000000000E+01 0. -1.
        -15    1    6    6    0    0  0.43808833756E+01  0.17404422462E+02 -0.16024009936E+02  0.24125353548E+02  0.17770000000E+01 0.  1.
         16    1    6    6    0    0  0.60908353511E+02  0.49780023299E+02  0.10926924625E+03  0.13463894839E+03  0.00000000000E+00 0. -1.
         -5    1    3    3    0  503  0.55316011329E+02 -0.41658153018E+02  0.26166888899E+03  0.27071749165E+03  0.47000000000E+01 0.  1.
         15    1    4    4    0    0 -0.12597718175E+02 -0.24624417760E+01  0.65590718689E+01  0.14523955229E+02  0.17770000000E+01 0. -1.
        -16    1    4    4    0    0 -0.61757592104E+02  0.97600616097E+00  0.48262598168E+03  0.48656221695E+03  0.00000000000E+00 0.  1.
<mgrwt>
<rscale>  2 0.18032196E+03</rscale>
<asrwt>0</asrwt>
<pdfrwt beam="1">  1       21 0.14395327E+00 0.18089840E+03</pdfrwt>
<pdfrwt beam="2">  1       21 0.88297451E-02 0.18089840E+03</pdfrwt>
<totfact> 0.33863164E+04</totfact>
</mgrwt>
</event>
<event>
12    2  0.4090627E-002  0.2182469E+03  0.7546771E-02  0.1135411E+00
         21   -1    0    0  501  502  0.00000000000E+00  0.00000000000E+00  0.43626842041E+02  0.43626842041E+02  0.00000000000E+00 0.  1.
         21   -1    0    0  502  503 -0.00000000000E+00 -0.00000000000E+00 -0.11608188238E+04  0.11608188238E+04  0.00000000000E+00 0. -1.
         -6    2    1    2    0  503 -0.12616887425E+03  0.36647466137E+02 -0.40720404135E+03  0.46200307590E+03  0.17427016166E+03 0.  0.
        -24    2    3    3    0    0  0.63979756046E+01  0.12776384407E+02 -0.13112813976E+03  0.15478362394E+03  0.80988956737E+02 0.  0.
          6    2    1    2  501    0  0.12616887425E+03 -0.36647466137E+02 -0.70998794036E+03  0.74244258989E+03  0.17284820573E+03 0.  0.
         24    2    5    5    0    0  0.74357177287E+02 -0.43311447587E+02 -0.22041083806E+03  0.25006398588E+03  0.80908517437E+02 0.  0.
          5    1    5    5  501    0  0.51811696962E+02  0.66639814496E+01 -0.48957710230E+03  0.49237860401E+03  0.47000000000E+01 0. -1.
        -15    1    6    6    0    0  0.86888337964E+02 -0.23433538008E+02 -0.14127099233E+03  0.16750929819E+03  0.17770000000E+01 0.  1.
         16    1    6    6    0    0 -0.12531160677E+02 -0.19877909579E+02 -0.79139845732E+02  0.82554687690E+02  0.00000000000E+00 0. -1.
         -5    1    3    3    0  503 -0.13256684985E+03  0.23871081730E+02 -0.27607590159E+03  0.30721945196E+03  0.47000000000E+01 0.  1.
         15    1    4    4    0    0 -0.14003270086E+02 -0.27385593946E+02 -0.84539339414E+02  0.89978441675E+02  0.17770000000E+01 0. -1.
        -16    1    4    4    0    0  0.20401245690E+02  0.40161978353E+02 -0.46588800347E+02  0.64805182267E+02  0.00000000000E+00 0.  1.
<mgrwt>
<rscale>  2 0.21796291E+03</rscale>
<asrwt>0</asrwt>
<pdfrwt beam="1">  1       21 0.67118232E-02 0.21824690E+03</pdfrwt>
<pdfrwt beam="2">  1       21 0.17858748E+00 0.21824690E+03</pdfrwt>
<totfact> 0.29756023E+04</totfact>
</mgrwt>
</event>
<event>
12    2  0.4090627E-002  0.1778074E+03  0.7546771E-02  0.1170539E+00
         21   -1    0    0  503  502  0.00000000000E+00  0.00000000000E+00  0.30000479748E+03  0.30000479748E+03  0.00000000000E+00 0.  1.
         21   -1    0    0  501  503 -0.00000000000E+00 -0.00000000000E+00 -0.10649697725E+03  0.10649697725E+03  0.00000000000E+00 0.  1.
          6    2    1    2  501    0  0.32006866305E+02 -0.15037559845E+02  0.12747802637E+03  0.21682991302E+03  0.17179638028E+03 0.  0.
         24    2    3    3    0    0  0.32905338556E+02 -0.39591759486E+01 -0.26140487238E+01  0.86179326168E+02  0.79508531796E+02 0.  0.
         -6    2    1    2    0  502 -0.32006866305E+02  0.15037559845E+02  0.66029793862E+02  0.18967186171E+03  0.17425531197E+03 0.  0.
        -24    2    5    5    0    0 -0.57063997768E+02  0.41182636024E+02 -0.83965339861E+01  0.10676955099E+03  0.79855656557E+02 0.  0.
          5    1    3    3  501    0 -0.89847225152E+00 -0.11078383897E+02  0.13009207509E+03  0.13065058685E+03  0.47000000000E+01 0. -1.
        -15    1    4    4    0    0  0.13281622167E+02  0.37305278079E+02  0.46567997189E+01  0.39911511780E+02  0.17770000000E+01 0.  1.
         16    1    4    4    0    0  0.19623716389E+02 -0.41264454028E+02 -0.72708484427E+01  0.46267814388E+02  0.00000000000E+00 0. -1.
         -5    1    5    5    0  502  0.25057131463E+02 -0.26145076179E+02  0.74426327848E+02  0.82902310718E+02  0.47000000000E+01 0.  1.
         15    1    6    6    0    0 -0.19036597883E+02  0.49420019959E+02  0.22019623027E+02  0.57382505687E+02  0.17770000000E+01 0. -1.
        -16    1    6    6    0    0 -0.38027399885E+02 -0.82373839350E+01 -0.30416157013E+02  0.49387045301E+02  0.00000000000E+00 0.  1.
<mgrwt>
<rscale>  2 0.17720206E+03</rscale>
<asrwt>0</asrwt>
<pdfrwt beam="1">  1       21 0.46154584E-01 0.17780743E+03</pdfrwt>
<pdfrwt beam="2">  1       21 0.16384150E-01 0.17780743E+03</pdfrwt>
<totfact> 0.15089048E+05</totfact>
</mgrwt>
</event>
<event>
12    2  0.4090627E-002  0.2283693E+03  0.7546771E-02  0.1128865E+00
         21   -1    0    0  501  502  0.00000000000E+00  0.00000000000E+00  0.30954633420E+03  0.30954633420E+03  0.00000000000E+00 0.  1.
         21   -1    0    0  502  503 -0.00000000000E+00 -0.00000000000E+00 -0.17443930341E+03  0.17443930341E+03  0.00000000000E+00 0. -1.
         -6    2    1    2    0  503  0.97840560912E+02  0.97866189228E+02  0.78532612922E+01  0.22255484404E+03  0.17412184968E+03 0.  0.
        -24    2    3    3    0    0  0.12656723910E+03  0.11379969480E+03  0.13983494768E+02  0.18880920133E+03  0.80521673043E+02 0.  0.
          6    2    1    2  501    0 -0.97840560912E+02 -0.97866189228E+02  0.12725376949E+03  0.26143079358E+03  0.18166444789E+03 0.  0.
         24    2    5    5    0    0 -0.68925299095E+02 -0.12771498523E+03  0.14049547063E+03  0.21756194771E+03  0.80823322851E+02 0.  0.
          5    1    5    5  501    0 -0.28915261817E+02  0.29848795999E+02 -0.13241701140E+02  0.43868845866E+02  0.47000000000E+01 0. -1.
        -15    1    6    6    0    0 -0.75493033634E+02 -0.55800919532E+02  0.80451541276E+02  0.12364687206E+03  0.17770000000E+01 0.  1.
         16    1    6    6    0    0  0.65677345388E+01 -0.71914065695E+02  0.60043929358E+02  0.93915075651E+02  0.00000000000E+00 0. -1.
         -5    1    3    3    0  503 -0.28726678186E+02 -0.15933505572E+02 -0.61302334759E+01  0.33745642710E+02  0.47000000000E+01 0.  1.
         15    1    4    4    0    0  0.28872881159E+01  0.21588068618E+02 -0.21341432469E+02  0.30544976807E+02  0.17770000000E+01 0. -1.
        -16    1    4    4    0    0  0.12367995098E+03  0.92211626183E+02  0.35324927237E+02  0.15826422452E+03  0.00000000000E+00 0.  1.
<mgrwt>
<rscale>  2 0.22686626E+03</rscale>
<asrwt>0</asrwt>
<pdfrwt beam="1">  1       21 0.47622513E-01 0.22836930E+03</pdfrwt>
<pdfrwt beam="2">  1       21 0.26836816E-01 0.22836930E+03</pdfrwt>
<totfact> 0.54851527E+04</totfact>
</mgrwt>
</event>
<event>
12    2  0.4090627E-002  0.2912146E+03  0.7546771E-02  0.1089931E+00
         21   -1    0    0  503  502  0.00000000000E+00  0.00000000000E+00  0.12491024211E+03  0.12491024211E+03  0.00000000000E+00 0.  1.
         21   -1    0    0  501  503 -0.00000000000E+00 -0.00000000000E+00 -0.67690544660E+03  0.67690544660E+03  0.00000000000E+00 0. -1.
          6    2    1    2  501    0 -0.20274002897E+03  0.11337717795E+03 -0.25613873189E+03  0.38783114029E+03  0.17563609987E+03 0.  0.
         24    2    3    3    0    0 -0.13217091486E+03 -0.25498256798E+01 -0.13942897779E+03  0.20877157830E+03  0.81666882593E+02 0.  0.
         -6    2    1    2    0  502  0.20274002897E+03 -0.11337717795E+03 -0.29585647259E+03  0.41398454842E+03  0.17289953768E+03 0.  0.
        -24    2    5    5    0    0  0.13359598151E+03 -0.29879375820E+02 -0.25071542666E+03  0.29645758859E+03  0.79298255286E+02 0.  0.
          5    1    3    3  501    0 -0.70569114107E+02  0.11592700363E+03 -0.11670975410E+03  0.17905956199E+03  0.47000000000E+01 0. -1.
        -15    1    4    4    0    0 -0.94199258279E+02  0.34754270282E+02 -0.75828785620E+02  0.12583529720E+03  0.17770000000E+01 0.  1.
         16    1    4    4    0    0 -0.37971656582E+02 -0.37304095962E+02 -0.63600192171E+02  0.82936281104E+02  0.00000000000E+00 0. -1.
         -5    1    5    5    0  502  0.69144047462E+02 -0.83497802133E+02 -0.45141045935E+02  0.11752695984E+03  0.47000000000E+01 0.  1.
         15    1    6    6    0    0  0.20491099576E+02 -0.21036075548E+02 -0.11916914426E+03  0.12274707454E+03  0.17770000000E+01 0. -1.
        -16    1    6    6    0    0  0.11310488193E+03 -0.88433002718E+01 -0.13154628240E+03  0.17371051405E+03  0.00000000000E+00 0.  1.
<mgrwt>
<rscale>  2 0.29080317E+03</rscale>
<asrwt>0</asrwt>
<pdfrwt beam="1">  1       21 0.19216960E-01 0.29121460E+03</pdfrwt>
<pdfrwt beam="2">  1       21 0.10413930E+00 0.29121460E+03</pdfrwt>
<totfact> 0.17581108E+04</totfact>
</mgrwt>
</event>
<event>
12    2  0.4090627E-002  0.3577406E+03  0.7546771E-02  0.1059486E+00
         21   -1    0    0  501  502  0.00000000000E+00  0.00000000000E+00  0.21552283107E+03  0.21552283107E+03  0.00000000000E+00 0.  1.
         21   -1    0    0  502  503 -0.00000000000E+00 -0.00000000000E+00 -0.64817092793E+03  0.64817092793E+03  0.00000000000E+00 0. -1.
         -6    2    1    2    0  503 -0.30780544225E+03 -0.55469004103E+02 -0.91183744260E+02  0.36917860017E+03  0.17365875422E+03 0.  0.
        -24    2    3    3    0    0 -0.11240057388E+03  0.11166240698E+02 -0.87323527766E+02  0.16263487671E+03  0.77885368848E+02 0.  0.
          6    2    1    2  501    0  0.30780544225E+03  0.55469004103E+02 -0.34146435260E+03  0.49451515882E+03  0.17356940259E+03 0.  0.
         24    2    5    5    0    0  0.80932706203E+02  0.34502548793E+02 -0.60932746986E+02  0.13308618605E+03  0.79111342146E+02 0.  0.
          5    1    5    5  501    0  0.22687273604E+03  0.20966455310E+02 -0.28053160562E+03  0.36142897277E+03  0.47000000000E+01 0. -1.
        -15    1    6    6    0    0  0.95964295662E+02  0.24705511933E+02 -0.58206997208E+02  0.11493789895E+03  0.17770000000E+01 0.  1.
         16    1    6    6    0    0 -0.15031589460E+02  0.97970368600E+01 -0.27257497780E+01  0.18148287103E+02  0.00000000000E+00 0. -1.
         -5    1    3    3    0  503 -0.19540486837E+03 -0.66635244801E+02 -0.38602164942E+01  0.20654372347E+03  0.47000000000E+01 0.  1.
         15    1    4    4    0    0 -0.27563402790E+02 -0.21451854276E+02 -0.56896774485E+02  0.66785656402E+02  0.17770000000E+01 0. -1.
        -16    1    4    4    0    0 -0.84837171088E+02  0.32618094974E+02 -0.30426753281E+02  0.95849220305E+02  0.00000000000E+00 0.  1.
<mgrwt>
<rscale>  2 0.35772980E+03</rscale>
<asrwt>0</asrwt>
<pdfrwt beam="1">  1       21 0.33157359E-01 0.35774064E+03</pdfrwt>
<pdfrwt beam="2">  1       21 0.99718604E-01 0.35774064E+03</pdfrwt>
<totfact> 0.66037173E+03</totfact>
</mgrwt>
</event>
<event>
12    2  0.4090627E-002  0.1932727E+03  0.7546771E-02  0.1155785E+00
         21   -1    0    0  503  502  0.00000000000E+00  0.00000000000E+00  0.36976744015E+03  0.36976744015E+03  0.00000000000E+00 0.  1.
         21   -1    0    0  501  503 -0.00000000000E+00 -0.00000000000E+00 -0.21327038689E+03  0.21327038689E+03  0.00000000000E+00 0.  1.
          6    2    1    2  501    0 -0.85546205427E+02 -0.41271332331E+01 -0.13367603135E+03  0.23499702526E+03  0.17326030715E+03 0.  0.
         24    2    3    3    0    0 -0.10484375916E+03 -0.71994785447E+01 -0.39195568307E+02  0.13840260109E+03  0.81086010422E+02 0.  0.
         -6    2    1    2    0  502  0.85546205427E+02  0.41271332331E+01  0.29017308461E+03  0.34804080178E+03  0.17203718837E+03 0.  0.
        -24    2    5    5    0    0  0.55045316967E+02  0.59543579023E+02  0.12513617046E+03  0.17123424169E+03  0.84182418867E+02 0.  0.
          5    1    3    3  501    0  0.19297553733E+02  0.30723453116E+01 -0.94480463039E+02  0.96594424176E+02  0.47000000000E+01 0. -1.
        -15    1    4    4    0    0  0.74930624472E+01 -0.15763571407E+02 -0.15199987613E+02  0.23212787871E+02  0.17770000000E+01 0.  1.
         16    1    4    4    0    0 -0.11233682161E+03  0.85640928622E+01 -0.23995580694E+02  0.11518981321E+03  0.00000000000E+00 0. -1.
         -5    1    5    5    0  502  0.30500888460E+02 -0.55416445790E+02  0.16503691415E+03  0.17680656010E+03  0.47000000000E+01 0.  1.
         15    1    6    6    0    0  0.91228458551E+01  0.83009979768E+01 -0.12316167617E+02  0.17520804709E+02  0.17770000000E+01 0. -1.
        -16    1    6    6    0    0  0.45922471112E+02  0.51242581046E+02  0.13745233807E+03  0.15371343698E+03  0.00000000000E+00 0.  1.
<mgrwt>
<rscale>  2 0.19299815E+03</rscale>
<asrwt>0</asrwt>
<pdfrwt beam="1">  1       21 0.56887298E-01 0.19327266E+03</pdfrwt>
<pdfrwt beam="2">  1       21 0.32810829E-01 0.19327266E+03</pdfrwt>
<totfact> 0.25956006E+04</totfact>
</mgrwt>
</event>
<event>
12    2  0.4090627E-002  0.2476367E+03  0.7546771E-02  0.1115176E+00
         21   -1    0    0  503  502  0.00000000000E+00  0.00000000000E+00  0.33446677020E+03  0.33446677020E+03  0.00000000000E+00 0. -1.
         21   -1    0    0  501  503 -0.00000000000E+00 -0.00000000000E+00 -0.26805524773E+03  0.26805524773E+03  0.00000000000E+00 0.  1.
          6    2    1    2  501    0 -0.14623504568E+02  0.17615397238E+03 -0.13793220530E+03  0.28146085357E+03  0.17014949299E+03 0.  0.
         24    2    3    3    0    0  0.12058190758E+02  0.78735842896E+02 -0.14021231581E+03  0.18031989391E+03  0.80691001435E+02 0.  0.
         -6    2    1    2    0  502  0.14623504568E+02 -0.17615397238E+03  0.20434372777E+03  0.32106116435E+03  0.17343541537E+03 0.  0.
        -24    2    5    5    0    0 -0.76523315937E+01 -0.19814527047E+02  0.12889290282E+03  0.14598074846E+03  0.65159994336E+02 0.  0.
          5    1    3    3  501    0 -0.26681695327E+02  0.97418129485E+02  0.22801105167E+01  0.10114095966E+03  0.47000000000E+01 0. -1.
        -15    1    4    4    0    0  0.39030265044E+02  0.39125605924E+02 -0.37015811770E+02  0.66539482102E+02  0.17770000000E+01 0.  1.
         16    1    4    4    0    0 -0.26972074286E+02  0.39610236972E+02 -0.10319650404E+03  0.11378041181E+03  0.00000000000E+00 0. -1.
         -5    1    5    5    0  502  0.22275836162E+02 -0.15633944533E+03  0.75450824946E+02  0.17508041589E+03  0.47000000000E+01 0.  1.
         15    1    6    6    0    0  0.15011072253E+01 -0.25068643642E+02  0.10763272529E+02  0.27380576720E+02  0.17770000000E+01 0. -1.
        -16    1    6    6    0    0 -0.91534388190E+01  0.52541165956E+01  0.11812963029E+03  0.11860017174E+03  0.00000000000E+00 0.  1.
<mgrwt>
<rscale>  2 0.24706213E+03</rscale>
<asrwt>0</asrwt>
<pdfrwt beam="1">  1       21 0.51456426E-01 0.24763665E+03</pdfrwt>
<pdfrwt beam="2">  1       21 0.41239269E-01 0.24763665E+03</pdfrwt>
<totfact> 0.19715963E+04</totfact>
</mgrwt>
</event>
<event>
12    2  0.4090627E-002  0.1760389E+03  0.7546771E-02  0.1173709E+00
         21   -1    0    0  503  502  0.00000000000E+00  0.00000000000E+00  0.16423052576E+03  0.16423052576E+03  0.00000000000E+00 0.  1.
         21   -1    0    0  501  503 -0.00000000000E+00 -0.00000000000E+00 -0.10301237200E+04  0.10301237200E+04  0.00000000000E+00 0.  1.
          6    2    1    2  501    0 -0.40243181161E+02  0.14343023292E+02 -0.97705680120E+03  0.99278884965E+03  0.17077608516E+03 0.  0.
         24    2    3    3    0    0 -0.47140507526E+02  0.46094378788E+01 -0.97536078444E+03  0.97985508497E+03  0.80894087162E+02 0.  0.
         -6    2    1    2    0  502  0.40243181161E+02 -0.14343023292E+02  0.11116360695E+03  0.20156539613E+03  0.16262233998E+03 0.  0.
        -24    2    5    5    0    0  0.89390336891E+01 -0.67302535313E+02  0.50827607831E+02  0.11526833736E+03  0.78062835572E+02 0.  0.
          5    1    3    3  501    0  0.68973263651E+01  0.97335854127E+01 -0.16960167585E+01  0.12933764681E+02  0.47000000000E+01 0. -1.
        -15    1    4    4    0    0 -0.70250442681E+01 -0.31312723299E+02 -0.19430323107E+03  0.19694349753E+03  0.17770000000E+01 0.  1.
         16    1    4    4    0    0 -0.40115463258E+02  0.35922161178E+02 -0.78105755338E+03  0.78291158744E+03  0.00000000000E+00 0. -1.
         -5    1    5    5    0  502  0.31304147472E+02  0.52959512022E+02  0.60335999118E+02  0.86297058768E+02  0.47000000000E+01 0.  1.
         15    1    6    6    0    0  0.17098298108E+02 -0.46589341370E+02 -0.98575974666E+01  0.50628534290E+02  0.17770000000E+01 0. -1.
        -16    1    6    6    0    0 -0.81592644193E+01 -0.20713193943E+02  0.60685205298E+02  0.64639803072E+02  0.00000000000E+00 0.  1.
<mgrwt>
<rscale>  2 0.17403023E+03</rscale>
<asrwt>0</asrwt>
<pdfrwt beam="1">  1       21 0.25266234E-01 0.17603894E+03</pdfrwt>
<pdfrwt beam="2">  1       21 0.15848057E+00 0.17603894E+03</pdfrwt>
<totfact> 0.38919414E+03</totfact>
</mgrwt>
</event>
<event>
12    2  0.4090627E-002  0.1820649E+03  0.7546771E-02  0.1165879E+00
         21   -1    0    0  503  502  0.00000000000E+00  0.00000000000E+00  0.28142319224E+03  0.28142319224E+03  0.00000000000E+00 0. -1.
         21   -1    0    0  501  503 -0.00000000000E+00 -0.00000000000E+00 -0.13089020290E+03  0.13089020290E+03  0.00000000000E+00 0. -1.
          6    2    1    2  501    0 -0.22412437221E+02  0.52400754945E+02  0.14085240075E+03  0.22999126380E+03  0.17265116903E+03 0.  0.
         24    2    3    3    0    0  0.17442032070E+02  0.41670372850E+02  0.16022725617E+03  0.18415465349E+03  0.78737020045E+02 0.  0.
         -6    2    1    2    0  502  0.22412437221E+02 -0.52400754945E+02  0.96805885874E+01  0.18232213134E+03  0.17291468798E+03 0.  0.
        -24    2    5    5    0    0  0.85163663332E+02 -0.29062844663E+02  0.15643047846E+02  0.11494249528E+03  0.69782331454E+02 0.  0.
          5    1    3    3  501    0 -0.39854469291E+02  0.10730382095E+02 -0.19374855422E+02  0.45836610313E+02  0.47000000000E+01 0. -1.
        -15    1    4    4    0    0  0.28078287491E+02  0.11129638223E+02  0.12178544821E+02  0.32614931525E+02  0.17770000000E+01 0.  1.
         16    1    4    4    0    0 -0.10636255421E+02  0.30540734626E+02  0.14804871135E+03  0.15153972196E+03  0.00000000000E+00 0. -1.
         -5    1    5    5    0  502 -0.62751226112E+02 -0.23337910282E+02 -0.59624592586E+01  0.67379636058E+02  0.47000000000E+01 0.  1.
         15    1    6    6    0    0  0.25351577299E+02  0.16263471579E+02 -0.15224826663E+02  0.33795799374E+02  0.17770000000E+01 0. -1.
        -16    1    6    6    0    0  0.59812086033E+02 -0.45326316242E+02  0.30867874509E+02  0.81146695906E+02  0.00000000000E+00 0.  1.
<mgrwt>
<rscale>  2 0.18200235E+03</rscale>
<asrwt>0</asrwt>
<pdfrwt beam="1">  1       21 0.43295876E-01 0.18206495E+03</pdfrwt>
<pdfrwt beam="2">  1       21 0.20136954E-01 0.18206495E+03</pdfrwt>
<totfact> 0.11732202E+05</totfact>
</mgrwt>
</event>
<event>
12    2  0.4090627E-002  0.1889980E+03  0.7546771E-02  0.1159804E+00
         21   -1    0    0  501  502  0.00000000000E+00  0.00000000000E+00  0.24609570836E+03  0.24609570836E+03  0.00000000000E+00 0.  1.
         21   -1    0    0  502  503 -0.00000000000E+00 -0.00000000000E+00 -0.22086162547E+03  0.22086162547E+03  0.00000000000E+00 0. -1.
         -6    2    1    2    0  503 -0.70458276435E+02  0.33439713330E+02 -0.12535571126E+03  0.22679130221E+03  0.17215590976E+03 0.  0.
        -24    2    3    3    0    0 -0.46596495479E+02  0.82845733830E+02 -0.58168943638E+02  0.13992075947E+03  0.84614088198E+02 0.  0.
          6    2    1    2  501    0  0.70458276435E+02 -0.33439713330E+02  0.15058979415E+03  0.24016603162E+03  0.17005838262E+03 0.  0.
         24    2    5    5    0    0  0.10790049347E+03  0.42586106403E+01  0.11178843176E+03  0.17420605156E+03  0.78679366218E+02 0.  0.
          5    1    5    5  501    0 -0.37442217037E+02 -0.37698323970E+02  0.38801362384E+02  0.65959980062E+02  0.47000000000E+01 0. -1.
        -15    1    6    6    0    0  0.12428487571E+02 -0.14895839564E+02 -0.69162578605E+01  0.20672341218E+02  0.17770000000E+01 0.  1.
         16    1    6    6    0    0  0.95472005901E+02  0.19154450204E+02  0.11870468962E+03  0.15353371034E+03  0.00000000000E+00 0. -1.
         -5    1    3    3    0  503 -0.23861780956E+02 -0.49406020500E+02 -0.67186767626E+02  0.86870542741E+02  0.47000000000E+01 0.  1.
         15    1    4    4    0    0 -0.52730785619E+02  0.31560810910E+02 -0.63021859371E+02  0.88042790874E+02  0.17770000000E+01 0. -1.
        -16    1    4    4    0    0  0.61342901399E+01  0.51284922920E+02  0.48529157333E+01  0.51877968595E+02  0.00000000000E+00 0.  1.
<mgrwt>
<rscale>  2 0.18851902E+03</rscale>
<asrwt>0</asrwt>
<pdfrwt beam="1">  1       21 0.37860878E-01 0.18899799E+03</pdfrwt>
<pdfrwt beam="2">  1       21 0.33978712E-01 0.18899799E+03</pdfrwt>
<totfact> 0.56237337E+04</totfact>
</mgrwt>
</event>
<event>
12    2  0.4090627E-002  0.1754636E+03  0.7546771E-02  0.1172332E+00
         21   -1    0    0  501  502  0.00000000000E+00  0.00000000000E+00  0.10144550530E+03  0.10144550530E+03  0.00000000000E+00 0. -1.
         21   -1    0    0  502  503 -0.00000000000E+00 -0.00000000000E+00 -0.31129698246E+03  0.31129698246E+03  0.00000000000E+00 0. -1.
         -6    2    1    2    0  503  0.31579819922E+02 -0.16530241679E+01 -0.13846224947E+03  0.22331206148E+03  0.17232662232E+03 0.  0.
        -24    2    3    3    0    0 -0.17124283290E+02  0.55676723623E+02 -0.69507342241E+02  0.12115698876E+03  0.80340566772E+02 0.  0.
          6    2    1    2  501    0 -0.31579819922E+02  0.16530241679E+01 -0.71389227694E+02  0.18943042627E+03  0.17259040255E+03 0.  0.
         24    2    5    5    0    0 -0.68272517409E+02  0.35808105271E+02 -0.12914682947E+02  0.11226640618E+03  0.80582875873E+02 0.  0.
          5    1    5    5  501    0  0.36692697487E+02 -0.34155081103E+02 -0.58474544748E+02  0.77164020097E+02  0.47000000000E+01 0. -1.
        -15    1    6    6    0    0 -0.19195879804E+02 -0.11794506000E+02 -0.33904630962E+02  0.40746458777E+02  0.17770000000E+01 0.  1.
         16    1    6    6    0    0 -0.49076637605E+02  0.47602611271E+02  0.20989948015E+02  0.71519947400E+02  0.00000000000E+00 0. -1.
         -5    1    3    3    0  503  0.48704103212E+02 -0.57329747791E+02 -0.68954907229E+02  0.10215507272E+03  0.47000000000E+01 0.  1.
         15    1    4    4    0    0 -0.10268882062E+02 -0.20247857195E+02 -0.19546533631E+02  0.30010837472E+02  0.17770000000E+01 0. -1.
        -16    1    4    4    0    0 -0.68554012279E+01  0.75924580818E+02 -0.49960808610E+02  0.91146151292E+02  0.00000000000E+00 0.  1.
<mgrwt>
<rscale>  2 0.17539867E+03</rscale>
<asrwt>0</asrwt>
<pdfrwt beam="1">  1       21 0.15607001E-01 0.17546357E+03</pdfrwt>
<pdfrwt beam="2">  1       21 0.47891842E-01 0.17546357E+03</pdfrwt>
<totfact> 0.15292001E+05</totfact>
</mgrwt>
</event>
<event>
12    2  0.4090627E-002  0.1933889E+03  0.7546771E-02  0.1155655E+00
         21   -1    0    0  503  502  0.00000000000E+00  0.00000000000E+00  0.20263530425E+03  0.20263530425E+03  0.00000000000E+00 0.  1.
         21   -1    0    0  501  503 -0.00000000000E+00 -0.00000000000E+00 -0.24658945748E+03  0.24658945748E+03  0.00000000000E+00 0.  1.
          6    2    1    2  501    0  0.42268898756E+02  0.68193519388E+02 -0.13550788506E+03  0.23613907374E+03  0.17596095972E+03 0.  0.
         24    2    3    3    0    0  0.33126622684E+02  0.63353270685E+02 -0.17014107333E+03  0.19968969858E+03  0.76269134305E+02 0.  0.
         -6    2    1    2    0  502 -0.42268898756E+02 -0.68193519388E+02  0.91553731830E+02  0.21308568799E+03  0.17488970446E+03 0.  0.
        -24    2    5    5    0    0 -0.64200558027E+02  0.15778628124E+02  0.32236781456E+02  0.10785779322E+03  0.78888634942E+02 0.  0.
          5    1    3    3  501    0  0.91422760721E+01  0.48402487027E+01  0.34633188276E+02  0.36449375158E+02  0.47000000000E+01 0. -1.
        -15    1    4    4    0    0  0.32271905989E+02  0.71591598710E+02 -0.91404826608E+02  0.12051901501E+03  0.17770000000E+01 0.  1.
         16    1    4    4    0    0  0.85471669489E+00 -0.82383280253E+01 -0.78736246723E+02  0.79170683572E+02  0.00000000000E+00 0. -1.
         -5    1    5    5    0  502  0.21931659272E+02 -0.83972147511E+02  0.59316950374E+02  0.10522789477E+03  0.47000000000E+01 0.  1.
         15    1    6    6    0    0 -0.27426367646E+02  0.30829744884E+02  0.49557341155E+02  0.64511755543E+02  0.17770000000E+01 0. -1.
        -16    1    6    6    0    0 -0.36774190382E+02 -0.15051116760E+02 -0.17320559699E+02  0.43346037676E+02  0.00000000000E+00 0.  1.
<mgrwt>
<rscale>  2 0.19314491E+03</rscale>
<asrwt>0</asrwt>
<pdfrwt beam="1">  1       21 0.31174662E-01 0.19338892E+03</pdfrwt>
<pdfrwt beam="2">  1       21 0.37936840E-01 0.19338892E+03</pdfrwt>
<totfact> 0.66228198E+04</totfact>
</mgrwt>
</event>
<event>
12    2  0.4090627E-002  0.1836064E+03  0.7546771E-02  0.1164578E+00
         21   -1    0    0  503  502  0.00000000000E+00  0.00000000000E+00  0.31722638134E+03  0.31722638134E+03  0.00000000000E+00 0.  1.
         21   -1    0    0  501  503 -0.00000000000E+00 -0.00000000000E+00 -0.13242675293E+03  0.13242675293E+03  0.00000000000E+00 0.  1.
          6    2    1    2  501    0  0.48151628210E+02  0.33366398427E+02 -0.83578723272E+01  0.18379652349E+03  0.17400980483E+03 0.  0.
         24    2    3    3    0    0  0.86719348129E+02 -0.11691736620E+01  0.26799813275E+02  0.12104042725E+03  0.80068362850E+02 0.  0.
         -6    2    1    2    0  502 -0.48151628210E+02 -0.33366398427E+02  0.19315750074E+03  0.26585661078E+03  0.17302607190E+03 0.  0.
        -24    2    5    5    0    0  0.39475045928E+02 -0.25943458323E+02  0.89033113591E+02  0.12948391534E+03  0.81288663020E+02 0.  0.
          5    1    3    3  501    0 -0.38567719919E+02  0.34535572089E+02 -0.35157685602E+02  0.62756096247E+02  0.47000000000E+01 0. -1.
        -15    1    4    4    0    0  0.32297406568E+02 -0.39799839255E+02  0.12459639663E+02  0.52778310178E+02  0.17770000000E+01 0.  1.
         16    1    4    4    0    0  0.54421941561E+02  0.38630665593E+02  0.14340173612E+02  0.68262117068E+02  0.00000000000E+00 0. -1.
         -5    1    5    5    0  502 -0.87626674138E+02 -0.74229401036E+01  0.10412438715E+03  0.13637269543E+03  0.47000000000E+01 0.  1.
         15    1    6    6    0    0  0.28261654838E+02 -0.55472536596E+02  0.55593389578E+02  0.83484765942E+02  0.17770000000E+01 0. -1.
        -16    1    6    6    0    0  0.11213391090E+02  0.29529078273E+02  0.33439724013E+02  0.45999149399E+02  0.00000000000E+00 0.  1.
<mgrwt>
<rscale>  2 0.18337294E+03</rscale>
<asrwt>0</asrwt>
<pdfrwt beam="1">  1       21 0.48804058E-01 0.18360639E+03</pdfrwt>
<pdfrwt beam="2">  1       21 0.20373347E-01 0.18360639E+03</pdfrwt>
<totfact> 0.89674951E+04</totfact>
</mgrwt>
</event>
<event>
12    2  0.4090627E-002  0.2385319E+03  0.7546771E-02  0.1121136E+00
         21   -1    0    0  503  502  0.00000000000E+00  0.00000000000E+00  0.10927663694E+03  0.10927663694E+03  0.00000000000E+00 0.  1.
         21   -1    0    0  501  503 -0.00000000000E+00 -0.00000000000E+00 -0.51815700773E+03  0.51815700773E+03  0.00000000000E+00 0.  1.
          6    2    1    2  501    0 -0.12488446696E+03 -0.10323582510E+03 -0.22374033884E+03  0.32548284680E+03  0.17212082578E+03 0.  0.
         24    2    3    3    0    0  0.20585633975E+01 -0.24856406147E+02 -0.57108116562E+02  0.10177264638E+03  0.80462761354E+02 0.  0.
         -6    2    1    2    0  502  0.12488446696E+03  0.10323582510E+03 -0.18514003196E+03  0.30195079787E+03  0.17505338394E+03 0.  0.
        -24    2    5    5    0    0  0.23018364477E+02 -0.79836345705E+01 -0.96937608063E+02  0.12717028229E+03  0.78624406629E+02 0.  0.
          5    1    3    3  501    0 -0.12694303036E+03 -0.78379418948E+02 -0.16663222228E+03  0.22371020042E+03  0.47000000000E+01 0. -1.
        -15    1    4    4    0    0 -0.30327312102E+02  0.12805032010E+02 -0.13322795015E+02  0.35557970979E+02  0.17770000000E+01 0.  1.
         16    1    4    4    0    0  0.32385875500E+02 -0.37661438157E+02 -0.43785321547E+02  0.66214675404E+02  0.00000000000E+00 0. -1.
         -5    1    5    5    0  502  0.10186610248E+03  0.11121945967E+03 -0.88202423893E+02  0.17478051557E+03  0.47000000000E+01 0.  1.
         15    1    6    6    0    0  0.20689389716E+02  0.23344403959E+02 -0.89626615689E+02  0.94916278961E+02  0.17770000000E+01 0. -1.
        -16    1    6    6    0    0  0.23289747611E+01 -0.31328038529E+02 -0.73109923746E+01  0.32254003334E+02  0.00000000000E+00 0.  1.
<mgrwt>
<rscale>  2 0.23799412E+03</rscale>
<asrwt>0</asrwt>
<pdfrwt beam="1">  1       21 0.16811790E-01 0.23853187E+03</pdfrwt>
<pdfrwt beam="2">  1       21 0.79716464E-01 0.23853187E+03</pdfrwt>
<totfact> 0.43180659E+04</totfact>
</mgrwt>
</event>
<event>
12    2  0.4090627E-002  0.2042276E+03  0.7546771E-02  0.1146320E+00
         21   -1    0    0  503  502  0.00000000000E+00  0.00000000000E+00  0.44970193681E+03  0.44970193681E+03  0.00000000000E+00 0. -1.
         21   -1    0    0  501  503 -0.00000000000E+00 -0.00000000000E+00 -0.93347057435E+02  0.93347057435E+02  0.00000000000E+00 0. -1.
          6    2    1    2  501    0 -0.76128369868E+02  0.76605372090E+02  0.20382012955E+03  0.28853345368E+03  0.17333492710E+03 0.  0.
         24    2    3    3    0    0  0.10722936631E+02  0.89124256431E+02  0.10470056583E+03  0.15606968574E+03  0.73057674935E+02 0.  0.
         -6    2    1    2    0  502  0.76128369868E+02 -0.76605372090E+02  0.15253474982E+03  0.25451554056E+03  0.17276399727E+03 0.  0.
        -24    2    5    5    0    0  0.10319501657E+03 -0.26354960824E+02  0.60424798634E+02  0.14605337986E+03  0.79603002926E+02 0.  0.
          5    1    3    3  501    0 -0.86851306499E+02 -0.12518884340E+02  0.99119563723E+02  0.13246376795E+03  0.47000000000E+01 0. -1.
        -15    1    4    4    0    0 -0.14984273657E+02  0.69473146174E+02  0.10098439190E+03  0.12349919689E+03  0.17770000000E+01 0.  1.
         16    1    4    4    0    0  0.25707210288E+02  0.19651110256E+02  0.37161739323E+01  0.32570488848E+02  0.00000000000E+00 0. -1.
         -5    1    5    5    0  502 -0.27066646698E+02 -0.50250411266E+02  0.92109951187E+02  0.10846216070E+03  0.47000000000E+01 0.  1.
         15    1    6    6    0    0  0.67512699942E+02 -0.48099463806E+02  0.63082860305E+02  0.10418314674E+03  0.17770000000E+01 0. -1.
        -16    1    6    6    0    0  0.35682316624E+02  0.21744502983E+02 -0.26580616702E+01  0.41870233119E+02  0.00000000000E+00 0.  1.
<mgrwt>
<rscale>  2 0.20410640E+03</rscale>
<asrwt>0</asrwt>
<pdfrwt beam="1">  1       21 0.69184912E-01 0.20422759E+03</pdfrwt>
<pdfrwt beam="2">  1       21 0.14361086E-01 0.20422759E+03</pdfrwt>
<totfact> 0.80318795E+04</totfact>
</mgrwt>
</event>
<event>
12    2  0.4090627E-002  0.2295379E+03  0.7546771E-02  0.1126966E+00
         21   -1    0    0  501  502  0.00000000000E+00  0.00000000000E+00  0.64293660169E+02  0.64293660169E+02  0.00000000000E+00 0. -1.
         21   -1    0    0  502  503 -0.00000000000E+00 -0.00000000000E+00 -0.84300759419E+03  0.84300759419E+03  0.00000000000E+00 0. -1.
         -6    2    1    2    0  503  0.86976752425E+02  0.12368359793E+03 -0.46515386522E+03  0.51870431577E+03  0.17269470465E+03 0.  0.
        -24    2    3    3    0    0  0.42816107228E+02  0.53901130351E+02 -0.10290741767E+03  0.14713422262E+03  0.79498377107E+02 0.  0.
          6    2    1    2  501    0 -0.86976752425E+02 -0.12368359793E+03 -0.31356006880E+03  0.38859693859E+03  0.17269938064E+03 0.  0.
         24    2    5    5    0    0 -0.72799765567E+02 -0.48989995552E+01 -0.12530848528E+03  0.16550163055E+03  0.79779490907E+02 0.  0.
          5    1    5    5  501    0 -0.14176986858E+02 -0.11878459838E+03 -0.18825158353E+03  0.22309530804E+03  0.47000000000E+01 0. -1.
        -15    1    6    6    0    0  0.10146213874E+02 -0.19603142087E+02 -0.39314103863E+02  0.45121894101E+02  0.17770000000E+01 0.  1.
         16    1    6    6    0    0 -0.82945979441E+02  0.14704142532E+02 -0.85994381413E+02  0.12037973645E+03  0.00000000000E+00 0. -1.
         -5    1    3    3    0  503  0.44160645197E+02  0.69782467580E+02 -0.36224644755E+03  0.37157009315E+03  0.47000000000E+01 0.  1.
         15    1    4    4    0    0  0.45083103262E+02  0.64657382389E+02 -0.10903106794E+03  0.13455108622E+03  0.17770000000E+01 0. -1.
        -16    1    4    4    0    0 -0.22669960343E+01 -0.10756252038E+02  0.61236502741E+01  0.12583136397E+02  0.00000000000E+00 0.  1.
<mgrwt>
<rscale>  2 0.22953706E+03</rscale>
<asrwt>0</asrwt>
<pdfrwt beam="1">  1       21 0.98913339E-02 0.22953794E+03</pdfrwt>
<pdfrwt beam="2">  1       21 0.12969346E+00 0.22953794E+03</pdfrwt>
<totfact> 0.35243603E+04</totfact>
</mgrwt>
</event>
<event>
12    2  0.4090627E-002  0.2539094E+03  0.7546771E-02  0.1111049E+00
         21   -1    0    0  503  502  0.00000000000E+00  0.00000000000E+00  0.24155979291E+03  0.24155979291E+03  0.00000000000E+00 0. -1.
         21   -1    0    0  501  503 -0.00000000000E+00 -0.00000000000E+00 -0.12234852927E+04  0.12234852927E+04  0.00000000000E+00 0. -1.
          6    2    1    2  501    0 -0.37826184366E+02  0.18194056531E+03 -0.11393717154E+04  0.11673208263E+04  0.17302258882E+03 0.  0.
         24    2    3    3    0    0 -0.60510584308E+02  0.12295963312E+03 -0.10199416105E+04  0.10321210767E+04  0.78818943284E+02 0.  0.
         -6    2    1    2    0  502  0.37826184366E+02 -0.18194056531E+03  0.15744621560E+03  0.29772425926E+03  0.17122276197E+03 0.  0.
        -24    2    5    5    0    0  0.49298630649E+01 -0.19164476033E+03  0.10175126766E+03  0.23214715516E+03  0.82383029005E+02 0.  0.
          5    1    3    3  501    0  0.22684399942E+02  0.58980932190E+02 -0.11943010481E+03  0.13519974962E+03  0.47000000000E+01 0. -1.
        -15    1    4    4    0    0 -0.18779851274E+02 -0.58201064898E+01 -0.76008543176E+02  0.78530330562E+02  0.17770000000E+01 0.  1.
         16    1    4    4    0    0 -0.41730733034E+02  0.12877973961E+03 -0.94393306737E+03  0.95359074612E+03  0.00000000000E+00 0. -1.
         -5    1    5    5    0  502  0.32896321301E+02  0.97041950118E+01  0.55694947948E+02  0.65577104105E+02  0.47000000000E+01 0.  1.
         15    1    6    6    0    0 -0.14030572007E+02 -0.57324748532E+02  0.72281329277E+02  0.93331302553E+02  0.17770000000E+01 0. -1.
        -16    1    6    6    0    0  0.18960435071E+02 -0.13432001179E+03  0.29469938378E+02  0.13881585260E+03  0.00000000000E+00 0.  1.
<mgrwt>
<rscale>  2 0.25360313E+03</rscale>
<asrwt>0</asrwt>
<pdfrwt beam="1">  1       21 0.37163045E-01 0.25390944E+03</pdfrwt>
<pdfrwt beam="2">  1       21 0.18822851E+00 0.25390944E+03</pdfrwt>
<totfact> 0.10545025E+03</totfact>
</mgrwt>
</event>
<event>
12    2  0.4090627E-002  0.1908080E+03  0.7546771E-02  0.1157962E+00
         21   -1    0    0  501  502  0.00000000000E+00  0.00000000000E+00  0.25199851268E+03  0.25199851268E+03  0.00000000000E+00 0. -1.
         21   -1    0    0  502  503 -0.00000000000E+00 -0.00000000000E+00 -0.15556755471E+03  0.15556755471E+03  0.00000000000E+00 0. -1.
         -6    2    1    2    0  503  0.26118578262E+02  0.71877752898E+02  0.10459545982E+03  0.21759575293E+03  0.17481164145E+03 0.  0.
        -24    2    3    3    0    0 -0.14217354967E+02  0.44821578213E+02  0.13132793648E+03  0.16195638371E+03  0.82290560024E+02 0.  0.
          6    2    1    2  501    0 -0.26118578262E+02 -0.71877752898E+02 -0.81645018513E+01  0.18997031446E+03  0.17370512311E+03 0.  0.
         24    2    5    5    0    0 -0.80511453614E+02 -0.24884331686E+02  0.75018830434E+01  0.11625130645E+03  0.79729316290E+02 0.  0.
          5    1    5    5  501    0  0.54392875352E+02 -0.46993421212E+02 -0.15666384895E+02  0.73719008010E+02  0.47000000000E+01 0. -1.
        -15    1    6    6    0    0 -0.13985842971E+02  0.11042872197E+02  0.32088146031E+02  0.36747185942E+02  0.17770000000E+01 0.  1.
         16    1    6    6    0    0 -0.66525610643E+02 -0.35927203883E+02 -0.24586262988E+02  0.79504120509E+02  0.00000000000E+00 0. -1.
         -5    1    3    3    0  503  0.40335933229E+02  0.27056174685E+02 -0.26732476668E+02  0.55639369217E+02  0.47000000000E+01 0.  1.
         15    1    4    4    0    0 -0.10681194743E+02  0.64198870421E+02  0.62071659809E+02  0.89953496680E+02  0.17770000000E+01 0. -1.
        -16    1    4    4    0    0 -0.35361602237E+01 -0.19377292208E+02  0.69256276674E+02  0.72002887034E+02  0.00000000000E+00 0.  1.
<mgrwt>
<rscale>  2 0.19055421E+03</rscale>
<asrwt>0</asrwt>
<pdfrwt beam="1">  1       21 0.38769002E-01 0.19080802E+03</pdfrwt>
<pdfrwt beam="2">  1       21 0.23933470E-01 0.19080802E+03</pdfrwt>
<totfact> 0.10566002E+05</totfact>
</mgrwt>
</event>
<event>
12    2  0.4090627E-002  0.2426366E+03  0.7546771E-02  0.1118373E+00
         21   -1    0    0  503  502  0.00000000000E+00  0.00000000000E+00  0.71320450447E+02  0.71320450447E+02  0.00000000000E+00 0.  1.
         21   -1    0    0  501  503 -0.00000000000E+00 -0.00000000000E+00 -0.15386188712E+04  0.15386188712E+04  0.00000000000E+00 0. -1.
          6    2    1    2  501    0  0.16685608529E+03 -0.18609538171E+02 -0.12858211649E+04  0.13085138886E+04  0.17517208833E+03 0.  0.
         24    2    3    3    0    0  0.14617021810E+03  0.45744973182E+02 -0.90192815636E+03  0.91868656758E+03  0.83977824375E+02 0.  0.
         -6    2    1    2    0  502 -0.16685608529E+03  0.18609538171E+02 -0.18147725584E+03  0.30142543300E+03  0.17244137892E+03 0.  0.
        -24    2    5    5    0    0 -0.18021324299E+03  0.15785386846E+01 -0.11160774508E+03  0.22812940897E+03  0.84305597331E+02 0.  0.
          5    1    3    3  501    0  0.20685867194E+02 -0.64354511353E+02 -0.38389300854E+03  0.38982732105E+03  0.47000000000E+01 0. -1.
        -15    1    4    4    0    0  0.61458337223E+02  0.57451357870E+02 -0.33833610688E+03  0.34864346356E+03  0.17770000000E+01 0.  1.
         16    1    4    4    0    0  0.84711880873E+02 -0.11706384688E+02 -0.56359204948E+03  0.57004310402E+03  0.00000000000E+00 0. -1.
         -5    1    5    5    0  502  0.13357157698E+02  0.17030999487E+02 -0.69869510760E+02  0.73296024034E+02  0.47000000000E+01 0.  1.
         15    1    6    6    0    0 -0.74668840493E+02  0.49949455000E+01 -0.95447555148E+02  0.12130036576E+03  0.17770000000E+01 0. -1.
        -16    1    6    6    0    0 -0.10554440249E+03 -0.34164068154E+01 -0.16160189930E+02  0.10682904320E+03  0.00000000000E+00 0.  1.
<mgrwt>
<rscale>  2 0.24214411E+03</rscale>
<asrwt>0</asrwt>
<pdfrwt beam="1">  1       21 0.10972377E-01 0.24263662E+03</pdfrwt>
<pdfrwt beam="2">  1       21 0.23671059E+00 0.24263662E+03</pdfrwt>
<totfact> 0.52439008E+03</totfact>
</mgrwt>
</event>
<event>
12    2  0.4090627E-002  0.1733701E+03  0.7546771E-02  0.1178127E+00
         21   -1    0    0  503  502  0.00000000000E+00  0.00000000000E+00  0.18840583317E+04  0.18840583317E+04  0.00000000000E+00 0.  1.
         21   -1    0    0  501  503 -0.00000000000E+00 -0.00000000000E+00 -0.16589289639E+02  0.16589289639E+02  0.00000000000E+00 0.  1.
          6    2    1    2  501    0  0.66577628875E+01  0.10183988555E+02  0.64682992053E+03  0.66966119892E+03  0.17294257955E+03 0.  0.
         24    2    3    3    0    0 -0.41614803603E+02 -0.30739686902E+02  0.24679381622E+03  0.26462297525E+03  0.80258401888E+02 0.  0.
         -6    2    1    2    0  502 -0.66577628875E+01 -0.10183988555E+02  0.12206391215E+04  0.12309864224E+04  0.15880701411E+03 0.  0.
        -24    2    5    5    0    0 -0.54773100783E+01 -0.21714851580E+02  0.34712185589E+03  0.35737961290E+03  0.82006519076E+02 0.  0.
          5    1    3    3  501    0  0.48272566490E+02  0.40923675457E+02  0.40003610431E+03  0.40503822367E+03  0.47000000000E+01 0. -1.
        -15    1    4    4    0    0 -0.55245135208E+02  0.65773733466E+01  0.14984097485E+03  0.15984605806E+03  0.17770000000E+01 0.  1.
         16    1    4    4    0    0  0.13630331605E+02 -0.37317060248E+02  0.96952841370E+02  0.10477691719E+03  0.00000000000E+00 0. -1.
         -5    1    5    5    0  502 -0.11804528092E+01  0.11530863025E+02  0.87351726561E+03  0.87360680949E+03  0.47000000000E+01 0.  1.
         15    1    6    6    0    0 -0.21795527109E+02 -0.25789789870E+02  0.33486569215E+03  0.33656848898E+03  0.17770000000E+01 0. -1.
        -16    1    6    6    0    0  0.16318217031E+02  0.40749382908E+01  0.12256163742E+02  0.20811123920E+02  0.00000000000E+00 0.  1.
<mgrwt>
<rscale>  2 0.16973278E+03</rscale>
<asrwt>0</asrwt>
<pdfrwt beam="1">  1       21 0.28985496E+00 0.17337005E+03</pdfrwt>
<pdfrwt beam="2">  1       21 0.25521999E-02 0.17337005E+03</pdfrwt>
<totfact> 0.32855843E+04</totfact>
</mgrwt>
</event>
<event>
12    2  0.4090627E-002  0.2119328E+03  0.7546771E-02  0.1140290E+00
         21   -1    0    0  501  502  0.00000000000E+00  0.00000000000E+00  0.42239619038E+03  0.42239619038E+03  0.00000000000E+00 0.  1.
         21   -1    0    0  502  503 -0.00000000000E+00 -0.00000000000E+00 -0.11606972705E+03  0.11606972705E+03  0.00000000000E+00 0. -1.
         -6    2    1    2    0  503  0.11983488587E+03  0.24971061877E+02  0.73137167166E+02  0.22419757734E+03  0.17300738326E+03 0.  0.
        -24    2    3    3    0    0  0.14851500865E+03  0.16745031975E+01  0.78724777201E+02  0.18653339707E+03  0.80855463153E+02 0.  0.
          6    2    1    2  501    0 -0.11983488587E+03 -0.24971061877E+02  0.23318929616E+03  0.31426834010E+03  0.17147416115E+03 0.  0.
         24    2    5    5    0    0 -0.80006363844E+02  0.14152549572E+02  0.23180403656E+03  0.25822391947E+03  0.79656564736E+02 0.  0.
          5    1    5    5  501    0 -0.39828522022E+02 -0.39123611449E+02  0.13852596024E+01  0.56044420627E+02  0.47000000000E+01 0. -1.
        -15    1    6    6    0    0 -0.34249544326E+02 -0.31132467549E+02  0.12749721837E+03  0.13565013912E+03  0.17770000000E+01 0.  1.
         16    1    6    6    0    0 -0.45756819518E+02  0.45285017121E+02  0.10430681819E+03  0.12257378035E+03  0.00000000000E+00 0. -1.
         -5    1    3    3    0  503 -0.28680122788E+02  0.23296558679E+02 -0.55876100353E+01  0.37664180269E+02  0.47000000000E+01 0.  1.
         15    1    4    4    0    0  0.42934105682E+02  0.36517934021E+02  0.38578948018E+02  0.68325616683E+02  0.17770000000E+01 0. -1.
        -16    1    4    4    0    0  0.10558090297E+03 -0.34843430824E+02  0.40145829182E+02  0.11820778039E+03  0.00000000000E+00 0.  1.
<mgrwt>
<rscale>  2 0.21161966E+03</rscale>
<asrwt>0</asrwt>
<pdfrwt beam="1">  1       21 0.64984029E-01 0.21193279E+03</pdfrwt>
<pdfrwt beam="2">  1       21 0.17856881E-01 0.21193279E+03</pdfrwt>
<totfact> 0.61582434E+04</totfact>
</mgrwt>
</event>
<event>
12    2  0.4090627E-002  0.2588809E+03  0.7546771E-02  0.1107850E+00
         21   -1    0    0  501  502  0.00000000000E+00  0.00000000000E+00  0.12084063239E+03  0.12084063239E+03  0.00000000000E+00 0. -1.
         21   -1    0    0  502  503 -0.00000000000E+00 -0.00000000000E+00 -0.11117851185E+04  0.11117851185E+04  0.00000000000E+00 0. -1.
         -6    2    1    2    0  503  0.90477040444E+01  0.19215078327E+03 -0.93185212528E+03  0.96708625332E+03  0.17292672875E+03 0.  0.
        -24    2    3    3    0    0 -0.54170073330E+01  0.11805063486E+03 -0.81485953297E+03  0.82776857130E+03  0.85084973947E+02 0.  0.
          6    2    1    2  501    0 -0.90477040444E+01 -0.19215078327E+03 -0.59092360824E+02  0.26553949756E+03  0.17324991543E+03 0.  0.
         24    2    5    5    0    0  0.44041606500E+02 -0.16148761323E+02 -0.33155831595E+02  0.79824715781E+02  0.55427705034E+02 0.  0.
          5    1    5    5  501    0 -0.53089310545E+02 -0.17600202195E+03 -0.25936529229E+02  0.18571478178E+03  0.47000000000E+01 0. -1.
        -15    1    6    6    0    0  0.37730666430E+02 -0.18346807670E+02 -0.47861552712E+02  0.63671771594E+02  0.17770000000E+01 0.  1.
         16    1    6    6    0    0  0.63109400699E+01  0.21980463474E+01  0.14705721117E+02  0.16152944186E+02  0.00000000000E+00 0. -1.
         -5    1    3    3    0  503  0.14464711377E+02  0.74100148413E+02 -0.11699259231E+03  0.13931768202E+03  0.47000000000E+01 0.  1.
         15    1    4    4    0    0 -0.45133116481E+02  0.59150015820E+02 -0.43597720139E+03  0.44228384600E+03  0.17770000000E+01 0. -1.
        -16    1    4    4    0    0  0.39716109148E+02  0.58900619036E+02 -0.37888233158E+03  0.38548472529E+03  0.00000000000E+00 0.  1.
<mgrwt>
<rscale>  2 0.25882683E+03</rscale>
<asrwt>0</asrwt>
<pdfrwt beam="1">  1       21 0.18590867E-01 0.25888089E+03</pdfrwt>
<pdfrwt beam="2">  1       21 0.17104386E+00 0.25888089E+03</pdfrwt>
<totfact> 0.52751502E+03</totfact>
</mgrwt>
</event>
<event>
12    2  0.4090627E-002  0.1757938E+03  0.7546771E-02  0.1171955E+00
         21   -1    0    0  501  502  0.00000000000E+00  0.00000000000E+00  0.15520520327E+03  0.15520520327E+03  0.00000000000E+00 0. -1.
         21   -1    0    0  502  503 -0.00000000000E+00 -0.00000000000E+00 -0.27823471478E+03  0.27823471478E+03  0.00000000000E+00 0. -1.
         -6    2    1    2    0  503 -0.23591243083E+02  0.73396729671E+01 -0.17715203010E+03  0.24957225879E+03  0.17404899609E+03 0.  0.
        -24    2    3    3    0    0  0.10585786029E+02  0.42498295223E+02 -0.34609587469E+02  0.98759010075E+02  0.81469961112E+02 0.  0.
          6    2    1    2  501    0  0.23591243083E+02 -0.73396729671E+01  0.54122518583E+02  0.18386765926E+03  0.17397600856E+03 0.  0.
         24    2    5    5    0    0  0.23282794606E+02  0.16401495582E+02 -0.30952536926E+02  0.95416580720E+02  0.85645588048E+02 0.  0.
          5    1    5    5  501    0  0.30844847644E+00 -0.23741168549E+02  0.85075055510E+02  0.88451078538E+02  0.47000000000E+01 0. -1.
        -15    1    6    6    0    0  0.22012380742E+01  0.47810975241E+02 -0.31952837449E+02  0.57574962897E+02  0.17770000000E+01 0.  1.
         16    1    6    6    0    0  0.21081556532E+02 -0.31409479659E+02  0.10003005227E+01  0.37841617823E+02  0.00000000000E+00 0. -1.
         -5    1    3    3    0  503 -0.34177029111E+02 -0.35158622256E+02 -0.14254244263E+03  0.15081324872E+03  0.47000000000E+01 0.  1.
         15    1    4    4    0    0 -0.24871807734E+02 -0.80669831931E+01 -0.25071076294E+02  0.36268438529E+02  0.17770000000E+01 0. -1.
        -16    1    4    4    0    0  0.35457593763E+02  0.50565278416E+02 -0.95385111756E+01  0.62490571546E+02  0.00000000000E+00 0.  1.
<mgrwt>
<rscale>  2 0.17577576E+03</rscale>
<asrwt>0</asrwt>
<pdfrwt beam="1">  1       21 0.23877724E-01 0.17579383E+03</pdfrwt>
<pdfrwt beam="2">  1       21 0.42805341E-01 0.17579383E+03</pdfrwt>
<totfact> 0.87361422E+04</totfact>
</mgrwt>
</event>
<event>
12    2  0.4090627E-002  0.1874150E+03  0.7546771E-02  0.1160826E+00
         21   -1    0    0  501  502  0.00000000000E+00  0.00000000000E+00  0.75591523243E+02  0.75591523243E+02  0.00000000000E+00 0.  1.
         21   -1    0    0  502  503 -0.00000000000E+00 -0.00000000000E+00 -0.83055247160E+03  0.83055247160E+03  0.00000000000E+00 0. -1.
         -6    2    1    2    0  503 -0.85660032299E+01  0.71299072023E+02 -0.67828361845E+03  0.70369953309E+03  0.17311103873E+03 0.  0.
        -24    2    3    3    0    0 -0.40708680870E+02 -0.11559271527E+02 -0.25566497723E+03  0.27181151204E+03  0.82012828493E+02 0.  0.
          6    2    1    2  501    0  0.85660032299E+01 -0.71299072023E+02 -0.76677329906E+02  0.20244446175E+03  0.17305320884E+03 0.  0.
         24    2    5    5    0    0 -0.46752603658E+02 -0.47613668854E+02  0.26166687005E+01  0.10279118882E+03  0.78142908401E+02 0.  0.
          5    1    5    5  501    0  0.55318606888E+02 -0.23685403168E+02 -0.79293998606E+02  0.99653272933E+02  0.47000000000E+01 0. -1.
        -15    1    6    6    0    0 -0.15443312229E+02 -0.65047684796E+02  0.31124556377E+01  0.66951790857E+02  0.17770000000E+01 0.  1.
         16    1    6    6    0    0 -0.31309291429E+02  0.17434015942E+02 -0.49578693726E+00  0.35839397962E+02  0.00000000000E+00 0. -1.
         -5    1    3    3    0  503  0.32142677640E+02  0.82858343549E+02 -0.42261864122E+03  0.43188802106E+03  0.47000000000E+01 0.  1.
         15    1    4    4    0    0  0.16730182153E+02  0.29190746089E+00 -0.15017139373E+03  0.15111118235E+03  0.17770000000E+01 0. -1.
        -16    1    4    4    0    0 -0.57438863023E+02 -0.11851178988E+02 -0.10549358349E+03  0.12070032969E+03  0.00000000000E+00 0.  1.
<mgrwt>
<rscale>  2 0.18740160E+03</rscale>
<asrwt>0</asrwt>
<pdfrwt beam="1">  1       21 0.11629466E-01 0.18741496E+03</pdfrwt>
<pdfrwt beam="2">  1       21 0.12777729E+00 0.18741496E+03</pdfrwt>
<totfact> 0.28106624E+04</totfact>
</mgrwt>
</event>
<event>
12    2  0.4090627E-002  0.1871681E+03  0.7546771E-02  0.1161090E+00
         21   -1    0    0  501  502  0.00000000000E+00  0.00000000000E+00  0.15846127450E+04  0.15846127450E+04  0.00000000000E+00 0. -1.
         21   -1    0    0  502  503 -0.00000000000E+00 -0.00000000000E+00 -0.54648745482E+02  0.54648745482E+02  0.00000000000E+00 0. -1.
         -6    2    1    2    0  503 -0.71929668459E+02 -0.42381848874E+01  0.13243602019E+03  0.22928409103E+03  0.17274274381E+03 0.  0.
        -24    2    3    3    0    0 -0.89637581014E+02 -0.35826884897E+02  0.14406442549E+03  0.19096013057E+03  0.79954681940E+02 0.  0.
          6    2    1    2  501    0  0.71929668459E+02  0.42381848874E+01  0.13975279793E+04  0.14099773994E+04  0.17251079543E+03 0.  0.
         24    2    5    5    0    0  0.64800829880E+02 -0.13126566628E+02  0.42780937155E+03  0.44006574203E+03  0.79155193231E+02 0.  0.
          5    1    5    5  501    0  0.71288385790E+01  0.17364751516E+02  0.96971860777E+03  0.96991165742E+03  0.47000000000E+01 0. -1.
        -15    1    6    6    0    0  0.29890874423E+01  0.28430557025E+02  0.11601464262E+03  0.11949805960E+03  0.17770000000E+01 0.  1.
         16    1    6    6    0    0  0.61811742438E+02 -0.41557123653E+02  0.31179472892E+03  0.32056768242E+03  0.00000000000E+00 0. -1.
         -5    1    3    3    0  503  0.17707912555E+02  0.31588700010E+02 -0.11628405303E+02  0.38323960459E+02  0.47000000000E+01 0.  1.
         15    1    4    4    0    0 -0.68066457272E+02 -0.30325560012E+01  0.13415508470E+03  0.15047585681E+03  0.17770000000E+01 0. -1.
        -16    1    4    4    0    0 -0.21571123741E+02 -0.32794328896E+02  0.99093407883E+01  0.40484273763E+02  0.00000000000E+00 0.  1.
<mgrwt>
<rscale>  2 0.18711456E+03</rscale>
<asrwt>0</asrwt>
<pdfrwt beam="1">  1       21 0.24378654E+00 0.18716809E+03</pdfrwt>
<pdfrwt beam="2">  1       21 0.84075005E-02 0.18716809E+03</pdfrwt>
<totfact> 0.80044458E+03</totfact>
</mgrwt>
</event>
<event>
12    2  0.4090627E-002  0.1746033E+03  0.7546771E-02  0.1173521E+00
         21   -1    0    0  501  502  0.00000000000E+00  0.00000000000E+00  0.67872477556E+03  0.67872477556E+03  0.00000000000E+00 0. -1.
         21   -1    0    0  502  503 -0.00000000000E+00 -0.00000000000E+00 -0.10798482226E+03  0.10798482226E+03  0.00000000000E+00 0. -1.
         -6    2    1    2    0  503  0.47510379848E+01  0.12484912826E+02 -0.16707366339E+02  0.17386324758E+03  0.17254230600E+03 0.  0.
        -24    2    3    3    0    0 -0.18655822454E+02 -0.35149042770E+02  0.34137548474E+02  0.10021428150E+03  0.85405123280E+02 0.  0.
          6    2    1    2  501    0 -0.47510379848E+01 -0.12484912826E+02  0.58744731963E+03  0.61284635024E+03  0.17409149966E+03 0.  0.
         24    2    5    5    0    0 -0.38492691392E+02 -0.62760734926E+02  0.44438988105E+03  0.45743181362E+03  0.79629771980E+02 0.  0.
          5    1    5    5  501    0  0.33741653407E+02  0.50275822100E+02  0.14305743858E+03  0.15541453663E+03  0.47000000000E+01 0. -1.
        -15    1    6    6    0    0 -0.67018601751E+01  0.18900445867E+02  0.10490076845E+03  0.10681512409E+03  0.17770000000E+01 0.  1.
         16    1    6    6    0    0 -0.31790831217E+02 -0.81661180793E+02  0.33948911260E+03  0.35061668953E+03  0.00000000000E+00 0. -1.
         -5    1    3    3    0  503  0.23406860439E+02  0.47633955596E+02 -0.50844914813E+02  0.73648966074E+02  0.47000000000E+01 0.  1.
         15    1    4    4    0    0 -0.18303425998E+02 -0.49807320367E+02 -0.97151557050E+01  0.53975240108E+02  0.17770000000E+01 0. -1.
        -16    1    4    4    0    0 -0.35239645608E+00  0.14658277597E+02  0.43852704179E+02  0.46239041396E+02  0.00000000000E+00 0.  1.
<mgrwt>
<rscale>  2 0.17421581E+03</rscale>
<asrwt>0</asrwt>
<pdfrwt beam="1">  1       21 0.10441919E+00 0.17460325E+03</pdfrwt>
<pdfrwt beam="2">  1       21 0.16613050E-01 0.17460325E+03</pdfrwt>
<totfact> 0.24361112E+04</totfact>
</mgrwt>
</event>
<event>
12    2  0.4090627E-002  0.2001059E+03  0.7546771E-02  0.1150025E+00
         21   -1    0    0  503  502  0.00000000000E+00  0.00000000000E+00  0.33809936700E+03  0.33809936700E+03  0.00000000000E+00 0. -1.
         21   -1    0    0  501  503 -0.00000000000E+00 -0.00000000000E+00 -0.34297500700E+03  0.34297500700E+03  0.00000000000E+00 0. -1.
          6    2    1    2  501    0 -0.78508571697E+02 -0.65810762615E+02 -0.27861262456E+03  0.34199575781E+03  0.16982771120E+03 0.  0.
         24    2    3    3    0    0 -0.77233211637E+02 -0.33547819194E+02 -0.80378079385E+02  0.14109391869E+03  0.79727241859E+02 0.  0.
         -6    2    1    2    0  502  0.78508571697E+02  0.65810762615E+02  0.27373698455E+03  0.33907861619E+03  0.17189449945E+03 0.  0.
        -24    2    5    5    0    0  0.12000264919E+03  0.42864735062E+02  0.22510382567E+03  0.27099372219E+03  0.80795072959E+02 0.  0.
          5    1    3    3  501    0 -0.12753600596E+01 -0.32262943421E+02 -0.19823454517E+03  0.20090183912E+03  0.47000000000E+01 0. -1.
        -15    1    4    4    0    0 -0.13283315536E+02  0.27043772371E+01  0.15246987149E+02  0.20478976390E+02  0.17770000000E+01 0.  1.
         16    1    4    4    0    0 -0.63949896101E+02 -0.36252196431E+02 -0.95625066534E+02  0.12061494230E+03  0.00000000000E+00 0. -1.
         -5    1    5    5    0  502 -0.41494077495E+02  0.22946027553E+02  0.48633158888E+02  0.68084894001E+02  0.47000000000E+01 0.  1.
         15    1    6    6    0    0  0.10238627329E+03  0.13755994494E+02  0.10977676048E+03  0.15075235060E+03  0.17770000000E+01 0. -1.
        -16    1    6    6    0    0  0.17616375905E+02  0.29108740568E+02  0.11532706519E+03  0.12024137159E+03  0.00000000000E+00 0.  1.
<mgrwt>
<rscale>  2 0.19966127E+03</rscale>
<asrwt>0</asrwt>
<pdfrwt beam="1">  1       21 0.52015287E-01 0.20010590E+03</pdfrwt>
<pdfrwt beam="2">  1       21 0.52765386E-01 0.20010590E+03</pdfrwt>
<totfact> 0.11883646E+04</totfact>
</mgrwt>
</event>
<event>
12    2  0.4090627E-002  0.1959677E+03  0.7546771E-02  0.1153411E+00
         21   -1    0    0  501  502  0.00000000000E+00  0.00000000000E+00  0.42545155470E+03  0.42545155470E+03  0.00000000000E+00 0. -1.
         21   -1    0    0  502  503 -0.00000000000E+00 -0.00000000000E+00 -0.17007812639E+03  0.17007812639E+03  0.00000000000E+00 0. -1.
         -6    2    1    2    0  503  0.13039238920E+02  0.90615130764E+02 -0.77078247727E+02  0.20961848102E+03  0.17209801753E+03 0.  0.
        -24    2    3    3    0    0  0.42529191724E+02  0.28069799761E+02  0.12787754033E+02  0.96130314150E+02  0.80503818779E+02 0.  0.
          6    2    1    2  501    0 -0.13039238920E+02 -0.90615130764E+02  0.33245167603E+03  0.38591120007E+03  0.17326919452E+03 0.  0.
         24    2    5    5    0    0 -0.31905212044E+02 -0.84385755875E+02  0.11292392784E+03  0.16543613962E+03  0.80488536230E+02 0.  0.
          5    1    5    5  501    0  0.18865973124E+02 -0.62293748883E+01  0.21952774819E+03  0.22047506045E+03  0.47000000000E+01 0. -1.
        -15    1    6    6    0    0  0.85701702998E+01  0.82675429110E+01 -0.21750724193E+01  0.12234735542E+02  0.17770000000E+01 0.  1.
         16    1    6    6    0    0 -0.40475382344E+02 -0.92653298786E+02  0.11509900026E+03  0.15320140408E+03  0.00000000000E+00 0. -1.
         -5    1    3    3    0  503 -0.29489952803E+02  0.62545331003E+02 -0.89866001760E+02  0.11348816687E+03  0.47000000000E+01 0.  1.
         15    1    4    4    0    0  0.15139160691E+02  0.19332077531E+02 -0.33540771946E+02  0.41606063498E+02  0.17770000000E+01 0. -1.
        -16    1    4    4    0    0  0.27390031033E+02  0.87377222299E+01  0.46328525979E+02  0.54524250652E+02  0.00000000000E+00 0.  1.
<mgrwt>
<rscale>  2 0.19570849E+03</rscale>
<asrwt>0</asrwt>
<pdfrwt beam="1">  1       21 0.65454085E-01 0.19596769E+03</pdfrwt>
<pdfrwt beam="2">  1       21 0.26165866E-01 0.19596769E+03</pdfrwt>
<totfact> 0.29745503E+04</totfact>
</mgrwt>
</event>
<event>
12    2  0.4090627E-002  0.1858607E+03  0.7546771E-02  0.1162329E+00
         21   -1    0    0  501  502  0.00000000000E+00  0.00000000000E+00  0.93239055795E+02  0.93239055795E+02  0.00000000000E+00 0.  1.
         21   -1    0    0  502  503 -0.00000000000E+00 -0.00000000000E+00 -0.37339512630E+03  0.37339512630E+03  0.00000000000E+00 0. -1.
         -6    2    1    2    0  503  0.52570878923E+02  0.41977521893E+02 -0.16310203736E+03  0.24727816399E+03  0.17325820656E+03 0.  0.
        -24    2    3    3    0    0  0.46314857245E+01 -0.38526021143E+01 -0.69377256867E+01  0.77549062402E+02  0.77002804096E+02 0.  0.
          6    2    1    2  501    0 -0.52570878923E+02 -0.41977521893E+02 -0.11705403314E+03  0.21935601810E+03  0.17288610802E+03 0.  0.
         24    2    5    5    0    0 -0.19678083063E+02  0.39063501208E+02 -0.88562343262E+02  0.12725037312E+03  0.80225835836E+02 0.  0.
          5    1    5    5  501    0 -0.32892795860E+02 -0.81041023101E+02 -0.28491689882E+02  0.92105644979E+02  0.47000000000E+01 0. -1.
        -15    1    6    6    0    0 -0.50322131836E+02  0.27046080378E+02 -0.66177633114E+02  0.87443949305E+02  0.17770000000E+01 0.  1.
         16    1    6    6    0    0  0.30644048774E+02  0.12017420830E+02 -0.22384710147E+02  0.39806423816E+02  0.00000000000E+00 0. -1.
         -5    1    3    3    0  503  0.47939393198E+02  0.45830124007E+02 -0.15616431167E+03  0.16972910159E+03  0.47000000000E+01 0.  1.
         15    1    4    4    0    0 -0.77546734808E+01 -0.18731731729E+02 -0.36746210812E+02  0.42005410037E+02  0.17770000000E+01 0. -1.
        -16    1    4    4    0    0  0.12386159205E+02  0.14879129615E+02  0.29808485125E+02  0.35543652365E+02  0.00000000000E+00 0.  1.
<mgrwt>
<rscale>  2 0.18577398E+03</rscale>
<asrwt>0</asrwt>
<pdfrwt beam="1">  1       21 0.14344470E-01 0.18586074E+03</pdfrwt>
<pdfrwt beam="2">  1       21 0.57445405E-01 0.18586074E+03</pdfrwt>
<totfact> 0.12129765E+05</totfact>
</mgrwt>
</event>
<event>
12    2  0.4090627E-002  0.2104598E+03  0.7546771E-02  0.1141848E+00
         21   -1    0    0  503  502  0.00000000000E+00  0.00000000000E+00  0.83795720457E+03  0.83795720457E+03  0.00000000000E+00 0. -1.
         21   -1    0    0  501  503 -0.00000000000E+00 -0.00000000000E+00 -0.57361624850E+02  0.57361624850E+02  0.00000000000E+00 0. -1.
          6    2    1    2  501    0 -0.30732744660E+02 -0.11033539879E+03  0.25129055111E+03  0.32570743339E+03  0.17268465268E+03 0.  0.
         24    2    3    3    0    0 -0.18095932713E+02  0.12968942381E+02  0.99862309978E+02  0.12996205853E+03  0.80137378652E+02 0.  0.
         -6    2    1    2    0  502  0.30732744660E+02  0.11033539879E+03  0.52930502862E+03  0.56961139603E+03  0.17656423010E+03 0.  0.
        -24    2    5    5    0    0 -0.28642828888E+02  0.11818602571E+03  0.42395238898E+03  0.44833336935E+03  0.80491202203E+02 0.  0.
          5    1    3    3  501    0 -0.12636811947E+02 -0.12330434117E+03  0.15142824113E+03  0.19574537486E+03  0.47000000000E+01 0. -1.
        -15    1    4    4    0    0 -0.47861136192E+02  0.52507839275E+01  0.39830242600E+02  0.62512919017E+02  0.17770000000E+01 0.  1.
         16    1    4    4    0    0  0.29765203479E+02  0.77181584530E+01  0.60032067377E+02  0.67449139517E+02  0.00000000000E+00 0. -1.
         -5    1    5    5    0  502  0.59375573548E+02 -0.78506269211E+01  0.10535263963E+03  0.12127802668E+03  0.47000000000E+01 0.  1.
         15    1    6    6    0    0 -0.52710120179E+02  0.58713641566E+02  0.27615645635E+03  0.28721280366E+03  0.17770000000E+01 0. -1.
        -16    1    6    6    0    0  0.24067291291E+02  0.59472384141E+02  0.14779593264E+03  0.16112056569E+03  0.00000000000E+00 0.  1.
<mgrwt>
<rscale>  2 0.20964407E+03</rscale>
<asrwt>0</asrwt>
<pdfrwt beam="1">  1       21 0.12891648E+00 0.21045980E+03</pdfrwt>
<pdfrwt beam="2">  1       21 0.88248660E-02 0.21045980E+03</pdfrwt>
<totfact> 0.44201029E+04</totfact>
</mgrwt>
</event>
<event>
11    2  0.4090627E-002  0.1859320E+03  0.7546771E-02  0.1162811E+00
         21   -1    0    0  503  502  0.00000000000E+00  0.00000000000E+00  0.73333414152E+03  0.73333414152E+03  0.00000000000E+00 0. -1.
         21   -1    0    0  501  503 -0.00000000000E+00 -0.00000000000E+00 -0.46670877504E+02  0.46670877504E+02  0.00000000000E+00 0. -1.
          6    2    1    2  501    0  0.26904304531E+02 -0.63565826885E+02  0.31974433621E+03  0.36987449453E+03  0.17264485284E+03 0.  0.
         24    2    3    3    0    0  0.32825174425E+02 -0.29642816419E+02  0.64800864519E+02  0.11257293779E+03  0.80729955033E+02 0.  0.
         -6    2    1    2    0  502 -0.26904304531E+02  0.63565826885E+02  0.36691892780E+03  0.41013052449E+03  0.16974419458E+03 0.  0.
          5    1    3    3  501    0 -0.59208698940E+01 -0.33923010466E+02  0.25494347169E+03  0.25730155673E+03  0.47000000000E+01 0. -1.
        -15    1    4    4    0    0 -0.62852621849E+01 -0.27362151312E+02 -0.85617883974E+01  0.29404996084E+02  0.17770000000E+01 0.  1.
         16    1    4    4    0    0  0.39110436610E+02 -0.22806651071E+01  0.73362652917E+02  0.83167941709E+02  0.00000000000E+00 0. -1.
         -5    1    5    5    0  502 -0.70665279778E+02  0.92540634851E+01  0.57386691420E+02  0.91621732188E+02  0.47000000000E+01 0.  1.
         15    1    5    5    0    0  0.33031475744E+02  0.44996528297E+02  0.18716562964E+03  0.19531998514E+03  0.17770000000E+01 0. -1.
        -16    1    5    5    0    0  0.10729499502E+02  0.93152351028E+01  0.12236660674E+03  0.12318880716E+03  0.00000000000E+00 0.  1.
<mgrwt>
<rscale>  2 0.18525575E+03</rscale>
<asrwt>0</asrwt>
<pdfrwt beam="1">  1       21 0.11282063E+00 0.18593198E+03</pdfrwt>
<pdfrwt beam="2">  1       21 0.71801355E-02 0.18593198E+03</pdfrwt>
<totfact> 0.89178402E+04</totfact>
</mgrwt>
</event>
<event>
12    2  0.4090627E-002  0.1775847E+03  0.7546771E-02  0.1171460E+00
         21   -1    0    0  503  502  0.00000000000E+00  0.00000000000E+00  0.16965520914E+03  0.16965520914E+03  0.00000000000E+00 0. -1.
         21   -1    0    0  501  503 -0.00000000000E+00 -0.00000000000E+00 -0.28757624802E+03  0.28757624802E+03  0.00000000000E+00 0. -1.
          6    2    1    2  501    0 -0.78418696718E+01 -0.21469606550E+02 -0.19900502958E+03  0.26671953742E+03  0.17610755497E+03 0.  0.
         24    2    3    3    0    0 -0.21616986888E+02 -0.65176411182E+02 -0.61303361059E+02  0.12151665129E+03  0.79328026372E+02 0.  0.
         -6    2    1    2    0  502  0.78418696718E+01  0.21469606550E+02  0.81083990703E+02  0.19051191973E+03  0.17087345928E+03 0.  0.
        -24    2    5    5    0    0  0.52296610085E+02 -0.10745719686E+02  0.93410543808E+02  0.13404878927E+03  0.79957127844E+02 0.  0.
          5    1    3    3  501    0  0.13775117216E+02  0.43706804633E+02 -0.13770166853E+03  0.14520288613E+03  0.47000000000E+01 0. -1.
        -15    1    4    4    0    0  0.19913380530E+02 -0.39965014234E+00  0.42373332066E+01  0.20440527539E+02  0.17770000000E+01 0.  1.
         16    1    4    4    0    0 -0.41530367417E+02 -0.64776761040E+02 -0.65540694266E+02  0.10107612376E+03  0.00000000000E+00 0. -1.
         -5    1    5    5    0  502 -0.44454740413E+02  0.32215326235E+02 -0.12326553105E+02  0.56463130457E+02  0.47000000000E+01 0.  1.
         15    1    6    6    0    0 -0.15479710135E+01  0.22363935070E+02  0.56595205619E+02  0.60899235087E+02  0.17770000000E+01 0. -1.
        -16    1    6    6    0    0  0.53844581098E+02 -0.33109654755E+02  0.36815338189E+02  0.73149554186E+02  0.00000000000E+00 0.  1.
<mgrwt>
<rscale>  2 0.17627288E+03</rscale>
<asrwt>0</asrwt>
<pdfrwt beam="1">  1       21 0.26100802E-01 0.17758466E+03</pdfrwt>
<pdfrwt beam="2">  1       21 0.44242499E-01 0.17758466E+03</pdfrwt>
<totfact> 0.68880675E+04</totfact>
</mgrwt>
</event>
<event>
12    2  0.4090627E-002  0.2219937E+03  0.7546771E-02  0.1132559E+00
         21   -1    0    0  503  502  0.00000000000E+00  0.00000000000E+00  0.26913103846E+03  0.26913103846E+03  0.00000000000E+00 0. -1.
         21   -1    0    0  501  503 -0.00000000000E+00 -0.00000000000E+00 -0.18539770781E+03  0.18539770781E+03  0.00000000000E+00 0. -1.
          6    2    1    2  501    0  0.13055565569E+03 -0.48395749525E+02  0.13165981719E+02  0.22238382310E+03  0.17289966425E+03 0.  0.
         24    2    3    3    0    0  0.14607422908E+03 -0.28752971899E+02 -0.30577867909E+02  0.17176486209E+03  0.80023421884E+02 0.  0.
         -6    2    1    2    0  502 -0.13055565569E+03  0.48395749525E+02  0.70567348927E+02  0.23214492317E+03  0.17182720045E+03 0.  0.
        -24    2    5    5    0    0 -0.12615598792E+03  0.13063021146E+01  0.96779829897E+02  0.17786824961E+03  0.79710344574E+02 0.  0.
          5    1    3    3  501    0 -0.15518573395E+02 -0.19642777626E+02  0.43743849628E+02  0.50618961006E+02  0.47000000000E+01 0. -1.
        -15    1    4    4    0    0  0.76253024163E+02 -0.10874899600E+02 -0.56100109429E+02  0.95305651155E+02  0.17770000000E+01 0.  1.
         16    1    4    4    0    0  0.69821204918E+02 -0.17878072298E+02  0.25522241519E+02  0.76459210939E+02  0.00000000000E+00 0. -1.
         -5    1    5    5    0  502 -0.43996677701E+01  0.47089447410E+02 -0.26212480971E+02  0.54276673558E+02  0.47000000000E+01 0.  1.
         15    1    6    6    0    0 -0.10099320316E+03 -0.51703487651E+01  0.28905341870E+02  0.10519047537E+03  0.17770000000E+01 0. -1.
        -16    1    6    6    0    0 -0.25162784752E+02  0.64766508797E+01  0.67874488027E+02  0.72677774237E+02  0.00000000000E+00 0.  1.
<mgrwt>
<rscale>  2 0.22178488E+03</rscale>
<asrwt>0</asrwt>
<pdfrwt beam="1">  1       21 0.41404775E-01 0.22199374E+03</pdfrwt>
<pdfrwt beam="2">  1       21 0.28522724E-01 0.22199374E+03</pdfrwt>
<totfact> 0.65178006E+04</totfact>
</mgrwt>
</event>
<event>
12    2  0.4090627E-002  0.1755763E+03  0.7546771E-02  0.1172464E+00
         21   -1    0    0  503  502  0.00000000000E+00  0.00000000000E+00  0.13259762508E+04  0.13259762508E+04  0.00000000000E+00 0. -1.
         21   -1    0    0  501  503 -0.00000000000E+00 -0.00000000000E+00 -0.31163845179E+02  0.31163845179E+02  0.00000000000E+00 0. -1.
          6    2    1    2  501    0  0.18138119752E+02 -0.16986039386E+01  0.30361346483E+03  0.35072522878E+03  0.17462867301E+03 0.  0.
         24    2    3    3    0    0 -0.43469706500E+02  0.42915561705E+02  0.15707249018E+03  0.18555169796E+03  0.77629276868E+02 0.  0.
         -6    2    1    2    0  502 -0.18138119752E+02  0.16986039386E+01  0.99119894080E+03  0.10064148672E+04  0.17338877715E+03 0.  0.
        -24    2    5    5    0    0 -0.58944070052E+02  0.33793079339E+02  0.83616379372E+03  0.84285091102E+03  0.81310470910E+02 0.  0.
          5    1    3    3  501    0  0.61607826252E+02 -0.44614165644E+02  0.14654097465E+03  0.16517353082E+03  0.47000000000E+01 0. -1.
        -15    1    4    4    0    0 -0.25844496225E+02  0.61949626215E+02  0.13761832684E+03  0.15312627399E+03  0.17770000000E+01 0.  1.
         16    1    4    4    0    0 -0.17625210275E+02 -0.19034064510E+02  0.19454163335E+02  0.32425423977E+02  0.00000000000E+00 0. -1.
         -5    1    5    5    0  502  0.40805950300E+02 -0.32094475400E+02  0.15503514709E+03  0.16356395619E+03  0.47000000000E+01 0.  1.
         15    1    6    6    0    0 -0.23770318214E+02 -0.14635578703E+02  0.53866650021E+03  0.53939223610E+03  0.17770000000E+01 0. -1.
        -16    1    6    6    0    0 -0.35173751838E+02  0.48428658042E+02  0.29749729351E+03  0.30345867492E+03  0.00000000000E+00 0.  1.
<mgrwt>
<rscale>  2 0.17526723E+03</rscale>
<asrwt>0</asrwt>
<pdfrwt beam="1">  1       21 0.20399630E+00 0.17557634E+03</pdfrwt>
<pdfrwt beam="2">  1       21 0.47944388E-02 0.17557634E+03</pdfrwt>
<totfact> 0.37012794E+04</totfact>
</mgrwt>
</event>
<event>
12    2  0.4090627E-002  0.1972555E+03  0.7546771E-02  0.1152278E+00
         21   -1    0    0  501  502  0.00000000000E+00  0.00000000000E+00  0.69291694400E+03  0.69291694400E+03  0.00000000000E+00 0.  1.
         21   -1    0    0  502  503 -0.00000000000E+00 -0.00000000000E+00 -0.59436470156E+02  0.59436470156E+02  0.00000000000E+00 0.  1.
         -6    2    1    2    0  503  0.15071900630E+02 -0.93126703589E+02  0.40938616372E+03  0.45443015871E+03  0.17323392562E+03 0.  0.
        -24    2    3    3    0    0 -0.75474118321E+01  0.14012016696E+02  0.15139606640E+03  0.17412439887E+03  0.84529505641E+02 0.  0.
          6    2    1    2  501    0 -0.15071900630E+02  0.93126703589E+02  0.22409431012E+03  0.29792325545E+03  0.17216347231E+03 0.  0.
         24    2    5    5    0    0 -0.53201534020E+02  0.89365702598E+02  0.22372882314E+03  0.25931965909E+03  0.79846523188E+02 0.  0.
          5    1    5    5  501    0  0.38129633390E+02  0.37610009909E+01  0.36548698265E+00  0.38603596356E+02  0.47000000000E+01 0. -1.
        -15    1    6    6    0    0 -0.17462476456E+02  0.52505543098E+02  0.39338461512E+02  0.67914964648E+02  0.17770000000E+01 0.  1.
         16    1    6    6    0    0 -0.35739057564E+02  0.36860159499E+02  0.18439036163E+03  0.19140469444E+03  0.00000000000E+00 0. -1.
         -5    1    3    3    0  503  0.22619312462E+02 -0.10713872028E+03  0.25799009732E+03  0.28030575984E+03  0.47000000000E+01 0.  1.
         15    1    4    4    0    0 -0.93850133536E+01  0.43862405727E+01  0.16044320492E+03  0.16078711801E+03  0.17770000000E+01 0. -1.
        -16    1    4    4    0    0  0.18376015215E+01  0.96257761229E+01 -0.90471385255E+01  0.13337280863E+02  0.00000000000E+00 0.  1.
<mgrwt>
<rscale>  2 0.19702024E+03</rscale>
<asrwt>0</asrwt>
<pdfrwt beam="1">  1       21 0.10660260E+00 0.19725551E+03</pdfrwt>
<pdfrwt beam="2">  1       21 0.91440728E-02 0.19725551E+03</pdfrwt>
<totfact> 0.66775224E+04</totfact>
</mgrwt>
</event>
<event>
12    2  0.4090627E-002  0.2525166E+03  0.7546771E-02  0.1111793E+00
         21   -1    0    0  501  502  0.00000000000E+00  0.00000000000E+00  0.62169916772E+02  0.62169916772E+02  0.00000000000E+00 0. -1.
         21   -1    0    0  502  503 -0.00000000000E+00 -0.00000000000E+00 -0.11021066714E+04  0.11021066714E+04  0.00000000000E+00 0.  1.
         -6    2    1    2    0  503 -0.14698681482E+03  0.11405392754E+03 -0.67549808544E+03  0.72115344076E+03  0.17073722370E+03 0.  0.
        -24    2    3    3    0    0 -0.54730546836E+02  0.12574931813E+03 -0.41676671765E+03  0.44617705663E+03  0.81062600254E+02 0.  0.
          6    2    1    2  501    0  0.14698681482E+03 -0.11405392754E+03 -0.36443866919E+03  0.44312314743E+03  0.17008573738E+03 0.  0.
         24    2    5    5    0    0  0.81129823589E+02 -0.13935712558E+03 -0.27683005329E+03  0.33054093433E+03  0.81363223489E+02 0.  0.
          5    1    5    5  501    0  0.65856991235E+02  0.25303198038E+02 -0.87608615900E+02  0.11258221310E+03  0.47000000000E+01 0. -1.
        -15    1    6    6    0    0  0.86582086878E+02 -0.11663687814E+03 -0.26931419302E+03  0.30599658723E+03  0.17770000000E+01 0.  1.
         16    1    6    6    0    0 -0.54522632886E+01 -0.22720247439E+02 -0.75158602773E+01  0.24544347096E+02  0.00000000000E+00 0. -1.
         -5    1    3    3    0  503 -0.92256267989E+02 -0.11695390589E+02 -0.25873136779E+03  0.27497638412E+03  0.47000000000E+01 0.  1.
         15    1    4    4    0    0 -0.30510255076E+02  0.31948245073E+01 -0.49675637422E+02  0.58411550662E+02  0.17770000000E+01 0. -1.
        -16    1    4    4    0    0 -0.24220291760E+02  0.12255449362E+03 -0.36709108023E+03  0.38776550597E+03  0.00000000000E+00 0.  1.
<mgrwt>
<rscale>  2 0.25240649E+03</rscale>
<asrwt>0</asrwt>
<pdfrwt beam="1">  1       21 0.95646036E-02 0.25251658E+03</pdfrwt>
<pdfrwt beam="2">  1       21 0.16955486E+00 0.25251658E+03</pdfrwt>
<totfact> 0.18151356E+04</totfact>
</mgrwt>
</event>
<event>
12    2  0.4090627E-002  0.1765943E+03  0.7546771E-02  0.1172790E+00
         21   -1    0    0  501  502  0.00000000000E+00  0.00000000000E+00  0.16544932057E+03  0.16544932057E+03  0.00000000000E+00 0.  1.
         21   -1    0    0  502  503 -0.00000000000E+00 -0.00000000000E+00 -0.26086948585E+03  0.26086948585E+03  0.00000000000E+00 0.  1.
         -6    2    1    2    0  503  0.27711407328E+02 -0.17004776657E+02  0.70402058831E+02  0.18407395368E+03  0.16694216366E+03 0.  0.
        -24    2    3    3    0    0  0.57178906695E+02 -0.40234564367E+02  0.92461729509E+02  0.14029409956E+03  0.79025409883E+02 0.  0.
          6    2    1    2  501    0 -0.27711407328E+02  0.17004776657E+02 -0.16582222412E+03  0.24224485274E+03  0.17357555745E+03 0.  0.
         24    2    5    5    0    0 -0.62064495731E+02 -0.34151763159E+02 -0.69210949631E+02  0.12755852135E+03  0.80390772257E+02 0.  0.
          5    1    5    5  501    0  0.34353088403E+02  0.51156539816E+02 -0.96611274487E+02  0.11468633139E+03  0.47000000000E+01 0. -1.
        -15    1    6    6    0    0  0.76740398208E+01 -0.19691624327E+02 -0.49203466615E+02  0.53579751883E+02  0.17770000000E+01 0.  1.
         16    1    6    6    0    0 -0.69738535552E+02 -0.14460138831E+02 -0.20007483015E+02  0.73978769472E+02  0.00000000000E+00 0. -1.
         -5    1    3    3    0  503 -0.29467499367E+02  0.23229787710E+02 -0.22059670677E+02  0.43779854116E+02  0.47000000000E+01 0.  1.
         15    1    4    4    0    0  0.26202883174E+02 -0.61461823468E+02  0.68740284507E+02  0.95877689134E+02  0.17770000000E+01 0. -1.
        -16    1    4    4    0    0  0.30976023521E+02  0.21227259102E+02  0.23721445002E+02  0.44416410426E+02  0.00000000000E+00 0.  1.
<mgrwt>
<rscale>  2 0.17494239E+03</rscale>
<asrwt>0</asrwt>
<pdfrwt beam="1">  1       21 0.25453742E-01 0.17659433E+03</pdfrwt>
<pdfrwt beam="2">  1       21 0.40133767E-01 0.17659433E+03</pdfrwt>
<totfact> 0.88119519E+04</totfact>
</mgrwt>
</event>
<event>
12    2  0.4090627E-002  0.1938157E+03  0.7546771E-02  0.1155900E+00
         21   -1    0    0  501  502  0.00000000000E+00  0.00000000000E+00  0.14079471801E+04  0.14079471801E+04  0.00000000000E+00 0. -1.
         21   -1    0    0  502  503 -0.00000000000E+00 -0.00000000000E+00 -0.38208701734E+02  0.38208701734E+02  0.00000000000E+00 0. -1.
         -6    2    1    2    0  503 -0.26953042054E+02  0.82111800806E+02  0.27432156917E+03  0.33372487838E+03  0.16926652603E+03 0.  0.
        -24    2    3    3    0    0  0.41813860394E+02  0.12916898749E+02  0.14633087762E+03  0.17272634278E+03  0.80662373824E+02 0.  0.
          6    2    1    2  501    0  0.26953042054E+02 -0.82111800806E+02  0.10954169092E+04  0.11124310035E+04  0.17348117527E+03 0.  0.
         24    2    5    5    0    0 -0.15648694398E+02  0.14970992443E+02  0.58068456833E+03  0.58687277696E+03  0.82195353839E+02 0.  0.
          5    1    5    5  501    0  0.42601736452E+02 -0.97082793250E+02  0.51473234091E+03  0.52555822653E+03  0.47000000000E+01 0. -1.
        -15    1    6    6    0    0  0.11037439784E+02  0.10011378511E+02  0.17579201589E+02  0.23113607121E+02  0.17770000000E+01 0.  1.
         16    1    6    6    0    0 -0.26686134182E+02  0.49596139329E+01  0.56310536674E+03  0.56375916984E+03  0.00000000000E+00 0. -1.
         -5    1    3    3    0  503 -0.68766902449E+02  0.69194902057E+02  0.12799069155E+03  0.16099853560E+03  0.47000000000E+01 0.  1.
         15    1    4    4    0    0  0.23297562069E+02  0.39896217583E+02  0.12596994053E+03  0.13418669167E+03  0.17770000000E+01 0. -1.
        -16    1    4    4    0    0  0.18516298326E+02 -0.26979318834E+02  0.20360937091E+02  0.38539651110E+02  0.00000000000E+00 0.  1.
<mgrwt>
<rscale>  2 0.19286800E+03</rscale>
<asrwt>0</asrwt>
<pdfrwt beam="1">  1       21 0.21660722E+00 0.19381572E+03</pdfrwt>
<pdfrwt beam="2">  1       21 0.58782629E-02 0.19381572E+03</pdfrwt>
<totfact> 0.21536720E+04</totfact>
</mgrwt>
</event>
<event>
12    2  0.4090627E-002  0.1936895E+03  0.7546771E-02  0.1155439E+00
         21   -1    0    0  501  502  0.00000000000E+00  0.00000000000E+00  0.35812215836E+03  0.35812215836E+03  0.00000000000E+00 0. -1.
         21   -1    0    0  502  503 -0.00000000000E+00 -0.00000000000E+00 -0.11426335058E+03  0.11426335058E+03  0.00000000000E+00 0. -1.
         -6    2    1    2    0  503  0.10680513894E+02 -0.81570611129E+02  0.19198866759E+03  0.27187078993E+03  0.17402942267E+03 0.  0.
        -24    2    3    3    0    0  0.64130498206E+02 -0.90670068642E+02  0.15094860727E+03  0.20370864867E+03  0.79862064572E+02 0.  0.
          6    2    1    2  501    0 -0.10680513894E+02  0.81570611129E+02  0.51870140187E+02  0.20051471902E+03  0.17535051503E+03 0.  0.
         24    2    5    5    0    0  0.10456529555E+02  0.35719701750E+02 -0.38772620037E+02  0.96652885422E+02  0.80331986733E+02 0.  0.
          5    1    5    5  501    0 -0.21137043449E+02  0.45850909379E+02  0.90642760224E+02  0.10386183359E+03  0.47000000000E+01 0. -1.
        -15    1    6    6    0    0 -0.33048294695E+02  0.17412380688E+02 -0.31699182328E+01  0.37531145654E+02  0.17770000000E+01 0.  1.
         16    1    6    6    0    0  0.43504824250E+02  0.18307321062E+02 -0.35602701804E+02  0.59121739769E+02  0.00000000000E+00 0. -1.
         -5    1    3    3    0  503 -0.53449984312E+02  0.90994575131E+01  0.41040060319E+02  0.68162141259E+02  0.47000000000E+01 0.  1.
         15    1    4    4    0    0 -0.15801956193E+02 -0.26866341642E+02  0.56206896615E+02  0.64295218242E+02  0.17770000000E+01 0. -1.
        -16    1    4    4    0    0  0.79932454399E+02 -0.63803727000E+02  0.94741710656E+02  0.13941343043E+03  0.00000000000E+00 0.  1.
<mgrwt>
<rscale>  2 0.19339006E+03</rscale>
<asrwt>0</asrwt>
<pdfrwt beam="1">  1       21 0.55095716E-01 0.19368955E+03</pdfrwt>
<pdfrwt beam="2">  1       21 0.17578977E-01 0.19368955E+03</pdfrwt>
<totfact> 0.91117146E+04</totfact>
</mgrwt>
</event>
<event>
12    2  0.4090627E-002  0.2285583E+03  0.7546771E-02  0.1127908E+00
         21   -1    0    0  501  502  0.00000000000E+00  0.00000000000E+00  0.67060205938E+03  0.67060205938E+03  0.00000000000E+00 0.  1.
         21   -1    0    0  502  503 -0.00000000000E+00 -0.00000000000E+00 -0.17040132522E+03  0.17040132522E+03  0.00000000000E+00 0.  1.
         -6    2    1    2    0  503 -0.75905313129E+02  0.12643009093E+03 -0.60166004798E+02  0.23634475409E+03  0.17462162007E+03 0.  0.
        -24    2    3    3    0    0 -0.24263691760E+02  0.28259528554E+02 -0.84993840188E+02  0.12257820459E+03  0.80088299257E+02 0.  0.
          6    2    1    2  501    0  0.75905313129E+02 -0.12643009093E+03  0.56036673896E+03  0.60465863051E+03  0.17278597414E+03 0.  0.
         24    2    5    5    0    0  0.18179927754E+02 -0.34850864202E+02  0.18547838590E+03  0.21442492855E+03  0.10015351136E+03 0.  0.
          5    1    5    5  501    0  0.57725385375E+02 -0.91579226728E+02  0.37488835306E+03  0.39023370196E+03  0.47000000000E+01 0. -1.
        -15    1    6    6    0    0 -0.24865419684E+02 -0.23009463915E+02  0.15887182101E+03  0.16245349417E+03  0.17770000000E+01 0.  1.
         16    1    6    6    0    0  0.43045347438E+02 -0.11841400287E+02  0.26606564890E+02  0.51971434385E+02  0.00000000000E+00 0. -1.
         -5    1    3    3    0  503 -0.51641621369E+02  0.98170562376E+02  0.24827835390E+02  0.11376654950E+03  0.47000000000E+01 0.  1.
         15    1    4    4    0    0 -0.32103773053E+01 -0.13602975755E+02  0.95763796131E+01  0.17035617022E+02  0.17770000000E+01 0. -1.
        -16    1    4    4    0    0 -0.21053314454E+02  0.41862504309E+02 -0.94570219801E+02  0.10554258756E+03  0.00000000000E+00 0.  1.
<mgrwt>
<rscale>  2 0.22820765E+03</rscale>
<asrwt>0</asrwt>
<pdfrwt beam="1">  1       21 0.10316955E+00 0.22855830E+03</pdfrwt>
<pdfrwt beam="2">  1       21 0.26215589E-01 0.22855830E+03</pdfrwt>
<totfact> 0.10290009E+04</totfact>
</mgrwt>
</event>
<event>
12    2  0.4090627E-002  0.1858634E+03  0.7546771E-02  0.1162260E+00
         21   -1    0    0  501  502  0.00000000000E+00  0.00000000000E+00  0.20672266836E+02  0.20672266836E+02  0.00000000000E+00 0. -1.
         21   -1    0    0  502  503 -0.00000000000E+00 -0.00000000000E+00 -0.20790278992E+04  0.20790278992E+04  0.00000000000E+00 0. -1.
         -6    2    1    2    0  503  0.67018706784E+02  0.19006085174E+01 -0.14946580697E+04  0.15061699631E+04  0.17334962646E+03 0.  0.
        -24    2    3    3    0    0 -0.59541268409E+01  0.33672391262E+02 -0.41496966833E+03  0.42354185764E+03  0.77579623506E+02 0.  0.
          6    2    1    2  501    0 -0.67018706784E+02 -0.19006085174E+01 -0.56369756267E+03  0.59353020296E+03  0.17328600721E+03 0.  0.
         24    2    5    5    0    0  0.11747594802E+02 -0.44789661008E+02 -0.34629483003E+03  0.35830767163E+03  0.79499424671E+02 0.  0.
          5    1    5    5  501    0 -0.78766301586E+02  0.42889052491E+02 -0.21740273264E+03  0.23522253133E+03  0.47000000000E+01 0. -1.
        -15    1    6    6    0    0 -0.14522571330E+02 -0.44943764472E+02 -0.99907977107E+02  0.11052424468E+03  0.17770000000E+01 0.  1.
         16    1    6    6    0    0  0.26270166132E+02  0.15410346392E+00 -0.24638685292E+03  0.24778342695E+03  0.00000000000E+00 0. -1.
         -5    1    3    3    0  503  0.72972833625E+02 -0.31771782744E+02 -0.10796884014E+04  0.10826281055E+04  0.47000000000E+01 0.  1.
         15    1    4    4    0    0  0.31156484571E+02  0.29515951072E+02 -0.28830415697E+03  0.29148647062E+03  0.17770000000E+01 0. -1.
        -16    1    4    4    0    0 -0.37110611412E+02  0.41564401896E+01 -0.12666551136E+03  0.13205538702E+03  0.00000000000E+00 0.  1.
<mgrwt>
<rscale>  2 0.18584859E+03</rscale>
<asrwt>0</asrwt>
<pdfrwt beam="1">  1       21 0.31803484E-02 0.18586342E+03</pdfrwt>
<pdfrwt beam="2">  1       21 0.31985048E+00 0.18586342E+03</pdfrwt>
<totfact> 0.15176473E+04</totfact>
</mgrwt>
</event>
<event>
12    2  0.4090627E-002  0.2044401E+03  0.7546771E-02  0.1146623E+00
         21   -1    0    0  503  502  0.00000000000E+00  0.00000000000E+00  0.62913887711E+03  0.62913887711E+03  0.00000000000E+00 0. -1.
         21   -1    0    0  501  503 -0.00000000000E+00 -0.00000000000E+00 -0.89016999621E+02  0.89016999621E+02  0.00000000000E+00 0. -1.
          6    2    1    2  501    0  0.56828856158E+02  0.90818246574E+02  0.84249933408E+02  0.21854102829E+03  0.17083517485E+03 0.  0.
         24    2    3    3    0    0  0.21130807345E+02  0.76291326697E+02 -0.14261468266E+02  0.11265444581E+03  0.78871776543E+02 0.  0.
         -6    2    1    2    0  502 -0.56828856158E+02 -0.90818246574E+02  0.45587194408E+03  0.49961484844E+03  0.17412149373E+03 0.  0.
        -24    2    5    5    0    0 -0.93881554177E+02 -0.89577228931E+02  0.28688103300E+03  0.32654127858E+03  0.86548560732E+02 0.  0.
          5    1    3    3  501    0  0.35698048813E+02  0.14526919877E+02  0.98511401674E+02  0.10588658248E+03  0.47000000000E+01 0. -1.
        -15    1    4    4    0    0  0.22278666685E+02  0.35391157976E+01 -0.30623174286E+02  0.38076250633E+02  0.17770000000E+01 0.  1.
         16    1    4    4    0    0 -0.11478593403E+01  0.72752210900E+02  0.16361706020E+02  0.74578195176E+02  0.00000000000E+00 0. -1.
         -5    1    5    5    0  502  0.37052698019E+02 -0.12410176438E+01  0.16899091109E+03  0.17307356986E+03  0.47000000000E+01 0.  1.
         15    1    6    6    0    0 -0.68044707847E+02 -0.74381304230E+02  0.27731851393E+03  0.29507859391E+03  0.17770000000E+01 0. -1.
        -16    1    6    6    0    0 -0.25836846330E+02 -0.15195924700E+02  0.95625190658E+01  0.31462684670E+02  0.00000000000E+00 0.  1.
<mgrwt>
<rscale>  2 0.20373863E+03</rscale>
<asrwt>0</asrwt>
<pdfrwt beam="1">  1       21 0.96790593E-01 0.20444013E+03</pdfrwt>
<pdfrwt beam="2">  1       21 0.13694923E-01 0.20444013E+03</pdfrwt>
<totfact> 0.40769891E+04</totfact>
</mgrwt>
</event>
<event>
12    2  0.4090627E-002  0.1811722E+03  0.7546771E-02  0.1167397E+00
         21   -1    0    0  503  502  0.00000000000E+00  0.00000000000E+00  0.13243459243E+03  0.13243459243E+03  0.00000000000E+00 0. -1.
         21   -1    0    0  501  503 -0.00000000000E+00 -0.00000000000E+00 -0.45219264456E+03  0.45219264456E+03  0.00000000000E+00 0. -1.
          6    2    1    2  501    0  0.19046000905E+02  0.34981721357E+02  0.39285806711E+02  0.18246327224E+03  0.17367498418E+03 0.  0.
         24    2    3    3    0    0  0.38494019624E+02 -0.41354360038E+02  0.28966061389E+02  0.10287677905E+03  0.80948294084E+02 0.  0.
         -6    2    1    2    0  502 -0.19046000905E+02 -0.34981721357E+02 -0.35904385884E+03  0.40216396475E+03  0.17673961352E+03 0.  0.
        -24    2    5    5    0    0 -0.73267302865E+02 -0.29280864109E+02 -0.15916542847E+03  0.19492997553E+03  0.80240856586E+02 0.  0.
          5    1    3    3  501    0 -0.19448018719E+02  0.76336081395E+02  0.10319745322E+02  0.79586493190E+02  0.47000000000E+01 0. -1.
        -15    1    4    4    0    0 -0.21385844807E+02 -0.30407811922E+02  0.16645106439E+02  0.40770169013E+02  0.17770000000E+01 0.  1.
         16    1    4    4    0    0  0.59879864430E+02 -0.10946548116E+02  0.12320954950E+02  0.62106610041E+02  0.00000000000E+00 0. -1.
         -5    1    5    5    0  502  0.54221301960E+02 -0.57008572482E+01 -0.19987843037E+03  0.20723398922E+03  0.47000000000E+01 0.  1.
         15    1    6    6    0    0 -0.52608279532E+02 -0.56655682314E+02 -0.98379223078E+02  0.12513643225E+03  0.17770000000E+01 0. -1.
        -16    1    6    6    0    0 -0.20659023334E+02  0.27374818205E+02 -0.60786205393E+02  0.69793543276E+02  0.00000000000E+00 0.  1.
<mgrwt>
<rscale>  2 0.18042043E+03</rscale>
<asrwt>0</asrwt>
<pdfrwt beam="1">  1       21 0.20374553E-01 0.18117219E+03</pdfrwt>
<pdfrwt beam="2">  1       21 0.69568098E-01 0.18117219E+03</pdfrwt>
<totfact> 0.42121090E+04</totfact>
</mgrwt>
</event>
<event>
12    2  0.4090627E-002  0.1973071E+03  0.7546771E-02  0.1152048E+00
         21   -1    0    0  503  502  0.00000000000E+00  0.00000000000E+00  0.13617563963E+03  0.13617563963E+03  0.00000000000E+00 0.  1.
         21   -1    0    0  501  503 -0.00000000000E+00 -0.00000000000E+00 -0.38513511908E+03  0.38513511908E+03  0.00000000000E+00 0.  1.
          6    2    1    2  501    0 -0.62105250739E+02 -0.72049523243E+02 -0.25686066267E+03  0.32384553382E+03  0.17277249139E+03 0.  0.
         24    2    3    3    0    0 -0.60181949367E+02  0.13150530128E+02 -0.81506505185E+02  0.12882266663E+03  0.78467608460E+02 0.  0.
         -6    2    1    2    0  502  0.62105250739E+02  0.72049523243E+02  0.79011832151E+01  0.19746522489E+03  0.17286379140E+03 0.  0.
        -24    2    5    5    0    0  0.38361344075E+01  0.55740762363E+02  0.63699905428E+02  0.11502219608E+03  0.77786111376E+02 0.  0.
          5    1    3    3  501    0 -0.19233013726E+01 -0.85200053371E+02 -0.17535415748E+03  0.19502286719E+03  0.47000000000E+01 0. -1.
        -15    1    4    4    0    0 -0.31232249341E+01  0.92654794166E+01 -0.69726604644E+02  0.70431248512E+02  0.17770000000E+01 0.  1.
         16    1    4    4    0    0 -0.57058724433E+02  0.38850507114E+01 -0.11779900542E+02  0.58391418117E+02  0.00000000000E+00 0. -1.
         -5    1    5    5    0  502  0.58269116332E+02  0.16308760880E+02 -0.55798722213E+02  0.82443028814E+02  0.47000000000E+01 0.  1.
         15    1    6    6    0    0  0.10054877304E+02  0.24821448132E+02 -0.14639552966E+02  0.30572521732E+02  0.17770000000E+01 0. -1.
        -16    1    6    6    0    0 -0.62187428962E+01  0.30919314230E+02  0.78339458394E+02  0.84449674346E+02  0.00000000000E+00 0.  1.
<mgrwt>
<rscale>  2 0.19728709E+03</rscale>
<asrwt>0</asrwt>
<pdfrwt beam="1">  1       21 0.20950099E-01 0.19730709E+03</pdfrwt>
<pdfrwt beam="2">  1       21 0.59251556E-01 0.19730709E+03</pdfrwt>
<totfact> 0.56208201E+04</totfact>
</mgrwt>
</event>
<event>
12    2  0.4090627E-002  0.1885138E+03  0.7546771E-02  0.1159942E+00
         21   -1    0    0  503  502  0.00000000000E+00  0.00000000000E+00  0.17698115979E+03  0.17698115979E+03  0.00000000000E+00 0. -1.
         21   -1    0    0  501  503 -0.00000000000E+00 -0.00000000000E+00 -0.26931181976E+03  0.26931181976E+03  0.00000000000E+00 0. -1.
          6    2    1    2  501    0  0.30486231497E+02  0.67944697694E+02 -0.15917421567E+03  0.24627923570E+03  0.17254315040E+03 0.  0.
         24    2    3    3    0    0 -0.54168305753E+00  0.28857572441E+02 -0.46384817049E+01  0.83817185015E+02  0.78554134733E+02 0.  0.
         -6    2    1    2    0  502 -0.30486231497E+02 -0.67944697694E+02  0.66843555699E+02  0.20001374384E+03  0.17318067020E+03 0.  0.
        -24    2    5    5    0    0  0.25785798660E+01 -0.10587395550E+03  0.68564295353E+02  0.14944733905E+03  0.80109306733E+02 0.  0.
          5    1    3    3  501    0  0.31027914555E+02  0.39087125253E+02 -0.15453573396E+03  0.16246205069E+03  0.47000000000E+01 0. -1.
        -15    1    4    4    0    0  0.19610963339E+02 -0.21090507997E+02 -0.77192347221E+01  0.29868775072E+02  0.17770000000E+01 0.  1.
         16    1    4    4    0    0 -0.20152646396E+02  0.49948080437E+02  0.30807530173E+01  0.53948409942E+02  0.00000000000E+00 0. -1.
         -5    1    5    5    0  502 -0.33064811363E+02  0.37929257806E+02 -0.17207396540E+01  0.50566404788E+02  0.47000000000E+01 0.  1.
         15    1    6    6    0    0  0.75226594510E+01 -0.53896491266E+02 -0.97597423069E+01  0.55315752502E+02  0.17770000000E+01 0. -1.
        -16    1    6    6    0    0 -0.49440795849E+01 -0.51977464234E+02  0.78324037660E+02  0.94131586550E+02  0.00000000000E+00 0.  1.
<mgrwt>
<rscale>  2 0.18836721E+03</rscale>
<asrwt>0</asrwt>
<pdfrwt beam="1">  1       21 0.27227871E-01 0.18851376E+03</pdfrwt>
<pdfrwt beam="2">  1       21 0.41432588E-01 0.18851376E+03</pdfrwt>
<totfact> 0.72256412E+04</totfact>
</mgrwt>
</event>
<event>
12    2  0.4090627E-002  0.2895428E+03  0.7546771E-02  0.1090724E+00
         21   -1    0    0  503  502  0.00000000000E+00  0.00000000000E+00  0.42364107444E+03  0.42364107444E+03  0.00000000000E+00 0.  1.
         21   -1    0    0  501  503 -0.00000000000E+00 -0.00000000000E+00 -0.30843695965E+03  0.30843695965E+03  0.00000000000E+00 0.  1.
          6    2    1    2  501    0  0.22258993946E+03  0.61352168305E+02 -0.16216872656E+03  0.33186402601E+03  0.17471309676E+03 0.  0.
         24    2    3    3    0    0  0.33912769242E+02  0.18731781883E+02 -0.23737651262E+02  0.93954748111E+02  0.82237844299E+02 0.  0.
         -6    2    1    2    0  502 -0.22258993946E+03 -0.61352168305E+02  0.27737284135E+03  0.40021400809E+03  0.17298898650E+03 0.  0.
        -24    2    5    5    0    0 -0.15869483137E+03 -0.72856194004E+02  0.10634231536E+03  0.21721548825E+03  0.73360791914E+02 0.  0.
          5    1    3    3  501    0  0.18867717022E+03  0.42620386422E+02 -0.13843107530E+03  0.23790927790E+03  0.47000000000E+01 0. -1.
        -15    1    4    4    0    0  0.22843982154E+01  0.42048362387E+02 -0.33063817219E+02  0.53569179504E+02  0.17770000000E+01 0.  1.
         16    1    4    4    0    0  0.31628371027E+02 -0.23316580505E+02  0.93261659576E+01  0.40385568607E+02  0.00000000000E+00 0. -1.
         -5    1    5    5    0  502 -0.63895108094E+02  0.11504025699E+02  0.17103052599E+03  0.18299851984E+03  0.47000000000E+01 0.  1.
         15    1    6    6    0    0 -0.87374897134E+02 -0.54946209931E+01  0.28839858033E+02  0.92192508641E+02  0.17770000000E+01 0. -1.
        -16    1    6    6    0    0 -0.71319934231E+02 -0.67361573011E+02  0.77502457329E+02  0.12502297960E+03  0.00000000000E+00 0.  1.
<mgrwt>
<rscale>  2 0.28928319E+03</rscale>
<asrwt>0</asrwt>
<pdfrwt beam="1">  1       21 0.65175550E-01 0.28954280E+03</pdfrwt>
<pdfrwt beam="2">  1       21 0.47451840E-01 0.28954280E+03</pdfrwt>
<totfact> 0.86932852E+03</totfact>
</mgrwt>
</event>
<event>
12    2  0.4090627E-002  0.2085342E+03  0.7546771E-02  0.1142806E+00
         21   -1    0    0  503  502  0.00000000000E+00  0.00000000000E+00  0.52373577000E+03  0.52373577000E+03  0.00000000000E+00 0. -1.
         21   -1    0    0  501  503 -0.00000000000E+00 -0.00000000000E+00 -0.83228461564E+02  0.83228461564E+02  0.00000000000E+00 0. -1.
          6    2    1    2  501    0 -0.22805953519E+02  0.11387668873E+03  0.20090553700E+03  0.28956787109E+03  0.17320076621E+03 0.  0.
         24    2    3    3    0    0  0.14391848637E+02  0.51288527734E+01  0.12956941583E+03  0.15421388890E+03  0.82220797679E+02 0.  0.
         -6    2    1    2    0  502  0.22805953519E+02 -0.11387668873E+03  0.23960177143E+03  0.31739636048E+03  0.17275250799E+03 0.  0.
        -24    2    5    5    0    0 -0.45879592213E+02 -0.34207014423E+02  0.14332972095E+03  0.17472415260E+03  0.81914978944E+02 0.  0.
          5    1    3    3  501    0 -0.37197802155E+02  0.10874783596E+03  0.71336121168E+02  0.13535398219E+03  0.47000000000E+01 0. -1.
        -15    1    4    4    0    0 -0.13924817474E+02  0.27130184725E+02  0.10829042386E+03  0.11251631478E+03  0.17770000000E+01 0.  1.
         16    1    4    4    0    0  0.28316666110E+02 -0.22001331951E+02  0.21278991980E+02  0.41697574113E+02  0.00000000000E+00 0. -1.
         -5    1    5    5    0  502  0.68685545732E+02 -0.79669674312E+02  0.96272050479E+02  0.14267220788E+03  0.47000000000E+01 0.  1.
         15    1    6    6    0    0  0.15249312814E+02 -0.18089060403E+02  0.74662439571E+01  0.24872840115E+02  0.17770000000E+01 0. -1.
        -16    1    6    6    0    0 -0.61128905027E+02 -0.16117954021E+02  0.13586347700E+03  0.14985131248E+03  0.00000000000E+00 0.  1.
<mgrwt>
<rscale>  2 0.20844111E+03</rscale>
<asrwt>0</asrwt>
<pdfrwt beam="1">  1       21 0.80574732E-01 0.20853421E+03</pdfrwt>
<pdfrwt beam="2">  1       21 0.12804379E-01 0.20853421E+03</pdfrwt>
<totfact> 0.70178844E+04</totfact>
</mgrwt>
</event>
<event>
12    2  0.4090627E-002  0.1983968E+03  0.7546771E-02  0.1151866E+00
         21   -1    0    0  501  502  0.00000000000E+00  0.00000000000E+00  0.80061237886E+03  0.80061237886E+03  0.00000000000E+00 0. -1.
         21   -1    0    0  502  503 -0.00000000000E+00 -0.00000000000E+00 -0.48493569626E+02  0.48493569626E+02  0.00000000000E+00 0. -1.
         -6    2    1    2    0  503  0.69479324961E+02  0.61010022978E+02  0.40053757651E+03  0.44540973231E+03  0.17149309007E+03 0.  0.
        -24    2    3    3    0    0 -0.15388071629E+01  0.71968589508E+02  0.31607854935E+03  0.33441836986E+03  0.82147129799E+02 0.  0.
          6    2    1    2  501    0 -0.69479324961E+02 -0.61010022978E+02  0.35158123272E+03  0.40369621617E+03  0.17553253900E+03 0.  0.
         24    2    5    5    0    0 -0.68252019792E+02 -0.53227469200E+02  0.10796149444E+03  0.15990380180E+03  0.80137630782E+02 0.  0.
          5    1    5    5  501    0 -0.12273051693E+01 -0.77825537776E+01  0.24361973829E+03  0.24379241437E+03  0.47000000000E+01 0. -1.
        -15    1    6    6    0    0 -0.66324398195E+02 -0.28266872566E+02  0.11330040949E+03  0.13430592839E+03  0.17770000000E+01 0.  1.
         16    1    6    6    0    0 -0.19276215966E+01 -0.24960596634E+02 -0.53389150556E+01  0.25597873414E+02  0.00000000000E+00 0. -1.
         -5    1    3    3    0  503  0.71018132124E+02 -0.10958566530E+02  0.84459027154E+02  0.11099136245E+03  0.47000000000E+01 0.  1.
         15    1    4    4    0    0  0.14341787410E+02  0.25285710932E+02  0.25142825837E+03  0.25310942472E+03  0.17770000000E+01 0. -1.
        -16    1    4    4    0    0 -0.15880594573E+02  0.46682878576E+02  0.64650290983E+02  0.81308945143E+02  0.00000000000E+00 0.  1.
<mgrwt>
<rscale>  2 0.19749948E+03</rscale>
<asrwt>0</asrwt>
<pdfrwt beam="1">  1       21 0.12317113E+00 0.19839675E+03</pdfrwt>
<pdfrwt beam="2">  1       21 0.74605498E-02 0.19839675E+03</pdfrwt>
<totfact> 0.66856396E+04</totfact>
</mgrwt>
</event>
<event>
12    2  0.4090627E-002  0.1755981E+03  0.7546771E-02  0.1172228E+00
         21   -1    0    0  503  502  0.00000000000E+00  0.00000000000E+00  0.10906211402E+03  0.10906211402E+03  0.00000000000E+00 0. -1.
         21   -1    0    0  501  503 -0.00000000000E+00 -0.00000000000E+00 -0.29700975059E+03  0.29700975059E+03  0.00000000000E+00 0. -1.
          6    2    1    2  501    0 -0.24653878699E+02  0.10383472671E+02 -0.13935162488E+03  0.22387340373E+03  0.17316118301E+03 0.  0.
         24    2    3    3    0    0 -0.39570095058E+02  0.69790505439E+02 -0.82359205836E+02  0.14007653696E+03  0.80011813803E+02 0.  0.
         -6    2    1    2    0  502  0.24653878699E+02 -0.10383472671E+02 -0.48596011699E+02  0.18219846088E+03  0.17354848473E+03 0.  0.
        -24    2    5    5    0    0  0.71846134932E+02 -0.17811251735E+02 -0.65019243738E+02  0.13146293584E+03  0.87039609665E+02 0.  0.
          5    1    3    3  501    0  0.14916216359E+02 -0.59407032767E+02 -0.56992419039E+02  0.83796866771E+02  0.47000000000E+01 0. -1.
        -15    1    4    4    0    0 -0.42580581107E+02  0.13109388381E+02 -0.60875942643E+01  0.45001983113E+02  0.17770000000E+01 0.  1.
         16    1    4    4    0    0  0.30104860494E+01  0.56681117057E+02 -0.76271611572E+02  0.95074553845E+02  0.00000000000E+00 0. -1.
         -5    1    5    5    0  502 -0.47192256233E+02  0.74277790637E+01  0.16423232039E+02  0.50735525037E+02  0.47000000000E+01 0.  1.
         15    1    6    6    0    0 -0.13104071006E+02 -0.25735234580E+02 -0.17028654548E+02  0.33573081189E+02  0.17770000000E+01 0. -1.
        -16    1    6    6    0    0  0.84950205937E+02  0.79239828452E+01 -0.47990589190E+02  0.97889854652E+02  0.00000000000E+00 0.  1.
<mgrwt>
<rscale>  2 0.17550237E+03</rscale>
<asrwt>0</asrwt>
<pdfrwt beam="1">  1       21 0.16778787E-01 0.17559814E+03</pdfrwt>
<pdfrwt beam="2">  1       21 0.45693808E-01 0.17559814E+03</pdfrwt>
<totfact> 0.14757131E+05</totfact>
</mgrwt>
</event>
<event>
12    2  0.4090627E-002  0.1767890E+03  0.7546771E-02  0.1171259E+00
         21   -1    0    0  503  502  0.00000000000E+00  0.00000000000E+00  0.57869178120E+03  0.57869178120E+03  0.00000000000E+00 0. -1.
         21   -1    0    0  501  503 -0.00000000000E+00 -0.00000000000E+00 -0.55165792258E+02  0.55165792258E+02  0.00000000000E+00 0. -1.
          6    2    1    2  501    0 -0.30776082748E+02 -0.26130466109E+01  0.20792180231E+03  0.27211131892E+03  0.17279785511E+03 0.  0.
         24    2    3    3    0    0 -0.85064011665E+01 -0.48675035057E+02  0.53127499878E+02  0.10901315351E+03  0.81361652489E+02 0.  0.
         -6    2    1    2    0  502  0.30776082748E+02  0.26130466109E+01  0.31560418663E+03  0.36174625453E+03  0.17406997089E+03 0.  0.
        -24    2    5    5    0    0  0.81462391324E+02 -0.27501686780E+02  0.22561257099E+03  0.25405883684E+03  0.79072096278E+02 0.  0.
          5    1    3    3  501    0 -0.22269681582E+02  0.46061988447E+02  0.15479430243E+03  0.16309816542E+03  0.47000000000E+01 0. -1.
        -15    1    4    4    0    0 -0.26588995667E+02  0.98887125932E+01  0.82048171656E+00  0.28435756480E+02  0.17770000000E+01 0.  1.
         16    1    4    4    0    0  0.18082594501E+02 -0.58563747651E+02  0.52307018162E+02  0.80577397028E+02  0.00000000000E+00 0. -1.
         -5    1    5    5    0  502 -0.50686308575E+02  0.30114733391E+02  0.89991615636E+02  0.10768741769E+03  0.47000000000E+01 0.  1.
         15    1    6    6    0    0 -0.12288476164E+02 -0.11082303501E+02  0.13011741699E+02  0.21125511789E+02  0.17770000000E+01 0. -1.
        -16    1    6    6    0    0  0.93750867488E+02 -0.16419383279E+02  0.21260082930E+03  0.23293332505E+03  0.00000000000E+00 0.  1.
<mgrwt>
<rscale>  2 0.17647506E+03</rscale>
<asrwt>0</asrwt>
<pdfrwt beam="1">  1       21 0.89029501E-01 0.17678900E+03</pdfrwt>
<pdfrwt beam="2">  1       21 0.84870454E-02 0.17678900E+03</pdfrwt>
<totfact> 0.11732362E+05</totfact>
</mgrwt>
</event>
<event>
12    2  0.4090627E-002  0.1782399E+03  0.7546771E-02  0.1169677E+00
         21   -1    0    0  501  502  0.00000000000E+00  0.00000000000E+00  0.14710620797E+04  0.14710620797E+04  0.00000000000E+00 0.  1.
         21   -1    0    0  502  503 -0.00000000000E+00 -0.00000000000E+00 -0.37978944839E+02  0.37978944839E+02  0.00000000000E+00 0. -1.
         -6    2    1    2    0  503  0.34443042154E+02 -0.16297242722E+02  0.22054101859E+03  0.28356267243E+03  0.17411928395E+03 0.  0.
        -24    2    3    3    0    0 -0.12907586295E+02 -0.61163069758E+02  0.14999049381E+03  0.18736240738E+03  0.93273772190E+02 0.  0.
          6    2    1    2  501    0 -0.34443042154E+02  0.16297242722E+02  0.12125421163E+04  0.12254783522E+04  0.17345571331E+03 0.  0.
         24    2    5    5    0    0 -0.52030416009E+02  0.48172605492E+02  0.47183391027E+03  0.48386113891E+03  0.80415164973E+02 0.  0.
          5    1    5    5  501    0  0.17587373855E+02 -0.31875362770E+02  0.74070820605E+03  0.74161721324E+03  0.47000000000E+01 0. -1.
        -15    1    6    6    0    0 -0.69562829409E+02  0.17865869185E+02  0.33520938951E+03  0.34282162864E+03  0.17770000000E+01 0.  1.
         16    1    6    6    0    0  0.17532413400E+02  0.30306736307E+02  0.13662452076E+03  0.14103951027E+03  0.00000000000E+00 0. -1.
         -5    1    3    3    0  503  0.47350628449E+02  0.44865827036E+02  0.70550524780E+02  0.96200265056E+02  0.47000000000E+01 0.  1.
         15    1    4    4    0    0 -0.30678964182E+02 -0.81908212467E+01  0.52783190370E+01  0.32238281233E+02  0.17770000000E+01 0. -1.
        -16    1    4    4    0    0  0.17771377887E+02 -0.52972248511E+02  0.14471217477E+03  0.15512412614E+03  0.00000000000E+00 0.  1.
<mgrwt>
<rscale>  2 0.17807760E+03</rscale>
<asrwt>0</asrwt>
<pdfrwt beam="1">  1       21 0.22631720E+00 0.17823986E+03</pdfrwt>
<pdfrwt beam="2">  1       21 0.58429157E-02 0.17823986E+03</pdfrwt>
<totfact> 0.19226200E+04</totfact>
</mgrwt>
</event>
<event>
12    2  0.4090627E-002  0.2038534E+03  0.7546771E-02  0.1146671E+00
         21   -1    0    0  503  502  0.00000000000E+00  0.00000000000E+00  0.36122924082E+03  0.36122924082E+03  0.00000000000E+00 0. -1.
         21   -1    0    0  501  503 -0.00000000000E+00 -0.00000000000E+00 -0.15975342957E+03  0.15975342957E+03  0.00000000000E+00 0. -1.
          6    2    1    2  501    0 -0.59045106528E+02  0.88239046438E+02 -0.37549996925E+02  0.20728289619E+03  0.17402224818E+03 0.  0.
         24    2    3    3    0    0  0.26867700035E+02  0.60765901232E+01 -0.19065510779E+02  0.86885862224E+02  0.80167706095E+02 0.  0.
         -6    2    1    2    0  502  0.59045106528E+02 -0.88239046438E+02  0.23902580818E+03  0.31369977420E+03  0.17321015396E+03 0.  0.
        -24    2    5    5    0    0  0.32637325419E+02 -0.12855834955E+03  0.18223361302E+03  0.23906425626E+03  0.79688045881E+02 0.  0.
          5    1    3    3  501    0 -0.85912806562E+02  0.82162456314E+02 -0.18484486147E+02  0.12039703396E+03  0.47000000000E+01 0. -1.
        -15    1    4    4    0    0  0.38771837788E+02  0.29668313481E+02  0.74888431740E+01  0.49423726401E+02  0.17770000000E+01 0.  1.
         16    1    4    4    0    0 -0.11904137753E+02 -0.23591723358E+02 -0.26554353952E+02  0.37462135824E+02  0.00000000000E+00 0. -1.
         -5    1    5    5    0  502  0.26407781109E+02  0.40319303115E+02  0.56792195159E+02  0.74635517937E+02  0.47000000000E+01 0.  1.
         15    1    6    6    0    0  0.43025050274E+02 -0.30964168766E+02  0.89516400387E+02  0.10404940349E+03  0.17770000000E+01 0. -1.
        -16    1    6    6    0    0 -0.10387724856E+02 -0.97594180786E+02  0.92717212632E+02  0.13501485277E+03  0.00000000000E+00 0.  1.
<mgrwt>
<rscale>  2 0.20367995E+03</rscale>
<asrwt>0</asrwt>
<pdfrwt beam="1">  1       21 0.55573729E-01 0.20385337E+03</pdfrwt>
<pdfrwt beam="2">  1       21 0.24577451E-01 0.20385337E+03</pdfrwt>
<totfact> 0.47481706E+04</totfact>
</mgrwt>
</event>
<event>
12    2  0.4090627E-002  0.2094151E+03  0.7546771E-02  0.1143238E+00
         21   -1    0    0  503  502  0.00000000000E+00  0.00000000000E+00  0.60157661160E+03  0.60157661160E+03  0.00000000000E+00 0.  1.
         21   -1    0    0  501  503 -0.00000000000E+00 -0.00000000000E+00 -0.76931757113E+02  0.76931757113E+02  0.00000000000E+00 0.  1.
          6    2    1    2  501    0 -0.73164798125E+02 -0.82776077881E+02  0.17029728319E+03  0.26991819221E+03  0.17790362297E+03 0.  0.
         24    2    3    3    0    0 -0.53581943486E+02 -0.94012822715E+02  0.19432240696E+03  0.23661580187E+03  0.80724248782E+02 0.  0.
         -6    2    1    2    0  502  0.73164798125E+02  0.82776077881E+02  0.35434757129E+03  0.40859017650E+03  0.17081792734E+03 0.  0.
        -24    2    5    5    0    0  0.22134704860E+01  0.11314672959E+02  0.25188349534E+03  0.26484804577E+03  0.81032529568E+02 0.  0.
          5    1    3    3  501    0 -0.19582854640E+02  0.11236744834E+02 -0.24025123771E+02  0.33302390342E+02  0.47000000000E+01 0. -1.
        -15    1    4    4    0    0 -0.21154313249E+02 -0.89234366639E+02  0.95130887443E+02  0.13214885786E+03  0.17770000000E+01 0.  1.
         16    1    4    4    0    0 -0.32427630237E+02 -0.47784560757E+01  0.99191519522E+02  0.10446694401E+03  0.00000000000E+00 0. -1.
         -5    1    5    5    0  502  0.70951327639E+02  0.71461404922E+02  0.10246407595E+03  0.14374213073E+03  0.47000000000E+01 0.  1.
         15    1    6    6    0    0 -0.49198432170E+01  0.45952483314E+02  0.15257292246E+03  0.15942863600E+03  0.17770000000E+01 0. -1.
        -16    1    6    6    0    0  0.71333137030E+01 -0.34637810355E+02  0.99310572873E+02  0.10541940976E+03  0.00000000000E+00 0.  1.
<mgrwt>
<rscale>  2 0.20790246E+03</rscale>
<asrwt>0</asrwt>
<pdfrwt beam="1">  1       21 0.92550245E-01 0.20941506E+03</pdfrwt>
<pdfrwt beam="2">  1       21 0.11835655E-01 0.20941506E+03</pdfrwt>
<totfact> 0.58741917E+04</totfact>
</mgrwt>
</event>
<event>
12    2  0.4090627E-002  0.2014976E+03  0.7546771E-02  0.1148577E+00
         21   -1    0    0  501  502  0.00000000000E+00  0.00000000000E+00  0.11038298506E+03  0.11038298506E+03  0.00000000000E+00 0. -1.
         21   -1    0    0  502  503 -0.00000000000E+00 -0.00000000000E+00 -0.48908447715E+03  0.48908447715E+03  0.00000000000E+00 0. -1.
         -6    2    1    2    0  503  0.10179269588E+03 -0.11302647031E+02 -0.33894714396E+03  0.39408567302E+03  0.17299956218E+03 0.  0.
        -24    2    3    3    0    0  0.10443258421E+03  0.34663132144E+02 -0.17133423295E+03  0.22020065410E+03  0.83816533643E+02 0.  0.
          6    2    1    2  501    0 -0.10179269588E+03  0.11302647031E+02 -0.39754348127E+02  0.20538178919E+03  0.17352742830E+03 0.  0.
         24    2    5    5    0    0 -0.74857463807E+02 -0.34171073908E+02 -0.78482151603E+02  0.13969085538E+03  0.81134362489E+02 0.  0.
          5    1    5    5  501    0 -0.26935232076E+02  0.45473720938E+02  0.38727803476E+02  0.65690933811E+02  0.47000000000E+01 0. -1.
        -15    1    6    6    0    0 -0.26868407154E+02 -0.19305964185E+02 -0.82882646741E+02  0.89259858928E+02  0.17770000000E+01 0.  1.
         16    1    6    6    0    0 -0.47989056653E+02 -0.14865109723E+02  0.44004951379E+01  0.50430996450E+02  0.00000000000E+00 0. -1.
         -5    1    3    3    0  503 -0.26398883308E+01 -0.45965779175E+02 -0.16761291102E+03  0.17388501892E+03  0.47000000000E+01 0.  1.
         15    1    4    4    0    0  0.10210274060E+03  0.82783110940E+00 -0.14454909550E+03  0.17698376671E+03  0.17770000000E+01 0. -1.
        -16    1    4    4    0    0  0.23298436155E+01  0.33835301034E+02 -0.26785137450E+02  0.43216887389E+02  0.00000000000E+00 0.  1.
<mgrwt>
<rscale>  2 0.20138387E+03</rscale>
<asrwt>0</asrwt>
<pdfrwt beam="1">  1       21 0.16981998E-01 0.20149757E+03</pdfrwt>
<pdfrwt beam="2">  1       21 0.75243766E-01 0.20149757E+03</pdfrwt>
<totfact> 0.49121020E+04</totfact>
</mgrwt>
</event>
<event>
12    2  0.4090627E-002  0.1791924E+03  0.7546771E-02  0.1168881E+00
         21   -1    0    0  501  502  0.00000000000E+00  0.00000000000E+00  0.17989970852E+03  0.17989970852E+03  0.00000000000E+00 0. -1.
         21   -1    0    0  502  503 -0.00000000000E+00 -0.00000000000E+00 -0.19375890051E+03  0.19375890051E+03  0.00000000000E+00 0. -1.
         -6    2    1    2    0  503 -0.24454968408E+02 -0.33061318167E+02 -0.61417296128E+02  0.18942541863E+03  0.17440988711E+03 0.  0.
        -24    2    3    3    0    0 -0.41692252225E+02 -0.82994046334E+02 -0.54520924547E+02  0.13594597177E+03  0.82960957106E+02 0.  0.
          6    2    1    2  501    0  0.24454968408E+02  0.33061318167E+02  0.47558104141E+02  0.18423319040E+03  0.17317332051E+03 0.  0.
         24    2    5    5    0    0 -0.11189600015E+02 -0.38719353998E+02 -0.84298160989E+00  0.90490162627E+02  0.81014587524E+02 0.  0.
          5    1    5    5  501    0  0.35644568423E+02  0.71780672165E+02  0.48401085751E+02  0.93743027775E+02  0.47000000000E+01 0. -1.
        -15    1    6    6    0    0 -0.44258744799E+02 -0.36218672683E+02  0.15738542800E+01  0.57238653796E+02  0.17770000000E+01 0.  1.
         16    1    6    6    0    0  0.33069144784E+02 -0.25006813150E+01 -0.24168358899E+01  0.33251508830E+02  0.00000000000E+00 0. -1.
         -5    1    3    3    0  503  0.17237283817E+02  0.49932728167E+02 -0.68963715811E+01  0.53479446861E+02  0.47000000000E+01 0.  1.
         15    1    4    4    0    0 -0.41902102472E+02 -0.42279337303E+02 -0.70430200525E+02  0.92232854392E+02  0.17770000000E+01 0. -1.
        -16    1    4    4    0    0  0.20985024685E+00 -0.40714709030E+02  0.15909275978E+02  0.43713117376E+02  0.00000000000E+00 0.  1.
<mgrwt>
<rscale>  2 0.17889077E+03</rscale>
<asrwt>0</asrwt>
<pdfrwt beam="1">  1       21 0.27676878E-01 0.17919237E+03</pdfrwt>
<pdfrwt beam="2">  1       21 0.29809062E-01 0.17919237E+03</pdfrwt>
<totfact> 0.13504494E+05</totfact>
</mgrwt>
</event>
<event>
12    2  0.4090627E-002  0.2360933E+03  0.7546771E-02  0.1122490E+00
         21   -1    0    0  503  502  0.00000000000E+00  0.00000000000E+00  0.17538961058E+03  0.17538961058E+03  0.00000000000E+00 0.  1.
         21   -1    0    0  501  503 -0.00000000000E+00 -0.00000000000E+00 -0.36551102293E+03  0.36551102293E+03  0.00000000000E+00 0.  1.
          6    2    1    2  501    0  0.15414367949E+03  0.43597510399E+02 -0.19323961004E+03  0.30478671987E+03  0.17289413201E+03 0.  0.
         24    2    3    3    0    0  0.13501804946E+03 -0.29024133071E+02 -0.14591918425E+03  0.21589911938E+03  0.79042693764E+02 0.  0.
         -6    2    1    2    0  502 -0.15414367949E+03 -0.43597510399E+02  0.31181976910E+01  0.23611391364E+03  0.17343310012E+03 0.  0.
        -24    2    5    5    0    0 -0.94000968306E+02 -0.29307989844E+02  0.68799546417E+02  0.14579522411E+03  0.82630076100E+02 0.  0.
          5    1    3    3  501    0  0.19125630034E+02  0.72621643470E+02 -0.47320425786E+02  0.88887600491E+02  0.47000000000E+01 0. -1.
        -15    1    4    4    0    0 -0.21654076675E+01  0.14685143953E+02 -0.10750033732E+02  0.18413674199E+02  0.17770000000E+01 0.  1.
         16    1    4    4    0    0  0.13718345712E+03 -0.43709277025E+02 -0.13516915052E+03  0.19748544518E+03  0.00000000000E+00 0. -1.
         -5    1    5    5    0  502 -0.60142711185E+02 -0.14289520555E+02 -0.65681348726E+02  0.90318689521E+02  0.47000000000E+01 0.  1.
         15    1    6    6    0    0 -0.61420946774E+01 -0.38351766984E+02  0.11625623351E+02  0.40581968966E+02  0.17770000000E+01 0. -1.
        -16    1    6    6    0    0 -0.87858873629E+02  0.90437771406E+01  0.57173923066E+02  0.10521325515E+03  0.00000000000E+00 0.  1.
<mgrwt>
<rscale>  2 0.23599435E+03</rscale>
<asrwt>0</asrwt>
<pdfrwt beam="1">  1       21 0.26983017E-01 0.23609332E+03</pdfrwt>
<pdfrwt beam="2">  1       21 0.56232465E-01 0.23609332E+03</pdfrwt>
<totfact> 0.38121808E+04</totfact>
</mgrwt>
</event>
<event>
12    2  0.4090627E-002  0.2173949E+03  0.7546771E-02  0.1136024E+00
         21   -1    0    0  501  502  0.00000000000E+00  0.00000000000E+00  0.18674833452E+03  0.18674833452E+03  0.00000000000E+00 0. -1.
         21   -1    0    0  502  503 -0.00000000000E+00 -0.00000000000E+00 -0.51723096402E+03  0.51723096402E+03  0.00000000000E+00 0. -1.
         -6    2    1    2    0  503  0.12526801234E+03 -0.35578130215E+02 -0.41714604933E+03  0.46994708013E+03  0.17286281665E+03 0.  0.
        -24    2    3    3    0    0  0.63397134697E+02 -0.74445469969E+02 -0.16967408426E+03  0.21187124031E+03  0.80862864868E+02 0.  0.
          6    2    1    2  501    0 -0.12526801234E+03  0.35578130215E+02  0.86663419841E+02  0.23403221841E+03  0.17407657123E+03 0.  0.
         24    2    5    5    0    0 -0.13564062929E+03 -0.12884858117E+01  0.21526081952E+02  0.15832421787E+03  0.78760048565E+02 0.  0.
          5    1    5    5  501    0  0.10372616946E+02  0.36866616026E+02  0.65137337889E+02  0.75708000547E+02  0.47000000000E+01 0. -1.
        -15    1    6    6    0    0 -0.28304877542E+02 -0.34296835355E+02  0.79785972737E+01  0.45213435519E+02  0.17770000000E+01 0. -1.
         16    1    6    6    0    0 -0.10733575175E+03  0.33008349543E+02  0.13547484678E+02  0.11311078235E+03  0.00000000000E+00 0. -1.
         -5    1    3    3    0  503  0.61870877643E+02  0.38867339754E+02 -0.24747196507E+03  0.25807583981E+03  0.47000000000E+01 0. -1.
         15    1    4    4    0    0  0.18630161220E+02 -0.68693271686E+02 -0.14221093338E+03  0.15903759236E+03  0.17770000000E+01 0. -1.
        -16    1    4    4    0    0  0.44766973477E+02 -0.57521982830E+01 -0.27463150878E+02  0.52833647948E+02  0.00000000000E+00 0.  1.
<mgrwt>
<rscale>  2 0.21715180E+03</rscale>
<asrwt>0</asrwt>
<pdfrwt beam="1">  1       21 0.28730513E-01 0.21739487E+03</pdfrwt>
<pdfrwt beam="2">  1       21 0.79573994E-01 0.21739487E+03</pdfrwt>
<totfact> 0.15889030E+04</totfact>
</mgrwt>
</event>
<event>
12    2  0.4090627E-002  0.2395235E+03  0.7546771E-02  0.1120246E+00
         21   -1    0    0  503  502  0.00000000000E+00  0.00000000000E+00  0.15908292233E+03  0.15908292233E+03  0.00000000000E+00 0.  1.
         21   -1    0    0  501  503 -0.00000000000E+00 -0.00000000000E+00 -0.37258574509E+03  0.37258574509E+03  0.00000000000E+00 0. -1.
          6    2    1    2  501    0  0.12358547531E+03  0.10993088569E+03 -0.15689533995E+03  0.28633486133E+03  0.17324357355E+03 0.  0.
         24    2    3    3    0    0  0.41967889356E+02  0.69633905223E+00 -0.19532655147E+02  0.92726458376E+02  0.80342285508E+02 0.  0.
         -6    2    1    2    0  502 -0.12358547531E+03 -0.10993088569E+03 -0.56607482808E+02  0.24533380610E+03  0.17212234012E+03 0.  0.
        -24    2    5    5    0    0 -0.84079133310E+02 -0.61073258370E+01 -0.64096533429E+02  0.13389656583E+03  0.81934880585E+02 0.  0.
          5    1    3    3  501    0  0.81617585953E+02  0.10923454664E+03 -0.13736268481E+03  0.19360840295E+03  0.47000000000E+01 0. -1.
        -15    1    4    4    0    0  0.16030483087E+02  0.34219699555E+02  0.12232408702E+02  0.39758694361E+02  0.17770000000E+01 0.  1.
         16    1    4    4    0    0  0.25937406269E+02 -0.33523360503E+02 -0.31765063849E+02  0.52967764015E+02  0.00000000000E+00 0. -1.
         -5    1    5    5    0  502 -0.39506341999E+02 -0.10382355985E+03  0.74890506209E+01  0.11143724027E+03  0.47000000000E+01 0.  1.
         15    1    6    6    0    0 -0.27659759660E+02 -0.40828870383E+02 -0.39574185026E+02  0.63256089120E+02  0.17770000000E+01 0. -1.
        -16    1    6    6    0    0 -0.56419373650E+02  0.34721544546E+02 -0.24522348403E+02  0.70640476711E+02  0.00000000000E+00 0.  1.
<mgrwt>
<rscale>  2 0.23932081E+03</rscale>
<asrwt>0</asrwt>
<pdfrwt beam="1">  1       21 0.24474296E-01 0.23952350E+03</pdfrwt>
<pdfrwt beam="2">  1       21 0.57320883E-01 0.23952350E+03</pdfrwt>
<totfact> 0.44083992E+04</totfact>
</mgrwt>
</event>
<event>
12    2  0.4090627E-002  0.1781174E+03  0.7546771E-02  0.1169655E+00
         21   -1    0    0  503  502  0.00000000000E+00  0.00000000000E+00  0.35293549944E+03  0.35293549944E+03  0.00000000000E+00 0.  1.
         21   -1    0    0  501  503 -0.00000000000E+00 -0.00000000000E+00 -0.15148847086E+03  0.15148847086E+03  0.00000000000E+00 0.  1.
          6    2    1    2  501    0 -0.18454943278E+02  0.36872516164E+02 -0.60136925297E+02  0.18799534270E+03  0.17327905734E+03 0.  0.
         24    2    3    3    0    0  0.20503551383E+01  0.33430736768E+02 -0.10642387627E+03  0.13703570241E+03  0.79567104864E+02 0.  0.
         -6    2    1    2    0  502  0.18454943278E+02 -0.36872516164E+02  0.26158395388E+03  0.31642862760E+03  0.17320722866E+03 0.  0.
        -24    2    5    5    0    0 -0.23275856436E+02  0.21308472702E+02  0.21346238559E+03  0.23003266447E+03  0.79705835175E+02 0.  0.
          5    1    3    3  501    0 -0.20505298417E+02  0.34417793955E+01  0.46286950974E+02  0.50959640295E+02  0.47000000000E+01 0. -1.
        -15    1    4    4    0    0 -0.31026533489E+01  0.31792151826E+02 -0.15579820417E+01  0.32030491919E+02  0.17770000000E+01 0.  1.
         16    1    4    4    0    0  0.51530084872E+01  0.16385849427E+01 -0.10486589423E+03  0.10500521049E+03  0.00000000000E+00 0. -1.
         -5    1    5    5    0  502  0.41730799714E+02 -0.58180988866E+02  0.48121568287E+02  0.86395963127E+02  0.47000000000E+01 0.  1.
         15    1    6    6    0    0 -0.58419666801E+01  0.30119509489E+02  0.20727688196E+03  0.20954278071E+03  0.17770000000E+01 0. -1.
        -16    1    6    6    0    0 -0.17433889755E+02 -0.88110367870E+01  0.61855036333E+01  0.20489883759E+02  0.00000000000E+00 0.  1.
<mgrwt>
<rscale>  2 0.17809990E+03</rscale>
<asrwt>0</asrwt>
<pdfrwt beam="1">  1       21 0.54297769E-01 0.17811737E+03</pdfrwt>
<pdfrwt beam="2">  1       21 0.23305919E-01 0.17811737E+03</pdfrwt>
<totfact> 0.55850231E+04</totfact>
</mgrwt>
</event>
<event>
12    2  0.4090627E-002  0.2616158E+03  0.7546771E-02  0.1106616E+00
         21   -1    0    0  501  502  0.00000000000E+00  0.00000000000E+00  0.24571743056E+03  0.24571743056E+03  0.00000000000E+00 0.  1.
         21   -1    0    0  502  503 -0.00000000000E+00 -0.00000000000E+00 -0.37466639646E+03  0.37466639646E+03  0.00000000000E+00 0. -1.
         -6    2    1    2    0  503 -0.16654410471E+03  0.10533320869E+03 -0.22384955585E+03  0.34208731791E+03  0.16758008758E+03 0.  0.
        -24    2    3    3    0    0 -0.17905156985E+03  0.78401393157E+02 -0.14161928546E+03  0.25453352450E+03  0.80777781378E+02 0.  0.
          6    2    1    2  501    0  0.16654410471E+03 -0.10533320869E+03  0.94900589957E+02  0.27829650911E+03  0.17207789324E+03 0.  0.
         24    2    5    5    0    0  0.14987008453E+03 -0.13987131866E+03  0.67467066055E+02  0.23090882904E+03  0.82110013414E+02 0.  0.
          5    1    5    5  501    0  0.16674020178E+02  0.34538109972E+02  0.27433523901E+02  0.47387680076E+02  0.47000000000E+01 0. -1.
        -15    1    6    6    0    0  0.11055362079E+03 -0.72159395919E+02  0.75675738860E+02  0.15218099970E+03  0.17770000000E+01 0.  1.
         16    1    6    6    0    0  0.39316463746E+02 -0.67711922741E+02 -0.82086728044E+01  0.78727829336E+02  0.00000000000E+00 0. -1.
         -5    1    3    3    0  503  0.12507465141E+02  0.26931815531E+02 -0.82230270390E+02  0.87553793410E+02  0.47000000000E+01 0.  1.
         15    1    4    4    0    0  0.62780310891E+01  0.13619209579E+02 -0.11850287422E+02  0.19195926258E+02  0.17770000000E+01 0. -1.
        -16    1    4    4    0    0 -0.18532960094E+03  0.64782183578E+02 -0.12976899804E+03  0.23533759824E+03  0.00000000000E+00 0.  1.
<mgrwt>
<rscale>  2 0.26087862E+03</rscale>
<asrwt>0</asrwt>
<pdfrwt beam="1">  1       21 0.37802682E-01 0.26161580E+03</pdfrwt>
<pdfrwt beam="2">  1       21 0.57640984E-01 0.26161580E+03</pdfrwt>
<totfact> 0.18356147E+04</totfact>
</mgrwt>
</event>
<event>
12    2  0.4090627E-002  0.2628807E+03  0.7546771E-02  0.1106028E+00
         21   -1    0    0  501  502  0.00000000000E+00  0.00000000000E+00  0.13482240466E+03  0.13482240466E+03  0.00000000000E+00 0. -1.
         21   -1    0    0  502  503 -0.00000000000E+00 -0.00000000000E+00 -0.50745323073E+03  0.50745323073E+03  0.00000000000E+00 0. -1.
         -6    2    1    2    0  503 -0.19922648137E+03 -0.45488971282E+01 -0.16420643592E+03  0.30995163269E+03  0.17144788615E+03 0.  0.
        -24    2    3    3    0    0 -0.11170506031E+03  0.42987817577E+02 -0.14722007529E+03  0.20880636668E+03  0.87180130989E+02 0.  0.
          6    2    1    2  501    0  0.19922648137E+03  0.45488971282E+01 -0.20842439015E+03  0.33232400269E+03  0.16518666112E+03 0.  0.
         24    2    5    5    0    0  0.13510916907E+03 -0.58644603366E+02 -0.12413351153E+03  0.20890807803E+03  0.80868902009E+02 0.  0.
          5    1    5    5  501    0  0.64117312304E+02  0.63193500494E+02 -0.84290878622E+02  0.12341592466E+03  0.47000000000E+01 0. -1.
        -15    1    6    6    0    0  0.26105477236E+02  0.20077893399E+02 -0.31675343872E+02  0.45728578411E+02  0.17770000000E+01 0.  1.
         16    1    6    6    0    0  0.10900369183E+03 -0.78722496766E+02 -0.92458167654E+02  0.16317949962E+03  0.00000000000E+00 0. -1.
         -5    1    3    3    0  503 -0.87521421062E+02 -0.47536714705E+02 -0.16986360633E+02  0.10114526601E+03  0.47000000000E+01 0.  1.
         15    1    4    4    0    0 -0.48246048481E+02 -0.13400764967E+02 -0.16143729017E+02  0.52640663097E+02  0.17770000000E+01 0. -1.
        -16    1    4    4    0    0 -0.63459011828E+02  0.56388582544E+02 -0.13107634627E+03  0.15616570358E+03  0.00000000000E+00 0.  1.
<mgrwt>
<rscale>  2 0.26186483E+03</rscale>
<asrwt>0</asrwt>
<pdfrwt beam="1">  1       21 0.20741909E-01 0.26288070E+03</pdfrwt>
<pdfrwt beam="2">  1       21 0.78069726E-01 0.26288070E+03</pdfrwt>
<totfact> 0.30266455E+04</totfact>
</mgrwt>
</event>
<event>
12    2  0.4090627E-002  0.3793617E+03  0.7546771E-02  0.1051201E+00
         21   -1    0    0  503  502  0.00000000000E+00  0.00000000000E+00  0.83000784223E+02  0.83000784223E+02  0.00000000000E+00 0.  1.
         21   -1    0    0  501  503 -0.00000000000E+00 -0.00000000000E+00 -0.17338234877E+04  0.17338234877E+04  0.00000000000E+00 0. -1.
          6    2    1    2  501    0 -0.29358693359E+03 -0.16748852455E+03 -0.79875475564E+03  0.88412117175E+03  0.17150916374E+03 0.  0.
         24    2    3    3    0    0 -0.13486362592E+03 -0.12504053219E+02 -0.30363370604E+03  0.34155300229E+03  0.78233477410E+02 0.  0.
         -6    2    1    2    0  502  0.29358693359E+03  0.16748852455E+03 -0.85206794786E+03  0.93270310020E+03  0.17224863401E+03 0.  0.
        -24    2    5    5    0    0  0.25056874443E+03  0.15958122068E+03 -0.82607962473E+03  0.88160933353E+03  0.81096293968E+02 0.  0.
          5    1    3    3  501    0 -0.15872330767E+03 -0.15498447133E+03 -0.49512104960E+03  0.54256816946E+03  0.47000000000E+01 0. -1.
        -15    1    4    4    0    0 -0.10331049917E+03  0.23447043932E+02 -0.23621353063E+03  0.25888764530E+03  0.17770000000E+01 0.  1.
         16    1    4    4    0    0 -0.31553126741E+02 -0.35951097151E+02 -0.67420175413E+02  0.82665356989E+02  0.00000000000E+00 0. -1.
         -5    1    5    5    0  502  0.43018189161E+02  0.79073038692E+01 -0.25988323131E+02  0.51093766668E+02  0.47000000000E+01 0.  1.
         15    1    6    6    0    0  0.19435016728E+02  0.46863088304E+02 -0.13229541280E+03  0.14170075123E+03  0.17770000000E+01 0. -1.
        -16    1    6    6    0    0  0.23113372770E+03  0.11271813238E+03 -0.69378421193E+03  0.73990858230E+03  0.00000000000E+00 0.  1.
<mgrwt>
<rscale>  2 0.37927786E+03</rscale>
<asrwt>0</asrwt>
<pdfrwt beam="1">  1       21 0.12769352E-01 0.37936168E+03</pdfrwt>
<pdfrwt beam="2">  1       21 0.26674205E+00 0.37936168E+03</pdfrwt>
<totfact> 0.23982780E+03</totfact>
</mgrwt>
</event>
<event>
12    2  0.4090627E-002  0.2503821E+03  0.7546771E-02  0.1113485E+00
         21   -1    0    0  501  502  0.00000000000E+00  0.00000000000E+00  0.19429310754E+04  0.19429310754E+04  0.00000000000E+00 0. -1.
         21   -1    0    0  502  503 -0.00000000000E+00 -0.00000000000E+00 -0.94225497205E+02  0.94225497205E+02  0.00000000000E+00 0.  1.
         -6    2    1    2    0  503  0.16567880460E+03 -0.72000752831E+02  0.97787193022E+02  0.26880021258E+03  0.17337140612E+03 0.  0.
        -24    2    3    3    0    0  0.16826318787E+03 -0.97494533924E+02  0.11391822694E+03  0.23815853889E+03  0.76970401316E+02 0.  0.
          6    2    1    2  501    0 -0.16567880460E+03  0.72000752831E+02  0.17509183852E+04  0.17683563601E+04  0.16951533798E+03 0.  0.
         24    2    5    5    0    0 -0.11226920870E+03  0.55915368906E+02  0.16079171422E+04  0.16147895342E+04  0.80104929914E+02 0.  0.
          5    1    5    5  501    0 -0.53409595904E+02  0.16085383925E+02  0.14300124297E+03  0.15356682585E+03  0.47000000000E+01 0. -1.
        -15    1    6    6    0    0  0.56106754126E+01 -0.10340132494E+02  0.21343983186E+03  0.21377118041E+03  0.17770000000E+01 0.  1.
         16    1    6    6    0    0 -0.11787988411E+03  0.66255501400E+02  0.13944773104E+04  0.14010183538E+04  0.00000000000E+00 0. -1.
         -5    1    3    3    0  503 -0.25843832685E+01  0.25493781094E+02 -0.16131033918E+02  0.30641673691E+02  0.47000000000E+01 0.  1.
         15    1    4    4    0    0 -0.61794138878E+01 -0.11184861664E+02  0.53267857150E+00  0.12912310479E+02  0.17770000000E+01 0. -1.
        -16    1    4    4    0    0  0.17444260176E+03 -0.86309672260E+02  0.11338554837E+03  0.22524622841E+03  0.00000000000E+00 0.  1.
<mgrwt>
<rscale>  2 0.24971589E+03</rscale>
<asrwt>0</asrwt>
<pdfrwt beam="1">  1       21 0.29891244E+00 0.25038215E+03</pdfrwt>
<pdfrwt beam="2">  1       21 0.14496232E-01 0.25038215E+03</pdfrwt>
<totfact> 0.13524931E+03</totfact>
</mgrwt>
</event>
<event>
12    2  0.4090627E-002  0.1778359E+03  0.7546771E-02  0.1170243E+00
         21   -1    0    0  501  502  0.00000000000E+00  0.00000000000E+00  0.48829192334E+02  0.48829192334E+02  0.00000000000E+00 0. -1.
         21   -1    0    0  502  503 -0.00000000000E+00 -0.00000000000E+00 -0.73865001284E+03  0.73865001284E+03  0.00000000000E+00 0. -1.
         -6    2    1    2    0  503 -0.26670388293E+02  0.26273450723E+02 -0.20196681874E+03  0.26822287137E+03  0.17248567775E+03 0.  0.
        -24    2    3    3    0    0  0.38819904107E+02  0.54908705196E+01 -0.17145392503E+03  0.19289677549E+03  0.79218577182E+02 0.  0.
          6    2    1    2  501    0  0.26670388293E+02 -0.26273450723E+02 -0.48785400176E+03  0.51925633380E+03  0.17385053733E+03 0.  0.
         24    2    5    5    0    0 -0.23301873853E+02 -0.67205773612E+02 -0.23594975354E+03  0.25915919365E+03  0.80197307472E+02 0.  0.
          5    1    5    5  501    0  0.49972262146E+02  0.40932322889E+02 -0.25190424822E+03  0.26009714014E+03  0.47000000000E+01 0. -1.
        -15    1    6    6    0    0 -0.34414674538E+02  0.26900550953E+01 -0.10142558843E+03  0.10715369306E+03  0.17770000000E+01 0.  1.
         16    1    6    6    0    0  0.11112800685E+02 -0.69895828707E+02 -0.13452416512E+03  0.15200550059E+03  0.00000000000E+00 0. -1.
         -5    1    3    3    0  503 -0.65490292401E+02  0.20782580203E+02 -0.30512893708E+02  0.75326095883E+02  0.47000000000E+01 0.  1.
         15    1    4    4    0    0 -0.78384402710E+01  0.30488457755E+02 -0.93473183916E+02  0.98647762481E+02  0.17770000000E+01 0. -1.
        -16    1    4    4    0    0  0.46658344378E+02 -0.24997587236E+02 -0.77980741117E+02  0.94249013007E+02  0.00000000000E+00 0.  1.
<mgrwt>
<rscale>  2 0.17750146E+03</rscale>
<asrwt>0</asrwt>
<pdfrwt beam="1">  1       21 0.75121834E-02 0.17783592E+03</pdfrwt>
<pdfrwt beam="2">  1       21 0.11363846E+00 0.17783592E+03</pdfrwt>
<totfact> 0.81333594E+04</totfact>
</mgrwt>
</event>
<event>
12    2  0.4090627E-002  0.1772060E+03  0.7546771E-02  0.1170939E+00
         21   -1    0    0  503  502  0.00000000000E+00  0.00000000000E+00  0.56917736832E+03  0.56917736832E+03  0.00000000000E+00 0. -1.
         21   -1    0    0  501  503 -0.00000000000E+00 -0.00000000000E+00 -0.12506919144E+04  0.12506919144E+04  0.00000000000E+00 0. -1.
          6    2    1    2  501    0  0.19419951274E+02  0.31431543894E+02 -0.12306522140E+04  0.12433450135E+04  0.17331149499E+03 0.  0.
         24    2    3    3    0    0  0.35711526491E+02 -0.37123190766E+02 -0.88275375303E+03  0.88835121606E+03  0.85207101685E+02 0.  0.
         -6    2    1    2    0  502 -0.19419951274E+02 -0.31431543894E+02  0.54913766797E+03  0.57652426918E+03  0.17164783167E+03 0.  0.
        -24    2    5    5    0    0 -0.63255863749E+01  0.41122278218E+02  0.39469753509E+03  0.40532449074E+03  0.82284529409E+02 0.  0.
          5    1    3    3  501    0 -0.16291575216E+02  0.68554734660E+02 -0.34789846101E+03  0.35499379746E+03  0.47000000000E+01 0. -1.
        -15    1    4    4    0    0 -0.22514993942E+02 -0.23172591541E+02 -0.48919287999E+03  0.49026189482E+03  0.17770000000E+01 0.  1.
         16    1    4    4    0    0  0.58226520433E+02 -0.13950599225E+02 -0.39356087304E+03  0.39808932124E+03  0.00000000000E+00 0. -1.
         -5    1    5    5    0  502 -0.13094364900E+02 -0.72553822112E+02  0.15444013288E+03  0.17119977844E+03  0.47000000000E+01 0.  1.
         15    1    6    6    0    0 -0.20052360485E+02 -0.86067973743E+01  0.26259338901E+03  0.26350449674E+03  0.17770000000E+01 0. -1.
        -16    1    6    6    0    0  0.13726774110E+02  0.49729075592E+02  0.13210414608E+03  0.14181999400E+03  0.00000000000E+00 0.  1.
<mgrwt>
<rscale>  2 0.17679786E+03</rscale>
<asrwt>0</asrwt>
<pdfrwt beam="1">  1       21 0.87565750E-01 0.17720596E+03</pdfrwt>
<pdfrwt beam="2">  1       21 0.19241414E+00 0.17720596E+03</pdfrwt>
<totfact> 0.17202200E+02</totfact>
</mgrwt>
</event>
<event>
12    2  0.4090627E-002  0.1854222E+03  0.7546771E-02  0.1162675E+00
         21   -1    0    0  501  502  0.00000000000E+00  0.00000000000E+00  0.12661780953E+03  0.12661780953E+03  0.00000000000E+00 0. -1.
         21   -1    0    0  502  503 -0.00000000000E+00 -0.00000000000E+00 -0.54892453674E+03  0.54892453674E+03  0.00000000000E+00 0. -1.
         -6    2    1    2    0  503  0.50639660107E+02 -0.46798104934E+02 -0.45133610149E+03  0.48794021553E+03  0.17212477921E+03 0.  0.
        -24    2    3    3    0    0 -0.32678514745E+02  0.35992441365E+01 -0.21433820714E+03  0.23167491749E+03  0.81557099429E+02 0.  0.
          6    2    1    2  501    0 -0.50639660107E+02  0.46798104934E+02  0.29029374285E+02  0.18760213075E+03  0.17203899874E+03 0.  0.
         24    2    5    5    0    0 -0.40783952715E+02  0.14098080438E+01 -0.45106095523E+02  0.99992825609E+02  0.79364267540E+02 0.  0.
          5    1    5    5  501    0 -0.98557073919E+01  0.45388296891E+02  0.74135469808E+02  0.87609305136E+02  0.47000000000E+01 0. -1.
        -15    1    6    6    0    0 -0.20930618503E+02 -0.25262918625E+02  0.11107164579E+02  0.34681878299E+02  0.17770000000E+01 0.  1.
         16    1    6    6    0    0 -0.19853334212E+02  0.26672726669E+02 -0.56213260102E+02  0.65310947310E+02  0.00000000000E+00 0. -1.
         -5    1    3    3    0  503  0.83318174852E+02 -0.50397349071E+02 -0.23699789435E+03  0.25626529804E+03  0.47000000000E+01 0.  1.
         15    1    4    4    0    0  0.14497087824E+02  0.10920529408E+02 -0.80498051598E+01  0.19934407692E+02  0.17770000000E+01 0. -1.
        -16    1    4    4    0    0 -0.47175602569E+02 -0.73212852712E+01 -0.20628840198E+03  0.21174050980E+03  0.00000000000E+00 0.  1.
<mgrwt>
<rscale>  2 0.18540225E+03</rscale>
<asrwt>0</asrwt>
<pdfrwt beam="1">  1       21 0.19479663E-01 0.18542216E+03</pdfrwt>
<pdfrwt beam="2">  1       21 0.84449928E-01 0.18542216E+03</pdfrwt>
<totfact> 0.29606005E+04</totfact>
</mgrwt>
</event>
<event>
12    2  0.4090627E-002  0.2003436E+03  0.7546771E-02  0.1149467E+00
         21   -1    0    0  503  502  0.00000000000E+00  0.00000000000E+00  0.41684319409E+02  0.41684319409E+02  0.00000000000E+00 0. -1.
         21   -1    0    0  501  503 -0.00000000000E+00 -0.00000000000E+00 -0.13341259543E+04  0.13341259543E+04  0.00000000000E+00 0. -1.
          6    2    1    2  501    0 -0.57282571594E+02 -0.81265612429E+02 -0.10091918026E+04  0.10288693036E+04  0.17383485423E+03 0.  0.
         24    2    3    3    0    0 -0.96328022642E+01 -0.60097712047E+02 -0.28131663391E+03  0.29911391183E+03  0.81397529832E+02 0.  0.
         -6    2    1    2    0  502  0.57282571594E+02  0.81265612429E+02 -0.28324983227E+03  0.34694097015E+03  0.17393152825E+03 0.  0.
        -24    2    5    5    0    0 -0.18142206785E+02  0.22544481780E+02 -0.52030321978E+02  0.96697847737E+02  0.76196627393E+02 0.  0.
          5    1    3    3  501    0 -0.47649769330E+02 -0.21167900381E+02 -0.72787516874E+03  0.72975539175E+03  0.47000000000E+01 0. -1.
        -15    1    4    4    0    0  0.19761940253E+02 -0.62745915900E+02 -0.23623984985E+03  0.24523459917E+03  0.17770000000E+01 0.  1.
         16    1    4    4    0    0 -0.29394742517E+02  0.26482038528E+01 -0.45076784060E+02  0.53879312658E+02  0.00000000000E+00 0. -1.
         -5    1    5    5    0  502  0.75424778380E+02  0.58721130648E+02 -0.23121951029E+03  0.25024312242E+03  0.47000000000E+01 0.  1.
         15    1    6    6    0    0  0.26412969005E+02  0.51981925783E+01 -0.38492889354E+02  0.47005599641E+02  0.17770000000E+01 0. -1.
        -16    1    6    6    0    0 -0.44555175791E+02  0.17346289202E+02 -0.13537432624E+02  0.49692248096E+02  0.00000000000E+00 0.  1.
<mgrwt>
<rscale>  2 0.20032264E+03</rscale>
<asrwt>0</asrwt>
<pdfrwt beam="1">  1       21 0.64129721E-02 0.20034363E+03</pdfrwt>
<pdfrwt beam="2">  1       21 0.20525015E+00 0.20034363E+03</pdfrwt>
<totfact> 0.21739307E+04</totfact>
</mgrwt>
</event>
<event>
12    2  0.4090627E-002  0.1970620E+03  0.7546771E-02  0.1152273E+00
         21   -1    0    0  503  502  0.00000000000E+00  0.00000000000E+00  0.72221642975E+03  0.72221642975E+03  0.00000000000E+00 0.  1.
         21   -1    0    0  501  503 -0.00000000000E+00 -0.00000000000E+00 -0.72241904926E+02  0.72241904926E+02  0.00000000000E+00 0.  1.
          6    2    1    2  501    0 -0.88575016263E+01  0.93443672336E+02  0.12381743836E+03  0.23260897651E+03  0.17310691112E+03 0.  0.
         24    2    3    3    0    0  0.29852940886E+02  0.92711776434E+02  0.28860719171E+02  0.12995468994E+03  0.81046954035E+02 0.  0.
         -6    2    1    2    0  502  0.88575016263E+01 -0.93443672336E+02  0.52615708646E+03  0.56184935817E+03  0.17327217434E+03 0.  0.
        -24    2    5    5    0    0  0.11647171838E+02 -0.94866072398E+02  0.19961037726E+03  0.23525381507E+03  0.79779862679E+02 0.  0.
          5    1    3    3  501    0 -0.38710442513E+02  0.73189590178E+00  0.94956719194E+02  0.10265428657E+03  0.47000000000E+01 0. -1.
        -15    1    4    4    0    0  0.10389029457E+02 -0.13150479103E+02  0.12719976846E+02  0.21114510974E+02  0.17770000000E+01 0.  1.
         16    1    4    4    0    0  0.19463911430E+02  0.10586225554E+03  0.16140742325E+02  0.10884017897E+03  0.00000000000E+00 0. -1.
         -5    1    5    5    0  502 -0.27896702114E+01  0.14224000625E+01  0.32654670920E+03  0.32659554310E+03  0.47000000000E+01 0.  1.
         15    1    6    6    0    0  0.22282845753E+02 -0.24856167607E+01  0.11157405805E+02  0.25106750861E+02  0.17770000000E+01 0. -1.
        -16    1    6    6    0    0 -0.10635673915E+02 -0.92380455638E+02  0.18845297146E+03  0.21014706421E+03  0.00000000000E+00 0.  1.
<mgrwt>
<rscale>  2 0.19702564E+03</rscale>
<asrwt>0</asrwt>
<pdfrwt beam="1">  1       21 0.11111022E+00 0.19706197E+03</pdfrwt>
<pdfrwt beam="2">  1       21 0.11114140E-01 0.19706197E+03</pdfrwt>
<totfact> 0.42787252E+04</totfact>
</mgrwt>
</event>
<event>
12    2  0.4090627E-002  0.1884095E+03  0.7546771E-02  0.1160389E+00
         21   -1    0    0  503  502  0.00000000000E+00  0.00000000000E+00  0.69582982180E+02  0.69582982180E+02  0.00000000000E+00 0.  1.
         21   -1    0    0  501  503 -0.00000000000E+00 -0.00000000000E+00 -0.65706187137E+03  0.65706187137E+03  0.00000000000E+00 0.  1.
          6    2    1    2  501    0 -0.74655038357E+01 -0.72931081256E+02 -0.46756712599E+03  0.50331330527E+03  0.17126175752E+03 0.  0.
         24    2    3    3    0    0 -0.59043188400E+02 -0.82391004918E+02 -0.26891206652E+03  0.29780011748E+03  0.78082230136E+02 0.  0.
         -6    2    1    2    0  502  0.74655038357E+01  0.72931081256E+02 -0.11991176320E+03  0.22333154828E+03  0.17356115102E+03 0.  0.
        -24    2    5    5    0    0  0.61055770476E+02  0.21871280529E+02 -0.10519226565E+03  0.14771558742E+03  0.80921702863E+02 0.  0.
          5    1    3    3  501    0  0.51577684565E+02  0.94599236619E+01 -0.19865505948E+03  0.20551318779E+03  0.47000000000E+01 0. -1.
        -15    1    4    4    0    0 -0.28160420921E+02  0.85454786330E+01 -0.41175634830E+02  0.50642128156E+02  0.17770000000E+01 0.  1.
         16    1    4    4    0    0 -0.30882767480E+02 -0.90936483551E+02 -0.22773643169E+03  0.24715798932E+03  0.00000000000E+00 0. -1.
         -5    1    5    5    0  502 -0.53590266640E+02  0.51059800727E+02 -0.14719497547E+02  0.75615960861E+02  0.47000000000E+01 0.  1.
         15    1    6    6    0    0  0.27693673857E+02  0.51554562406E+02 -0.52434880881E+02  0.78596354486E+02  0.17770000000E+01 0. -1.
        -16    1    6    6    0    0  0.33362096619E+02 -0.29683281877E+02 -0.52757384769E+02  0.69119232934E+02  0.00000000000E+00 0.  1.
<mgrwt>
<rscale>  2 0.18787828E+03</rscale>
<asrwt>0</asrwt>
<pdfrwt beam="1">  1       21 0.10705074E-01 0.18840953E+03</pdfrwt>
<pdfrwt beam="2">  1       21 0.10108644E+00 0.18840953E+03</pdfrwt>
<totfact> 0.57664677E+04</totfact>
</mgrwt>
</event>
<event>
12    2  0.4090627E-002  0.4105704E+03  0.7546771E-02  0.1040181E+00
         21   -1    0    0  501  502  0.00000000000E+00  0.00000000000E+00  0.19557153917E+03  0.19557153917E+03  0.00000000000E+00 0.  1.
         21   -1    0    0  502  503 -0.00000000000E+00 -0.00000000000E+00 -0.10938384207E+04  0.10938384207E+04  0.00000000000E+00 0. -1.
         -6    2    1    2    0  503  0.23926542476E+03 -0.28583786576E+03 -0.74600381595E+03  0.85151487616E+03  0.17206005324E+03 0.  0.
        -24    2    3    3    0    0  0.19211971630E+03 -0.24575370226E+03 -0.47787939039E+03  0.57630176679E+03  0.80312807643E+02 0.  0.
          6    2    1    2  501    0 -0.23926542476E+03  0.28583786576E+03 -0.15226306560E+03  0.43789508373E+03  0.17209542186E+03 0.  0.
         24    2    5    5    0    0 -0.19787333066E+03  0.13264198853E+03 -0.85044709746E+02  0.26549241665E+03  0.80658964373E+02 0.  0.
          5    1    5    5  501    0 -0.41392094095E+02  0.15319587723E+03 -0.67218355858E+02  0.17240266708E+03  0.47000000000E+01 0. -1.
        -15    1    6    6    0    0 -0.15541234544E+03  0.13037147103E+03 -0.46549018212E+02  0.20813381849E+03  0.17770000000E+01 0.  1.
         16    1    6    6    0    0 -0.42460985223E+02  0.22705174945E+01 -0.38495691534E+02  0.57358598157E+02  0.00000000000E+00 0. -1.
         -5    1    3    3    0  503  0.47145708456E+02 -0.40084163491E+02 -0.26812442556E+03  0.27521310937E+03  0.47000000000E+01 0.  1.
         15    1    4    4    0    0  0.17909447747E+02 -0.73119165409E+02 -0.89489608266E+02  0.11695601047E+03  0.17770000000E+01 0. -1.
        -16    1    4    4    0    0  0.17421026856E+03 -0.17263453686E+03 -0.38838978213E+03  0.45934575632E+03  0.00000000000E+00 0.  1.
<mgrwt>
<rscale>  2 0.41056671E+03</rscale>
<asrwt>0</asrwt>
<pdfrwt beam="1">  1       21 0.30087930E-01 0.41057041E+03</pdfrwt>
<pdfrwt beam="2">  1       21 0.16828283E+00 0.41057041E+03</pdfrwt>
<totfact> 0.20153840E+03</totfact>
</mgrwt>
</event>
<event>
12    2  0.4090627E-002  0.2854692E+03  0.7546771E-02  0.1094363E+00
         21   -1    0    0  501  502  0.00000000000E+00  0.00000000000E+00  0.16313701279E+03  0.16313701279E+03  0.00000000000E+00 0.  1.
         21   -1    0    0  502  503 -0.00000000000E+00 -0.00000000000E+00 -0.64111731540E+03  0.64111731540E+03  0.00000000000E+00 0.  1.
         -6    2    1    2    0  503 -0.16774429240E+03 -0.13145633084E+03 -0.43743072678E+03  0.51591955395E+03  0.17148886513E+03 0.  0.
        -24    2    3    3    0    0 -0.62563076664E+02 -0.31494956822E+02 -0.29168115753E+03  0.31020034878E+03  0.78995492644E+02 0.  0.
          6    2    1    2  501    0  0.16774429240E+03  0.13145633084E+03 -0.40549575830E+02  0.28833477424E+03  0.18993093320E+03 0.  0.
         24    2    5    5    0    0  0.18714745778E+03  0.70386883696E+02 -0.59702545759E+01  0.21537053876E+03  0.79814413950E+02 0.  0.
          5    1    5    5  501    0 -0.19403165384E+02  0.61069447139E+02 -0.34579321254E+02  0.72964235480E+02  0.47000000000E+01 0. -1.
        -15    1    6    6    0    0  0.82191117491E+02  0.13034738823E+02  0.33055614214E+02  0.89560680941E+02  0.17770000000E+01 0.  1.
         16    1    6    6    0    0  0.10495634029E+03  0.57352144873E+02 -0.39025868790E+02  0.12580985782E+03  0.00000000000E+00 0. -1.
         -5    1    3    3    0  503 -0.10518121574E+03 -0.99961374013E+02 -0.14574956925E+03  0.20571920517E+03  0.47000000000E+01 0.  1.
         15    1    4    4    0    0  0.18583615779E+02 -0.50413597414E+01 -0.39741567672E+02  0.44196334842E+02  0.17770000000E+01 0. -1.
        -16    1    4    4    0    0 -0.81146692443E+02 -0.26453597081E+02 -0.25193958986E+03  0.26600401394E+03  0.00000000000E+00 0.  1.
<mgrwt>
<rscale>  2 0.28244052E+03</rscale>
<asrwt>0</asrwt>
<pdfrwt beam="1">  1       21 0.25098002E-01 0.28546922E+03</pdfrwt>
<pdfrwt beam="2">  1       21 0.98633434E-01 0.28546922E+03</pdfrwt>
<totfact> 0.12089780E+04</totfact>
</mgrwt>
</event>
<event>
12    2  0.4090627E-002  0.2044849E+03  0.7546771E-02  0.1146010E+00
         21   -1    0    0  503  502  0.00000000000E+00  0.00000000000E+00  0.19276399029E+03  0.19276399029E+03  0.00000000000E+00 0.  1.
         21   -1    0    0  501  503 -0.00000000000E+00 -0.00000000000E+00 -0.11945945264E+04  0.11945945264E+04  0.00000000000E+00 0.  1.
          6    2    1    2  501    0  0.20838421328E+02  0.10748540447E+03 -0.11284634749E+04  0.11468408379E+04  0.17270420151E+03 0.  0.
         24    2    3    3    0    0  0.55325936876E+02  0.24803981572E+02 -0.80142728299E+03  0.80772379724E+03  0.80348278814E+02 0.  0.
         -6    2    1    2    0  502 -0.20838421328E+02 -0.10748540447E+03  0.12663293878E+03  0.24051767885E+03  0.17270060994E+03 0.  0.
        -24    2    5    5    0    0 -0.99706591351E+01  0.11762560795E+02  0.27118077283E+02  0.84750278102E+02  0.78800048495E+02 0.  0.
          5    1    3    3  501    0 -0.34487515547E+02  0.82681422898E+02 -0.32703619192E+03  0.33911704063E+03  0.47000000000E+01 0. -1.
        -15    1    4    4    0    0  0.67554318366E+02  0.38688719578E+02 -0.72115438518E+03  0.72534626762E+03  0.17770000000E+01 0.  1.
         16    1    4    4    0    0 -0.12228381491E+02 -0.13884738006E+02 -0.80272897808E+02  0.82377529618E+02  0.00000000000E+00 0. -1.
         -5    1    5    5    0  502 -0.10867762193E+02 -0.11924796527E+03  0.99514861500E+02  0.15576740074E+03  0.47000000000E+01 0.  1.
         15    1    6    6    0    0  0.13417656433E+02 -0.20556816381E+02 -0.13286106073E+02  0.27969528910E+02  0.17770000000E+01 0. -1.
        -16    1    6    6    0    0 -0.23388315568E+02  0.32319377176E+02  0.40404183355E+02  0.56780749192E+02  0.00000000000E+00 0.  1.
<mgrwt>
<rscale>  2 0.20448419E+03</rscale>
<asrwt>0</asrwt>
<pdfrwt beam="1">  1       21 0.29655999E-01 0.20448495E+03</pdfrwt>
<pdfrwt beam="2">  1       21 0.18378377E+00 0.20448495E+03</pdfrwt>
<totfact> 0.18474861E+03</totfact>
</mgrwt>
</event>
<event>
12    2  0.4090627E-002  0.2101395E+03  0.7546771E-02  0.1141816E+00
         21   -1    0    0  503  502  0.00000000000E+00  0.00000000000E+00  0.10674865388E+03  0.10674865388E+03  0.00000000000E+00 0. -1.
         21   -1    0    0  501  503 -0.00000000000E+00 -0.00000000000E+00 -0.43835451344E+03  0.43835451344E+03  0.00000000000E+00 0.  1.
          6    2    1    2  501    0  0.65617593326E+02 -0.94879230474E+02 -0.23431324840E+03  0.31353357155E+03  0.17347295231E+03 0.  0.
         24    2    3    3    0    0  0.11033428176E+03 -0.86395914809E+02 -0.19429345373E+03  0.25274522698E+03  0.80574783747E+02 0.  0.
         -6    2    1    2    0  502 -0.65617593326E+02  0.94879230474E+02 -0.97292611156E+02  0.23156959577E+03  0.17564421018E+03 0.  0.
        -24    2    5    5    0    0 -0.10859065620E+03  0.46480002571E+02 -0.82738927047E+02  0.16506343728E+03  0.80298736137E+02 0.  0.
          5    1    3    3  501    0 -0.44716688433E+02 -0.84833156648E+01 -0.40019794675E+02  0.60788344564E+02  0.47000000000E+01 0. -1.
        -15    1    4    4    0    0  0.94993426346E+02 -0.27967494666E+02 -0.99877279638E+02  0.14065760031E+03  0.17770000000E+01 0.  1.
         16    1    4    4    0    0  0.15340855413E+02 -0.58428420143E+02 -0.94416174088E+02  0.11208762668E+03  0.00000000000E+00 0. -1.
         -5    1    5    5    0  502  0.42973062879E+02  0.48399227903E+02 -0.14553684109E+02  0.66506158482E+02  0.47000000000E+01 0.  1.
         15    1    6    6    0    0 -0.11235704856E+03  0.47716336918E+02 -0.49738482876E+02  0.13182575461E+03  0.17770000000E+01 0. -1.
        -16    1    6    6    0    0  0.37663923587E+01 -0.12363343471E+01 -0.33000444171E+02  0.33237682674E+02  0.00000000000E+00 0.  1.
<mgrwt>
<rscale>  2 0.20968521E+03</rscale>
<asrwt>0</asrwt>
<pdfrwt beam="1">  1       21 0.16422870E-01 0.21013954E+03</pdfrwt>
<pdfrwt beam="2">  1       21 0.67439156E-01 0.21013954E+03</pdfrwt>
<totfact> 0.66317856E+04</totfact>
</mgrwt>
</event>
<event>
12    2  0.4090627E-002  0.1769532E+03  0.7546771E-02  0.1171989E+00
         21   -1    0    0  501  502  0.00000000000E+00  0.00000000000E+00  0.63813306727E+03  0.63813306727E+03  0.00000000000E+00 0.  1.
         21   -1    0    0  502  503 -0.00000000000E+00 -0.00000000000E+00 -0.74104098371E+02  0.74104098371E+02  0.00000000000E+00 0.  1.
         -6    2    1    2    0  503  0.26431500516E+02  0.43899623913E+01  0.72142934425E+02  0.19109435246E+03  0.17491298570E+03 0.  0.
        -24    2    3    3    0    0  0.31395988174E+01  0.76693823588E+01  0.11763508036E+03  0.13966583292E+03  0.74832187250E+02 0.  0.
          6    2    1    2  501    0 -0.26431500516E+02 -0.43899623913E+01  0.49188603447E+03  0.52114281318E+03  0.17005900396E+03 0.  0.
         24    2    5    5    0    0 -0.62165459991E+02 -0.47023919921E+02  0.26463708222E+03  0.28713694467E+03  0.79618127647E+02 0.  0.
          5    1    5    5  501    0  0.35733959475E+02  0.42633957530E+02  0.22724895225E+03  0.23400586850E+03  0.47000000000E+01 0. -1.
        -15    1    6    6    0    0  0.17623024248E+02 -0.21032800490E+02  0.66934909714E+02  0.72362901735E+02  0.17770000000E+01 0.  1.
         16    1    6    6    0    0 -0.79788484240E+02 -0.25991119431E+02  0.19770217251E+03  0.21477404294E+03  0.00000000000E+00 0. -1.
         -5    1    3    3    0  503  0.23291901699E+02 -0.32794199675E+01 -0.45492145935E+02  0.51428519538E+02  0.47000000000E+01 0.  1.
         15    1    4    4    0    0  0.21118165472E+01  0.21552196061E+02  0.12288260966E+03  0.12478882326E+03  0.17770000000E+01 0. -1.
        -16    1    4    4    0    0  0.10277822703E+01 -0.13882813702E+02 -0.52475293044E+01  0.14877009662E+02  0.00000000000E+00 0.  1.
<mgrwt>
<rscale>  2 0.17574174E+03</rscale>
<asrwt>0</asrwt>
<pdfrwt beam="1">  1       21 0.98174314E-01 0.17695324E+03</pdfrwt>
<pdfrwt beam="2">  1       21 0.11400631E-01 0.17695324E+03</pdfrwt>
<totfact> 0.55564904E+04</totfact>
</mgrwt>
</event>
<event>
12    2  0.4090627E-002  0.2845324E+03  0.7546771E-02  0.1093381E+00
         21   -1    0    0  501  502  0.00000000000E+00  0.00000000000E+00  0.12589164796E+03  0.12589164796E+03  0.00000000000E+00 0.  1.
         21   -1    0    0  502  503 -0.00000000000E+00 -0.00000000000E+00 -0.79173526413E+03  0.79173526413E+03  0.00000000000E+00 0. -1.
         -6    2    1    2    0  503  0.17004704228E+03  0.14899760675E+03 -0.53382403361E+03  0.60491881496E+03  0.17274950196E+03 0.  0.
        -24    2    3    3    0    0  0.15157577216E+03  0.43135051632E+02 -0.33474366712E+03  0.37863768292E+03  0.80481829415E+02 0.  0.
          6    2    1    2  501    0 -0.17004704228E+03 -0.14899760675E+03 -0.13201958257E+03  0.31270809714E+03  0.17099970886E+03 0.  0.
         24    2    5    5    0    0 -0.11489574483E+03 -0.93104028889E+02 -0.10415341337E+02  0.16787909748E+03  0.78775120818E+02 0.  0.
          5    1    5    5  501    0 -0.55151297448E+02 -0.55893577858E+02 -0.12160424123E+03  0.14482899966E+03  0.47000000000E+01 0. -1.
        -15    1    6    6    0    0 -0.51975375330E+02 -0.90687026019E+02 -0.45463683203E+01  0.10463939757E+03  0.17770000000E+01 0.  1.
         16    1    6    6    0    0 -0.62920369501E+02 -0.24170028695E+01 -0.58689730162E+01  0.63239699914E+02  0.00000000000E+00 0. -1.
         -5    1    3    3    0  503  0.18471270123E+02  0.10586255511E+03 -0.19908036648E+03  0.22628113203E+03  0.47000000000E+01 0.  1.
         15    1    4    4    0    0  0.17384490814E+02  0.11412915483E+01 -0.12439225806E+03  0.12561892637E+03  0.17770000000E+01 0. -1.
        -16    1    4    4    0    0  0.13419128134E+03  0.41993760084E+02 -0.21035140906E+03  0.25301875655E+03  0.00000000000E+00 0.  1.
<mgrwt>
<rscale>  2 0.28426727E+03</rscale>
<asrwt>0</asrwt>
<pdfrwt beam="1">  1       21 0.19367946E-01 0.28453238E+03</pdfrwt>
<pdfrwt beam="2">  1       21 0.12180542E+00 0.28453238E+03</pdfrwt>
<totfact> 0.11809979E+04</totfact>
</mgrwt>
</event>
<event>
12    2  0.4090627E-002  0.3172780E+03  0.7546771E-02  0.1077046E+00
         21   -1    0    0  501  502  0.00000000000E+00  0.00000000000E+00  0.67431885673E+03  0.67431885673E+03  0.00000000000E+00 0.  1.
         21   -1    0    0  502  503 -0.00000000000E+00 -0.00000000000E+00 -0.15874506667E+03  0.15874506667E+03  0.00000000000E+00 0.  1.
         -6    2    1    2    0  503 -0.25539660892E+03 -0.72967950702E+02  0.15272715413E+03  0.35106496802E+03  0.17137467282E+03 0.  0.
        -24    2    3    3    0    0 -0.63474119034E+02 -0.63283251121E+02  0.84643414460E+02  0.14713968479E+03  0.80323381219E+02 0.  0.
          6    2    1    2  501    0  0.25539660892E+03  0.72967950702E+02  0.36284663593E+03  0.48199895537E+03  0.17353259665E+03 0.  0.
         24    2    5    5    0    0  0.99292200186E+02  0.46359569262E+02  0.25944997043E+03  0.29281768562E+03  0.80123399668E+02 0.  0.
          5    1    5    5  501    0  0.15610440873E+03  0.26608381439E+02  0.10339666549E+03  0.18918126975E+03  0.47000000000E+01 0. -1.
        -15    1    6    6    0    0  0.82969644565E+02  0.68923646952E+02  0.20401984177E+03  0.23078493147E+03  0.17770000000E+01 0.  1.
         16    1    6    6    0    0  0.16322555621E+02 -0.22564077689E+02  0.55430128664E+02  0.62032754152E+02  0.00000000000E+00 0. -1.
         -5    1    3    3    0  503 -0.19192248989E+03 -0.96846995810E+01  0.68083739675E+02  0.20392528322E+03  0.47000000000E+01 0.  1.
         15    1    4    4    0    0 -0.15782094436E+01  0.89074894476E+01 -0.95632867724E+01  0.13283384215E+02  0.17770000000E+01 0. -1.
        -16    1    4    4    0    0 -0.61895909590E+02 -0.72190740568E+02  0.94206701232E+02  0.13385630058E+03  0.00000000000E+00 0.  1.
<mgrwt>
<rscale>  2 0.31698379E+03</rscale>
<asrwt>0</asrwt>
<pdfrwt beam="1">  1       21 0.10374136E+00 0.31727797E+03</pdfrwt>
<pdfrwt beam="2">  1       21 0.24422318E-01 0.31727797E+03</pdfrwt>
<totfact> 0.11121178E+04</totfact>
</mgrwt>
</event>
<event>
12    2  0.4090627E-002  0.4062799E+03  0.7546771E-02  0.1041691E+00
         21   -1    0    0  501  502  0.00000000000E+00  0.00000000000E+00  0.77563529971E+03  0.77563529971E+03  0.00000000000E+00 0.  1.
         21   -1    0    0  502  503 -0.00000000000E+00 -0.00000000000E+00 -0.24953832293E+03  0.24953832293E+03  0.00000000000E+00 0.  1.
         -6    2    1    2    0  503 -0.80149650913E+02 -0.35757784368E+03  0.65134000449E+02  0.41072244665E+03  0.17367961693E+03 0.  0.
        -24    2    3    3    0    0  0.99904557364E+01 -0.19449142622E+03 -0.74610733843E+01  0.21068606713E+03  0.80038910465E+02 0.  0.
          6    2    1    2  501    0  0.80149650913E+02  0.35757784368E+03  0.46096297633E+03  0.61445117599E+03  0.17543517692E+03 0.  0.
         24    2    5    5    0    0  0.11712243956E+03  0.21032035000E+03  0.27003259526E+03  0.37046704339E+03  0.79849309736E+02 0.  0.
          5    1    5    5  501    0 -0.36972788647E+02  0.14725749368E+03  0.19093038107E+03  0.24398413260E+03  0.47000000000E+01 0. -1.
        -15    1    6    6    0    0  0.83049838932E+01  0.60221601688E+02  0.10937873885E+03  0.12514983144E+03  0.17770000000E+01 0.  1.
         16    1    6    6    0    0  0.10881745567E+03  0.15009874831E+03  0.16065385641E+03  0.24531721195E+03  0.00000000000E+00 0. -1.
         -5    1    3    3    0  503 -0.90140106650E+02 -0.16308641746E+03  0.72595073833E+02  0.20003637952E+03  0.47000000000E+01 0.  1.
         15    1    4    4    0    0 -0.20658116983E+02 -0.35150795085E+02  0.21080659539E+02  0.45933518568E+02  0.17770000000E+01 0. -1.
        -16    1    4    4    0    0  0.30648572720E+02 -0.15934063113E+03 -0.28541732923E+02  0.16475254856E+03  0.00000000000E+00 0.  1.
<mgrwt>
<rscale>  2 0.40609106E+03</rscale>
<asrwt>0</asrwt>
<pdfrwt beam="1">  1       21 0.11932851E+00 0.40627993E+03</pdfrwt>
<pdfrwt beam="2">  1       21 0.38390512E-01 0.40627993E+03</pdfrwt>
<totfact> 0.30914072E+03</totfact>
</mgrwt>
</event>
<event>
12    2  0.4090627E-002  0.1752310E+03  0.7546771E-02  0.1172705E+00
         21   -1    0    0  503  502  0.00000000000E+00  0.00000000000E+00  0.26153252251E+03  0.26153252251E+03  0.00000000000E+00 0. -1.
         21   -1    0    0  501  503 -0.00000000000E+00 -0.00000000000E+00 -0.51015177267E+03  0.51015177267E+03  0.00000000000E+00 0. -1.
          6    2    1    2  501    0 -0.97121049170E+01  0.15961628231E+02 -0.46315520324E+03  0.49519554964E+03  0.17423200492E+03 0.  0.
         24    2    3    3    0    0  0.72027925759E+01  0.67818977382E+02 -0.19269858060E+03  0.21925321301E+03  0.79296497612E+02 0.  0.
         -6    2    1    2    0  502  0.97121049170E+01 -0.15961628231E+02  0.21453595308E+03  0.27648874554E+03  0.17341064756E+03 0.  0.
        -24    2    5    5    0    0  0.48316941809E+02 -0.62256517890E+02  0.11082300113E+03  0.15643868664E+03  0.77336435214E+02 0.  0.
          5    1    3    3  501    0 -0.16914897493E+02 -0.51857349150E+02 -0.27045662264E+03  0.27594233663E+03  0.47000000000E+01 0. -1.
        -15    1    4    4    0    0 -0.26499478529E+02 -0.23579221367E+01 -0.52903193703E+02  0.59242618039E+02  0.17770000000E+01 0.  1.
         16    1    4    4    0    0  0.33702271105E+02  0.70176899518E+02 -0.13979538690E+03  0.16001059497E+03  0.00000000000E+00 0. -1.
         -5    1    5    5    0  502 -0.38604836892E+02  0.46294889658E+02  0.10371295195E+03  0.12005005890E+03  0.47000000000E+01 0.  1.
         15    1    6    6    0    0  0.39647917892E+02  0.42257853004E+01  0.23396596103E+02  0.46264166402E+02  0.17770000000E+01 0. -1.
        -16    1    6    6    0    0  0.86690239169E+01 -0.66482303190E+02  0.87426405029E+02  0.11017452024E+03  0.00000000000E+00 0.  1.
<mgrwt>
<rscale>  2 0.17502644E+03</rscale>
<asrwt>0</asrwt>
<pdfrwt beam="1">  1       21 0.40235773E-01 0.17523096E+03</pdfrwt>
<pdfrwt beam="2">  1       21 0.78484887E-01 0.17523096E+03</pdfrwt>
<totfact> 0.86563714E+03</totfact>
</mgrwt>
</event>
<event>
12    2  0.4090627E-002  0.3063514E+03  0.7546771E-02  0.1082165E+00
         21   -1    0    0  503  502  0.00000000000E+00  0.00000000000E+00  0.90247760428E+02  0.90247760428E+02  0.00000000000E+00 0. -1.
         21   -1    0    0  501  503 -0.00000000000E+00 -0.00000000000E+00 -0.18896678083E+04  0.18896678083E+04  0.00000000000E+00 0. -1.
          6    2    1    2  501    0 -0.13650765471E+03 -0.21180619853E+03 -0.15645610849E+04  0.15942718017E+04  0.17422681650E+03 0.  0.
         24    2    3    3    0    0 -0.10484730469E+03 -0.17386930783E+03 -0.14812257917E+04  0.14972746546E+04  0.81105189867E+02 0.  0.
         -6    2    1    2    0  502  0.13650765471E+03  0.21180619853E+03 -0.23485896294E+03  0.38564376706E+03  0.17339601225E+03 0.  0.
        -24    2    5    5    0    0  0.10680230312E+03  0.15334401704E+03 -0.87023443533E+02  0.22384863309E+03  0.87258302164E+02 0.  0.
          5    1    3    3  501    0 -0.31660350022E+02 -0.37936890707E+02 -0.83335293204E+02  0.96997147037E+02  0.47000000000E+01 0. -1.
        -15    1    4    4    0    0 -0.92687693927E+02 -0.11803573224E+03 -0.12550334128E+04  0.12639760550E+04  0.17770000000E+01 0.  1.
         16    1    4    4    0    0 -0.12159610766E+02 -0.55833575586E+02 -0.22619237894E+03  0.23329859963E+03  0.00000000000E+00 0. -1.
         -5    1    5    5    0  502  0.29705351597E+02  0.58462181491E+02 -0.14783551941E+03  0.16179513397E+03  0.47000000000E+01 0.  1.
         15    1    6    6    0    0  0.58031807524E+02  0.14470347313E+03 -0.74275884393E+02  0.17270451804E+03  0.17770000000E+01 0. -1.
        -16    1    6    6    0    0  0.48770495594E+02  0.86405439083E+01 -0.12747559140E+02  0.51144115043E+02  0.00000000000E+00 0.  1.
<mgrwt>
<rscale>  2 0.30623341E+03</rscale>
<asrwt>0</asrwt>
<pdfrwt beam="1">  1       21 0.13884272E-01 0.30635141E+03</pdfrwt>
<pdfrwt beam="2">  1       21 0.29071810E+00 0.30635141E+03</pdfrwt>
<totfact> 0.15556831E+03</totfact>
</mgrwt>
</event>
<event>
12    2  0.4090627E-002  0.2241159E+03  0.7546771E-02  0.1131161E+00
         21   -1    0    0  503  502  0.00000000000E+00  0.00000000000E+00  0.16208526072E+04  0.16208526072E+04  0.00000000000E+00 0.  1.
         21   -1    0    0  501  503 -0.00000000000E+00 -0.00000000000E+00 -0.41215667257E+02  0.41215667257E+02  0.00000000000E+00 0.  1.
          6    2    1    2  501    0 -0.15482922289E+02 -0.14050423474E+03  0.37338525493E+03  0.43548192169E+03  0.17391605635E+03 0.  0.
         24    2    3    3    0    0 -0.57120939659E+00 -0.56576016474E+02  0.32002683092E+03  0.33480661977E+03  0.80480607708E+02 0.  0.
         -6    2    1    2    0  502  0.15482922289E+02  0.14050423474E+03  0.12062516851E+04  0.12265863528E+04  0.17172592214E+03 0.  0.
        -24    2    5    5    0    0 -0.33837931128E+02  0.73039065832E+02  0.95417510342E+03  0.96097613349E+03  0.80902969222E+02 0.  0.
          5    1    3    3  501    0 -0.14911712892E+02 -0.83928218265E+02  0.53358424009E+02  0.10067530191E+03  0.47000000000E+01 0. -1.
        -15    1    4    4    0    0 -0.14346750229E+02 -0.65363933342E+02  0.15327662529E+03  0.16725774904E+03  0.17770000000E+01 0.  1.
         16    1    4    4    0    0  0.13775540832E+02  0.87879168680E+01  0.16675020562E+03  0.16754887073E+03  0.00000000000E+00 0. -1.
         -5    1    5    5    0  502  0.49320853417E+02  0.67465168907E+02  0.25207658163E+03  0.26561021932E+03  0.47000000000E+01 0.  1.
         15    1    6    6    0    0 -0.13270254636E+02  0.40512084513E+02  0.15190253908E+03  0.15778107541E+03  0.17770000000E+01 0. -1.
        -16    1    6    6    0    0 -0.20567676492E+02  0.32526981319E+02  0.80227256434E+03  0.80319505808E+03  0.00000000000E+00 0.  1.
<mgrwt>
<rscale>  2 0.22369092E+03</rscale>
<asrwt>0</asrwt>
<pdfrwt beam="1">  1       21 0.24936189E+00 0.22411594E+03</pdfrwt>
<pdfrwt beam="2">  1       21 0.63408731E-02 0.22411594E+03</pdfrwt>
<totfact> 0.11698833E+04</totfact>
</mgrwt>
</event>
<event>
12    2  0.4090627E-002  0.1863406E+03  0.7546771E-02  0.1165240E+00
         21   -1    0    0  503  502  0.00000000000E+00  0.00000000000E+00  0.18375731640E+03  0.18375731640E+03  0.00000000000E+00 0. -1.
         21   -1    0    0  501  503 -0.00000000000E+00 -0.00000000000E+00 -0.17579430103E+03  0.17579430103E+03  0.00000000000E+00 0. -1.
          6    2    1    2  501    0  0.12833199914E+02 -0.67995693553E+02 -0.97053929746E+01  0.17237528597E+03  0.15757835892E+03 0.  0.
         24    2    3    3    0    0  0.22402487548E+02 -0.18942188884E+02  0.47329631002E+02  0.96395673272E+02  0.78685156711E+02 0.  0.
         -6    2    1    2    0  502 -0.12833199914E+02  0.67995693553E+02  0.17668408348E+02  0.18717633146E+03  0.17301647622E+03 0.  0.
        -24    2    5    5    0    0  0.37336933356E+02 -0.11847894998E+02 -0.58404005865E+01  0.89878875163E+02  0.80682604774E+02 0.  0.
          5    1    3    3  501    0 -0.95692876345E+01 -0.49053504669E+02 -0.57035023977E+02  0.75979612701E+02  0.47000000000E+01 0. -1.
        -15    1    4    4    0    0 -0.28531287089E+02  0.25332609837E+01  0.16466746134E+02  0.33087206159E+02  0.17770000000E+01 0.  1.
         16    1    4    4    0    0  0.50933774637E+02 -0.21475449868E+02  0.30862884868E+02  0.63308467113E+02  0.00000000000E+00 0. -1.
         -5    1    5    5    0  502 -0.50170133270E+02  0.79843588550E+02  0.23508808935E+02  0.97297456300E+02  0.47000000000E+01 0.  1.
         15    1    6    6    0    0  0.61470655598E+02 -0.24983390096E+01 -0.13250997255E+02  0.62957365372E+02  0.17770000000E+01 0. -1.
        -16    1    6    6    0    0 -0.24133722242E+02 -0.93495559879E+01  0.74105966682E+01  0.26921509790E+02  0.00000000000E+00 0.  1.
<mgrwt>
<rscale>  2 0.18267408E+03</rscale>
<asrwt>0</asrwt>
<pdfrwt beam="1">  1       21 0.28270356E-01 0.18634057E+03</pdfrwt>
<pdfrwt beam="2">  1       21 0.27045277E-01 0.18634057E+03</pdfrwt>
<totfact> 0.15610301E+05</totfact>
</mgrwt>
</event>
<event>
12    2  0.4090627E-002  0.1762879E+03  0.7546771E-02  0.1173269E+00
         21   -1    0    0  501  502  0.00000000000E+00  0.00000000000E+00  0.17609415624E+04  0.17609415624E+04  0.00000000000E+00 0. -1.
         21   -1    0    0  502  503 -0.00000000000E+00 -0.00000000000E+00 -0.52315113164E+02  0.52315113164E+02  0.00000000000E+00 0. -1.
         -6    2    1    2    0  503  0.19914930536E+01  0.13350522594E+00  0.11455201696E+03  0.21023700425E+03  0.17627662777E+03 0.  0.
        -24    2    3    3    0    0  0.42777679548E+02  0.54129129633E+02  0.52110069099E+02  0.11804086921E+03  0.80363517595E+02 0.  0.
          6    2    1    2  501    0 -0.19914930536E+01 -0.13350522594E+00  0.15940744322E+04  0.16030196713E+04  0.16909993231E+03 0.  0.
         24    2    5    5    0    0  0.12141641130E+02 -0.51971907437E+02  0.62779369012E+03  0.63523481501E+03  0.80931169726E+02 0.  0.
          5    1    5    5  501    0 -0.14133134184E+02  0.51838402211E+02  0.96628074213E+03  0.96778485628E+03  0.47000000000E+01 0. -1.
        -15    1    6    6    0    0  0.39350545899E+02 -0.49616877094E+02  0.52744906410E+03  0.53124003322E+03  0.17770000000E+01 0.  1.
         16    1    6    6    0    0 -0.27208904769E+02 -0.23550303428E+01  0.10034462602E+03  0.10399478178E+03  0.00000000000E+00 0. -1.
         -5    1    3    3    0  503 -0.40786186495E+02 -0.53995624407E+02  0.62441947861E+02  0.92196135041E+02  0.47000000000E+01 0.  1.
         15    1    4    4    0    0  0.30144265158E+02  0.70669854034E+02  0.19385494982E+02  0.79258186554E+02  0.17770000000E+01 0. -1.
        -16    1    4    4    0    0  0.12633414390E+02 -0.16540724402E+02  0.32724574117E+02  0.38782682657E+02  0.00000000000E+00 0.  1.
<mgrwt>
<rscale>  2 0.17446582E+03</rscale>
<asrwt>0</asrwt>
<pdfrwt beam="1">  1       21 0.27091404E+00 0.17628793E+03</pdfrwt>
<pdfrwt beam="2">  1       21 0.80484803E-02 0.17628793E+03</pdfrwt>
<totfact> 0.60722460E+03</totfact>
</mgrwt>
</event>
<event>
12    2  0.4090627E-002  0.1780406E+03  0.7546771E-02  0.1169884E+00
         21   -1    0    0  501  502  0.00000000000E+00  0.00000000000E+00  0.17180204676E+03  0.17180204676E+03  0.00000000000E+00 0. -1.
         21   -1    0    0  502  503 -0.00000000000E+00 -0.00000000000E+00 -0.45169528639E+03  0.45169528639E+03  0.00000000000E+00 0. -1.
         -6    2    1    2    0  503  0.34584347635E+02 -0.22806243460E+02 -0.37992656681E+03  0.41927897526E+03  0.17243683217E+03 0.  0.
        -24    2    3    3    0    0  0.12626514389E+02 -0.74536175157E+02 -0.32501199004E+03  0.34056536135E+03  0.68094797199E+02 0.  0.
          6    2    1    2  501    0 -0.34584347635E+02  0.22806243460E+02  0.10003332717E+03  0.20421835789E+03  0.17315388911E+03 0.  0.
         24    2    5    5    0    0 -0.78161042790E+02 -0.22844586404E+02  0.52327195878E+02  0.12496628164E+03  0.79040574261E+02 0.  0.
          5    1    5    5  501    0  0.43576695155E+02  0.45650829864E+02  0.47706131294E+02  0.79252076256E+02  0.47000000000E+01 0. -1.
        -15    1    6    6    0    0 -0.70112382736E+02 -0.93773441217E+01  0.44144949403E+00  0.70760394306E+02  0.17770000000E+01 0.  1.
         16    1    6    6    0    0 -0.80486600541E+01 -0.13467242282E+02  0.51885746384E+02  0.54205887330E+02  0.00000000000E+00 0. -1.
         -5    1    3    3    0  503  0.21957833246E+02  0.51729931698E+02 -0.54914576762E+02  0.78713613913E+02  0.47000000000E+01 0.  1.
         15    1    4    4    0    0  0.57603026812E+00 -0.64840199103E+01 -0.17790557274E+03  0.17803349366E+03  0.17770000000E+01 0. -1.
        -16    1    4    4    0    0  0.12050484121E+02 -0.68052155247E+02 -0.14710641731E+03  0.16253186769E+03  0.00000000000E+00 0.  1.
<mgrwt>
<rscale>  2 0.17786606E+03</rscale>
<asrwt>0</asrwt>
<pdfrwt beam="1">  1       21 0.26431084E-01 0.17804064E+03</pdfrwt>
<pdfrwt beam="2">  1       21 0.69491582E-01 0.17804064E+03</pdfrwt>
<totfact> 0.25850575E+04</totfact>
</mgrwt>
</event>
<event>
12    2  0.4090627E-002  0.1778931E+03  0.7546771E-02  0.1170402E+00
         21   -1    0    0  501  502  0.00000000000E+00  0.00000000000E+00  0.81252043685E+03  0.81252043685E+03  0.00000000000E+00 0. -1.
         21   -1    0    0  502  503 -0.00000000000E+00 -0.00000000000E+00 -0.38976761937E+02  0.38976761937E+02  0.00000000000E+00 0. -1.
         -6    2    1    2    0  503  0.37959765837E+01  0.29498513588E+02  0.43306653430E+03  0.46734797843E+03  0.17315582020E+03 0.  0.
        -24    2    3    3    0    0  0.51633709650E+02  0.59775324631E+02  0.34062514326E+03  0.35884620532E+03  0.80659664271E+02 0.  0.
          6    2    1    2  501    0 -0.37959765837E+01 -0.29498513588E+02  0.34047714061E+03  0.38414922036E+03  0.17538919146E+03 0.  0.
         24    2    5    5    0    0 -0.18562530644E+02  0.93971503187E+01  0.33060829676E+03  0.34113285291E+03  0.81467192589E+02 0.  0.
          5    1    5    5  501    0  0.14766554060E+02 -0.38895663907E+02  0.98688438522E+01  0.43016367450E+02  0.47000000000E+01 0. -1.
        -15    1    6    6    0    0 -0.14047177922E+02  0.45300150174E+02  0.20452327963E+03  0.20995798736E+03  0.17770000000E+01 0.  1.
         16    1    6    6    0    0 -0.45153527223E+01 -0.35902999855E+02  0.12608501713E+03  0.13117486555E+03  0.00000000000E+00 0. -1.
         -5    1    3    3    0  503 -0.47837733066E+02 -0.30276811043E+02  0.92441391037E+02  0.10850177311E+03  0.47000000000E+01 0.  1.
         15    1    4    4    0    0  0.53248044135E+02  0.15434404750E+01  0.19046269696E+03  0.19778001182E+03  0.17770000000E+01 0. -1.
        -16    1    4    4    0    0 -0.16143344852E+01  0.58231884156E+02  0.15016244630E+03  0.16106619350E+03  0.00000000000E+00 0.  1.
<mgrwt>
<rscale>  2 0.17734010E+03</rscale>
<asrwt>0</asrwt>
<pdfrwt beam="1">  1       21 0.12500313E+00 0.17789306E+03</pdfrwt>
<pdfrwt beam="2">  1       21 0.59964255E-02 0.17789306E+03</pdfrwt>
<totfact> 0.94773543E+04</totfact>
</mgrwt>
</event>
<event>
12    2  0.4090627E-002  0.2251234E+03  0.7546771E-02  0.1130353E+00
         21   -1    0    0  503  502  0.00000000000E+00  0.00000000000E+00  0.29371848710E+04  0.29371848710E+04  0.00000000000E+00 0. -1.
         21   -1    0    0  501  503 -0.00000000000E+00 -0.00000000000E+00 -0.24620322182E+02  0.24620322182E+02  0.00000000000E+00 0. -1.
          6    2    1    2  501    0 -0.13543165687E+03  0.45701207439E+02  0.64381145155E+03  0.68203645502E+03  0.17392586580E+03 0.  0.
         24    2    3    3    0    0 -0.16277896489E+03  0.17449230114E+02  0.51289649038E+03  0.54526340747E+03  0.86301255167E+02 0.  0.
         -6    2    1    2    0  502  0.13543165687E+03 -0.45701207439E+02  0.22687530973E+04  0.22797687382E+04  0.17226302292E+03 0.  0.
        -24    2    5    5    0    0  0.12509519024E+03 -0.18440086165E+02  0.21978225335E+04  0.22029361529E+04  0.80715312979E+02 0.  0.
          5    1    3    3  501    0  0.27347308017E+02  0.28251977325E+02  0.13091496117E+03  0.13677304755E+03  0.47000000000E+01 0. -1.
        -15    1    4    4    0    0 -0.23021946072E+02 -0.28875046285E+02  0.12544262654E+03  0.13077763028E+03  0.17770000000E+01 0.  1.
         16    1    4    4    0    0 -0.13975701882E+03  0.46324276399E+02  0.38745386384E+03  0.41448577719E+03  0.00000000000E+00 0. -1.
         -5    1    5    5    0  502  0.10336466634E+02 -0.27261121274E+02  0.70930563795E+02  0.76832585248E+02  0.47000000000E+01 0.  1.
         15    1    6    6    0    0 -0.67697419115E+01  0.12600740383E+02  0.18587463699E+03  0.18643268616E+03  0.17770000000E+01 0. -1.
        -16    1    6    6    0    0  0.13186493215E+03 -0.31040826548E+02  0.20119478965E+04  0.20165034668E+04  0.00000000000E+00 0.  1.
<mgrwt>
<rscale>  2 0.22480216E+03</rscale>
<asrwt>0</asrwt>
<pdfrwt beam="1">  1       21 0.45187432E+00 0.22512339E+03</pdfrwt>
<pdfrwt beam="2">  1       21 0.37877442E-02 0.22512339E+03</pdfrwt>
<totfact> 0.16571396E+03</totfact>
</mgrwt>
</event>
<event>
12    2  0.4090627E-002  0.1890644E+03  0.7546771E-02  0.1159352E+00
         21   -1    0    0  503  502  0.00000000000E+00  0.00000000000E+00  0.26617628098E+03  0.26617628098E+03  0.00000000000E+00 0.  1.
         21   -1    0    0  501  503 -0.00000000000E+00 -0.00000000000E+00 -0.16527930440E+03  0.16527930440E+03  0.00000000000E+00 0.  1.
          6    2    1    2  501    0  0.70258650497E+02 -0.19139352539E+01 -0.43189819292E+02  0.19374497535E+03  0.17530491683E+03 0.  0.
         24    2    3    3    0    0  0.47435878221E+02 -0.55435417543E+02 -0.72554538715E+02  0.12840123236E+03  0.76807989973E+02 0.  0.
         -6    2    1    2    0  502 -0.70258650497E+02  0.19139352539E+01  0.14408679588E+03  0.23771061003E+03  0.17551463830E+03 0.  0.
        -24    2    5    5    0    0 -0.27954951272E+02  0.50694956637E+02  0.12492645154E+03  0.17019468739E+03  0.10004076864E+03 0.  0.
          5    1    3    3  501    0  0.22822772276E+02  0.53521482289E+02  0.29364719423E+02  0.65343742987E+02  0.47000000000E+01 0. -1.
        -15    1    4    4    0    0  0.62092336439E+02 -0.59047856954E+02 -0.44560244259E+02  0.96596484163E+02  0.17770000000E+01 0.  1.
         16    1    4    4    0    0 -0.14656458218E+02  0.36124394113E+01 -0.27994294456E+02  0.31804748200E+02  0.00000000000E+00 0. -1.
         -5    1    5    5    0  502 -0.42303699224E+02 -0.48781021383E+02  0.19160344337E+02  0.67515922643E+02  0.47000000000E+01 0.  1.
         15    1    6    6    0    0 -0.18350343576E+01  0.13895138114E+01 -0.17233380562E+02  0.17476991569E+02  0.17770000000E+01 0. -1.
        -16    1    6    6    0    0 -0.26119916915E+02  0.49305442825E+02  0.14215983210E+03  0.15271769582E+03  0.00000000000E+00 0.  1.
<mgrwt>
<rscale>  2 0.18901566E+03</rscale>
<asrwt>0</asrwt>
<pdfrwt beam="1">  1       21 0.40950197E-01 0.18906435E+03</pdfrwt>
<pdfrwt beam="2">  1       21 0.25427585E-01 0.18906435E+03</pdfrwt>
<totfact> 0.84350747E+04</totfact>
</mgrwt>
</event>
<event>
12    2  0.4090627E-002  0.1791563E+03  0.7546771E-02  0.1169338E+00
         21   -1    0    0  503  502  0.00000000000E+00  0.00000000000E+00  0.59056951875E+02  0.59056951875E+02  0.00000000000E+00 0. -1.
         21   -1    0    0  501  503 -0.00000000000E+00 -0.00000000000E+00 -0.12134019979E+04  0.12134019979E+04  0.00000000000E+00 0. -1.
          6    2    1    2  501    0 -0.13159677228E+02  0.30368202888E+02 -0.10550846547E+04  0.10701871791E+04  0.17607261293E+03 0.  0.
         24    2    3    3    0    0 -0.74285984215E+02  0.37433942637E+02 -0.72649275710E+03  0.73585040995E+03  0.82245925079E+02 0.  0.
         -6    2    1    2    0  502  0.13159677228E+02 -0.30368202888E+02 -0.99260391329E+02  0.20227177061E+03  0.17310643849E+03 0.  0.
        -24    2    5    5    0    0  0.14445555986E+02 -0.72020959709E+02 -0.17938056562E+02  0.11077303965E+03  0.80951835772E+02 0.  0.
          5    1    3    3  501    0  0.61126306987E+02 -0.70657397487E+01 -0.32859189758E+03  0.33433676920E+03  0.47000000000E+01 0. -1.
        -15    1    4    4    0    0 -0.43761971045E+02  0.66417977159E+01 -0.12180683889E+03  0.12961206470E+03  0.17770000000E+01 0.  1.
         16    1    4    4    0    0 -0.30524013171E+02  0.30792144921E+02 -0.60468591820E+03  0.60623834524E+03  0.00000000000E+00 0. -1.
         -5    1    5    5    0  502 -0.12858787581E+01  0.41652756821E+02 -0.81322334767E+02  0.91498730958E+02  0.47000000000E+01 0.  1.
         15    1    6    6    0    0  0.46341993428E+02 -0.34739429142E+02  0.15878432271E+01  0.57966259730E+02  0.17770000000E+01 0. -1.
        -16    1    6    6    0    0 -0.31896437442E+02 -0.37281530567E+02 -0.19525899789E+02  0.52806779920E+02  0.00000000000E+00 0.  1.
<mgrwt>
<rscale>  2 0.17842322E+03</rscale>
<asrwt>0</asrwt>
<pdfrwt beam="1">  1       21 0.90856847E-02 0.17915627E+03</pdfrwt>
<pdfrwt beam="2">  1       21 0.18667724E+00 0.17915627E+03</pdfrwt>
<totfact> 0.15928508E+04</totfact>
</mgrwt>
</event>
<event>
12    2  0.4090627E-002  0.1755291E+03  0.7546771E-02  0.1173086E+00
         21   -1    0    0  503  502  0.00000000000E+00  0.00000000000E+00  0.87015639138E+03  0.87015639138E+03  0.00000000000E+00 0. -1.
         21   -1    0    0  501  503 -0.00000000000E+00 -0.00000000000E+00 -0.22611706918E+03  0.22611706918E+03  0.00000000000E+00 0. -1.
          6    2    1    2  501    0  0.10129147635E+02 -0.14541470360E+02 -0.18279406049E+03  0.25101378719E+03  0.17111457803E+03 0.  0.
         24    2    3    3    0    0  0.66174363107E+02 -0.81078112261E+01 -0.15636531458E+03  0.18853957845E+03  0.81561498897E+02 0.  0.
         -6    2    1    2    0  502 -0.10129147635E+02  0.14541470360E+02  0.82683338269E+03  0.84525967338E+03  0.17463223846E+03 0.  0.
        -24    2    5    5    0    0 -0.67901043005E+02  0.63628162931E+01  0.65702243729E+03  0.66564249866E+03  0.82160914291E+02 0.  0.
          5    1    3    3  501    0 -0.56045215472E+02 -0.64336591342E+01 -0.26428745910E+02  0.62474208739E+02  0.47000000000E+01 0. -1.
        -15    1    4    4    0    0  0.24133030598E+02 -0.23893495175E+02 -0.10009696766E+02  0.35449316437E+02  0.17770000000E+01 0.  1.
         16    1    4    4    0    0  0.42041332509E+02  0.15785683949E+02 -0.14635561781E+03  0.15309026201E+03  0.00000000000E+00 0. -1.
         -5    1    5    5    0  502  0.57771895370E+02  0.81786540671E+01  0.16981094540E+03  0.17961717472E+03  0.47000000000E+01 0.  1.
         15    1    6    6    0    0 -0.16986109915E+02 -0.28542001990E+02  0.10409732856E+03  0.10928213646E+03  0.17770000000E+01 0. -1.
        -16    1    6    6    0    0 -0.50914933090E+02  0.34904818283E+02  0.55292510874E+03  0.55636036220E+03  0.00000000000E+00 0.  1.
<mgrwt>
<rscale>  2 0.17464767E+03</rscale>
<asrwt>0</asrwt>
<pdfrwt beam="1">  1       21 0.13387021E+00 0.17552912E+03</pdfrwt>
<pdfrwt beam="2">  1       21 0.34787242E-01 0.17552912E+03</pdfrwt>
<totfact> 0.32465538E+03</totfact>
</mgrwt>
</event>
<event>
12    2  0.4090627E-002  0.3090334E+03  0.7546771E-02  0.1080840E+00
         21   -1    0    0  501  502  0.00000000000E+00  0.00000000000E+00  0.57263069610E+03  0.57263069610E+03  0.00000000000E+00 0.  1.
         21   -1    0    0  502  503 -0.00000000000E+00 -0.00000000000E+00 -0.16718238143E+03  0.16718238143E+03  0.00000000000E+00 0. -1.
         -6    2    1    2    0  503 -0.21615192482E+03  0.13619650445E+03  0.22382981772E+03  0.38157755184E+03  0.17386919895E+03 0.  0.
        -24    2    3    3    0    0 -0.19096517839E+03  0.15651486771E+03  0.14737830177E+03  0.29842628985E+03  0.79832847038E+02 0.  0.
          6    2    1    2  501    0  0.21615192482E+03 -0.13619650445E+03  0.18161849695E+03  0.35823552568E+03  0.17342511640E+03 0.  0.
         24    2    5    5    0    0  0.20072161131E+03 -0.73065364178E+02  0.18479089566E+03  0.29299911284E+03  0.77930047576E+02 0.  0.
          5    1    5    5  501    0  0.15430313503E+02 -0.63131140275E+02 -0.31723987049E+01  0.65236412844E+02  0.47000000000E+01 0. -1.
        -15    1    6    6    0    0  0.10243209580E+03  0.23025896071E+01  0.69776031170E+02  0.12397374087E+03  0.17770000000E+01 0.  1.
         16    1    6    6    0    0  0.98289515509E+02 -0.75367953786E+02  0.11501486449E+03  0.16902537197E+03  0.00000000000E+00 0. -1.
         -5    1    3    3    0  503 -0.25186746431E+02 -0.20318363262E+02  0.76451515946E+02  0.83151261998E+02  0.47000000000E+01 0.  1.
         15    1    4    4    0    0 -0.10858008958E+03  0.60445347345E+02  0.34851517578E+02  0.12907773578E+03  0.17770000000E+01 0. -1.
        -16    1    4    4    0    0 -0.82385088807E+02  0.96069520370E+02  0.11252678419E+03  0.16934855406E+03  0.00000000000E+00 0.  1.
<mgrwt>
<rscale>  2 0.30897097E+03</rscale>
<asrwt>0</asrwt>
<pdfrwt beam="1">  1       21 0.88097029E-01 0.30903340E+03</pdfrwt>
<pdfrwt beam="2">  1       21 0.25720367E-01 0.30903340E+03</pdfrwt>
<totfact> 0.14900007E+04</totfact>
</mgrwt>
</event>
<event>
12    2  0.4090627E-002  0.1824437E+03  0.7546771E-02  0.1166400E+00
         21   -1    0    0  503  502  0.00000000000E+00  0.00000000000E+00  0.25329548054E+03  0.25329548054E+03  0.00000000000E+00 0.  1.
         21   -1    0    0  501  503 -0.00000000000E+00 -0.00000000000E+00 -0.14176253955E+03  0.14176253955E+03  0.00000000000E+00 0.  1.
          6    2    1    2  501    0  0.48286567300E+02 -0.26834775972E+02 -0.38546838928E+01  0.18248436816E+03  0.17387923468E+03 0.  0.
         24    2    3    3    0    0  0.23990270233E+02 -0.74105578603E+02 -0.31419785538E+02  0.12242803077E+03  0.89074406810E+02 0.  0.
         -6    2    1    2    0  502 -0.48286567300E+02  0.26834775972E+02  0.11538762488E+03  0.21257365193E+03  0.16976912480E+03 0.  0.
        -24    2    5    5    0    0  0.23212811804E+02 -0.17849427922E+02  0.97086652894E+02  0.12616847347E+03  0.75068161145E+02 0.  0.
          5    1    3    3  501    0  0.24296297067E+02  0.47270802631E+02  0.27565101645E+02  0.60056337395E+02  0.47000000000E+01 0. -1.
        -15    1    4    4    0    0 -0.11827444285E+02 -0.32956030171E+02  0.25678394159E+02  0.43457174535E+02  0.17770000000E+01 0.  1.
         16    1    4    4    0    0  0.35817714518E+02 -0.41149548432E+02 -0.57098179697E+02  0.78970856233E+02  0.00000000000E+00 0. -1.
         -5    1    5    5    0  502 -0.71499379104E+02  0.44684203894E+02  0.18300971986E+02  0.86405178465E+02  0.47000000000E+01 0.  1.
         15    1    6    6    0    0 -0.99053627506E+01 -0.39595445075E+02  0.52479393963E+02  0.66506841766E+02  0.17770000000E+01 0. -1.
        -16    1    6    6    0    0  0.33118174555E+02  0.21746017153E+02  0.44607258931E+02  0.59661631701E+02  0.00000000000E+00 0.  1.
<mgrwt>
<rscale>  2 0.18145748E+03</rscale>
<asrwt>0</asrwt>
<pdfrwt beam="1">  1       21 0.38968535E-01 0.18244365E+03</pdfrwt>
<pdfrwt beam="2">  1       21 0.21809621E-01 0.18244365E+03</pdfrwt>
<totfact> 0.12502522E+05</totfact>
</mgrwt>
</event>
<event>
12    2  0.4090627E-002  0.2836638E+03  0.7546771E-02  0.1093748E+00
         21   -1    0    0  501  502  0.00000000000E+00  0.00000000000E+00  0.56003519750E+03  0.56003519750E+03  0.00000000000E+00 0.  1.
         21   -1    0    0  502  503 -0.00000000000E+00 -0.00000000000E+00 -0.15897078406E+03  0.15897078406E+03  0.00000000000E+00 0.  1.
         -6    2    1    2    0  503 -0.18352077493E+03  0.12890918408E+03  0.88544065856E+02  0.29716186815E+03  0.17368843287E+03 0.  0.
        -24    2    3    3    0    0 -0.19074645533E+02  0.71890211010E+02  0.26141798157E+02  0.11220288410E+03  0.79837641806E+02 0.  0.
          6    2    1    2  501    0  0.18352077493E+03 -0.12890918408E+03  0.31252034758E+03  0.42184411341E+03  0.17316476488E+03 0.  0.
         24    2    5    5    0    0  0.13545146468E+02 -0.37504288251E+02  0.93800323920E+02  0.13011288779E+03  0.80875337225E+02 0.  0.
          5    1    5    5  501    0  0.16997562847E+03 -0.91404895827E+02  0.21872002366E+03  0.29173122562E+03  0.47000000000E+01 0. -1.
        -15    1    6    6    0    0  0.41857893882E+02 -0.39240229952E+02  0.42254264127E+02  0.71277342072E+02  0.17770000000E+01 0.  1.
         16    1    6    6    0    0 -0.28312747414E+02  0.17359417004E+01  0.51546059794E+02  0.58835545718E+02  0.00000000000E+00 0. -1.
         -5    1    3    3    0  503 -0.16444612940E+03  0.57018973068E+02  0.62402267699E+02  0.18495898404E+03  0.47000000000E+01 0.  1.
         15    1    4    4    0    0  0.10347836992E+02  0.12917123122E+02 -0.24128777124E+02  0.29313570487E+02  0.17770000000E+01 0. -1.
        -16    1    4    4    0    0 -0.29422482525E+02  0.58973087888E+02  0.50270575281E+02  0.82889313618E+02  0.00000000000E+00 0.  1.
<mgrwt>
<rscale>  2 0.28358363E+03</rscale>
<asrwt>0</asrwt>
<pdfrwt beam="1">  1       21 0.86159260E-01 0.28366375E+03</pdfrwt>
<pdfrwt beam="2">  1       21 0.24457044E-01 0.28366375E+03</pdfrwt>
<totfact> 0.17480033E+04</totfact>
</mgrwt>
</event>
<event>
12    2  0.4090627E-002  0.1742224E+03  0.7546771E-02  0.1173553E+00
         21   -1    0    0  501  502  0.00000000000E+00  0.00000000000E+00  0.96211010317E+02  0.96211010317E+02  0.00000000000E+00 0. -1.
         21   -1    0    0  502  503 -0.00000000000E+00 -0.00000000000E+00 -0.13827034543E+04  0.13827034543E+04  0.00000000000E+00 0. -1.
         -6    2    1    2    0  503 -0.13954107301E+02  0.34423461341E+01 -0.12929087201E+04  0.13045739590E+04  0.17347532719E+03 0.  0.
        -24    2    3    3    0    0  0.39292653882E+02  0.71409120974E+01 -0.11196437430E+04  0.11232131604E+04  0.80067392070E+02 0.  0.
          6    2    1    2  501    0  0.13954107301E+02 -0.34423461341E+01  0.64162761111E+01  0.17434050562E+03  0.17362855883E+03 0.  0.
         24    2    5    5    0    0 -0.35767747446E+02  0.28594939748E+02  0.45082677374E+02  0.10351797310E+03  0.81157381787E+02 0.  0.
          5    1    5    5  501    0  0.49721854747E+02 -0.32037285882E+02 -0.38666401263E+02  0.70822532522E+02  0.47000000000E+01 0. -1.
        -15    1    6    6    0    0 -0.18427135741E+02  0.21736857810E+02 -0.20620708273E+02  0.35219620353E+02  0.17770000000E+01 0.  1.
         16    1    6    6    0    0 -0.17340611705E+02  0.68580819376E+01  0.65703385647E+02  0.68298352745E+02  0.00000000000E+00 0. -1.
         -5    1    3    3    0  503 -0.53246761183E+02 -0.36985659634E+01 -0.17326497713E+03  0.18136079859E+03  0.47000000000E+01 0.  1.
         15    1    4    4    0    0  0.21096900683E+02 -0.24684358375E+02 -0.89557922049E+03  0.89616945645E+03  0.17770000000E+01 0. -1.
        -16    1    4    4    0    0  0.18195753199E+02  0.31825270472E+02 -0.22406452248E+03  0.22704370396E+03  0.00000000000E+00 0.  1.
<mgrwt>
<rscale>  2 0.17418421E+03</rscale>
<asrwt>0</asrwt>
<pdfrwt beam="1">  1       21 0.14801695E-01 0.17422240E+03</pdfrwt>
<pdfrwt beam="2">  1       21 0.21272360E+00 0.17422240E+03</pdfrwt>
<totfact> 0.45680267E+03</totfact>
</mgrwt>
</event>
<event>
12    2  0.4090627E-002  0.1801564E+03  0.7546771E-02  0.1167939E+00
         21   -1    0    0  501  502  0.00000000000E+00  0.00000000000E+00  0.55066366100E+03  0.55066366100E+03  0.00000000000E+00 0.  1.
         21   -1    0    0  502  503 -0.00000000000E+00 -0.00000000000E+00 -0.90878708275E+02  0.90878708275E+02  0.00000000000E+00 0.  1.
         -6    2    1    2    0  503 -0.41629223984E+02  0.17774224300E+02  0.38093595238E+02  0.18297947786E+03  0.17315152896E+03 0.  0.
        -24    2    3    3    0    0  0.43741059653E+02  0.25580124341E+01  0.10863578986E+02  0.91967488444E+02  0.80126012350E+02 0.  0.
          6    2    1    2  501    0  0.41629223984E+02 -0.17774224300E+02  0.42169135749E+03  0.45856289142E+03  0.17437720341E+03 0.  0.
         24    2    5    5    0    0 -0.22973558224E+02  0.18797560888E+02  0.32811437330E+03  0.33902312017E+03  0.79978130574E+02 0.  0.
          5    1    5    5  501    0  0.64602782208E+02 -0.36571785188E+02  0.93576984190E+02  0.11953977125E+03  0.47000000000E+01 0. -1.
        -15    1    6    6    0    0  0.59914926279E+01  0.28849110418E+02  0.42369854238E+02  0.51638468538E+02  0.17770000000E+01 0.  1.
         16    1    6    6    0    0 -0.28965050852E+02 -0.10051549530E+02  0.28574451906E+03  0.28738465163E+03  0.00000000000E+00 0. -1.
         -5    1    3    3    0  503 -0.85370283637E+02  0.15216211866E+02  0.27230016252E+02  0.91011989413E+02  0.47000000000E+01 0.  1.
         15    1    4    4    0    0  0.42945191846E+02  0.36703299579E+02  0.12056085212E+02  0.57792115572E+02  0.17770000000E+01 0. -1.
        -16    1    4    4    0    0  0.79586780706E+00 -0.34145287145E+02 -0.11925062262E+01  0.34175372871E+02  0.00000000000E+00 0.  1.
<mgrwt>
<rscale>  2 0.17985913E+03</rscale>
<asrwt>0</asrwt>
<pdfrwt beam="1">  1       21 0.84717484E-01 0.18015639E+03</pdfrwt>
<pdfrwt beam="2">  1       21 0.13981340E-01 0.18015639E+03</pdfrwt>
<totfact> 0.54137860E+04</totfact>
</mgrwt>
</event>
<event>
12    2  0.4090627E-002  0.2483905E+03  0.7546771E-02  0.1114804E+00
         21   -1    0    0  503  502  0.00000000000E+00  0.00000000000E+00  0.75782631262E+02  0.75782631262E+02  0.00000000000E+00 0. -1.
         21   -1    0    0  501  503 -0.00000000000E+00 -0.00000000000E+00 -0.10616870942E+04  0.10616870942E+04  0.00000000000E+00 0.  1.
          6    2    1    2  501    0  0.17393156138E+03  0.42466853505E+02 -0.77517871465E+03  0.81400237428E+03  0.17216911449E+03 0.  0.
         24    2    3    3    0    0  0.23867095733E+02  0.52849831834E+02 -0.33007399692E+03  0.34414340625E+03  0.78250224518E+02 0.  0.
         -6    2    1    2    0  502 -0.17393156138E+03 -0.42466853505E+02 -0.21072574825E+03  0.32346735116E+03  0.16783969910E+03 0.  0.
        -24    2    5    5    0    0 -0.10418526781E+03  0.30810121985E+02 -0.16175501049E+03  0.21097609033E+03  0.80885064312E+02 0.  0.
          5    1    3    3  501    0  0.15006446565E+03 -0.10382978329E+02 -0.44510471774E+03  0.46985896803E+03  0.47000000000E+01 0. -1.
        -15    1    4    4    0    0  0.35371835425E+02  0.39986448582E+02 -0.31943423232E+03  0.32386952515E+03  0.17770000000E+01 0.  1.
         16    1    4    4    0    0 -0.11504739692E+02  0.12863383252E+02 -0.10639764595E+02  0.20273881096E+02  0.00000000000E+00 0. -1.
         -5    1    5    5    0  502 -0.69746293575E+02 -0.73276975489E+02 -0.48970737765E+02  0.11249126082E+03  0.47000000000E+01 0.  1.
         15    1    6    6    0    0 -0.34347233004E+02 -0.13566690808E+02 -0.10280563773E+02  0.38374929772E+02  0.17770000000E+01 0. -1.
        -16    1    6    6    0    0 -0.69838034803E+02  0.44376812793E+02 -0.15147444672E+03  0.17260116056E+03  0.00000000000E+00 0.  1.
<mgrwt>
<rscale>  2 0.24764183E+03</rscale>
<asrwt>0</asrwt>
<pdfrwt beam="1">  1       21 0.11658867E-01 0.24839047E+03</pdfrwt>
<pdfrwt beam="2">  1       21 0.16333647E+00 0.24839047E+03</pdfrwt>
<totfact> 0.14169936E+04</totfact>
</mgrwt>
</event>
<event>
12    2  0.4090627E-002  0.1972786E+03  0.7546771E-02  0.1152160E+00
         21   -1    0    0  501  502  0.00000000000E+00  0.00000000000E+00  0.20548604470E+03  0.20548604470E+03  0.00000000000E+00 0. -1.
         21   -1    0    0  502  503 -0.00000000000E+00 -0.00000000000E+00 -0.25056774579E+03  0.25056774579E+03  0.00000000000E+00 0.  1.
         -6    2    1    2    0  503 -0.94515131486E+02 -0.47264336797E+01 -0.13561375181E+03  0.23899409087E+03  0.17254459289E+03 0.  0.
        -24    2    3    3    0    0 -0.92466974640E+02  0.39186235393E+02 -0.14064749945E+03  0.19449750598E+03  0.89229245688E+02 0.  0.
          6    2    1    2  501    0  0.94515131486E+02  0.47264336797E+01  0.90532050719E+02  0.21705969962E+03  0.17309942731E+03 0.  0.
         24    2    5    5    0    0  0.58251590929E+02  0.70761340251E+02  0.63788824700E+02  0.13697884424E+03  0.79333312632E+02 0.  0.
          5    1    5    5  501    0  0.36263540557E+02 -0.66034906571E+02  0.26743226019E+02  0.80080855374E+02  0.47000000000E+01 0. -1.
        -15    1    6    6    0    0 -0.18132453286E+02  0.16133853341E+02  0.16877612505E+01  0.24394535306E+02  0.17770000000E+01 0.  1.
         16    1    6    6    0    0  0.76384044215E+02  0.54627486910E+02  0.62101063450E+02  0.11258430893E+03  0.00000000000E+00 0. -1.
         -5    1    3    3    0  503 -0.20481568463E+01 -0.43912669072E+02  0.50337476491E+01  0.44496584890E+02  0.47000000000E+01 0.  1.
         15    1    4    4    0    0 -0.35340450933E+02  0.61167056705E+02 -0.56677234826E+02  0.90585997674E+02  0.17770000000E+01 0. -1.
        -16    1    4    4    0    0 -0.57126523707E+02 -0.21980821313E+02 -0.83970264629E+02  0.10391150830E+03  0.00000000000E+00 0.  1.
<mgrwt>
<rscale>  2 0.19715686E+03</rscale>
<asrwt>0</asrwt>
<pdfrwt beam="1">  1       21 0.31613238E-01 0.19727864E+03</pdfrwt>
<pdfrwt beam="2">  1       21 0.38548884E-01 0.19727864E+03</pdfrwt>
<totfact> 0.62287332E+04</totfact>
</mgrwt>
</event>
<event>
12    2  0.4090627E-002  0.2003497E+03  0.7546771E-02  0.1152524E+00
         21   -1    0    0  501  502  0.00000000000E+00  0.00000000000E+00  0.83426324209E+02  0.83426324209E+02  0.00000000000E+00 0. -1.
         21   -1    0    0  502  503 -0.00000000000E+00 -0.00000000000E+00 -0.60505118497E+03  0.60505118497E+03  0.00000000000E+00 0.  1.
         -6    2    1    2    0  503  0.38606295341E+02  0.56391399245E+02 -0.44317101329E+03  0.48635433749E+03  0.18833363648E+03 0.  0.
        -24    2    3    3    0    0 -0.27560819567E+01  0.10741086056E+03 -0.27925511689E+03  0.30970682751E+03  0.79938787497E+02 0.  0.
          6    2    1    2  501    0 -0.38606295341E+02 -0.56391399245E+02 -0.78453847479E+02  0.20212317169E+03  0.17328685583E+03 0.  0.
         24    2    5    5    0    0 -0.77495645744E+02 -0.52870076762E+02 -0.97540033720E+02  0.15840642671E+03  0.82326895473E+02 0.  0.
          5    1    5    5  501    0  0.38889350403E+02 -0.35213224830E+01  0.19086186241E+02  0.43716744985E+02  0.47000000000E+01 0. -1.
        -15    1    6    6    0    0 -0.74890964418E+02 -0.22152719822E+02 -0.29133665624E+02  0.83374622930E+02  0.17770000000E+01 0.  1.
         16    1    6    6    0    0 -0.26046813262E+01 -0.30717356940E+02 -0.68406368096E+02  0.75031803779E+02  0.00000000000E+00 0. -1.
         -5    1    3    3    0  503  0.41362377297E+02 -0.51019461315E+02 -0.16391589640E+03  0.17664750998E+03  0.47000000000E+01 0.  1.
         15    1    4    4    0    0  0.33187398824E+02  0.58169589121E+02 -0.99989482336E+02  0.12035845980E+03  0.17770000000E+01 0. -1.
        -16    1    4    4    0    0 -0.35943480780E+02  0.49241271438E+02 -0.17926563455E+03  0.18934836771E+03  0.00000000000E+00 0.  1.
<mgrwt>
<rscale>  2 0.19673460E+03</rscale>
<asrwt>0</asrwt>
<pdfrwt beam="1">  1       21 0.12834819E-01 0.20034968E+03</pdfrwt>
<pdfrwt beam="2">  1       21 0.93084799E-01 0.20034968E+03</pdfrwt>
<totfact> 0.50333671E+04</totfact>
</mgrwt>
</event>
<event>
12    2  0.4090627E-002  0.2640516E+03  0.7546771E-02  0.1104874E+00
         21   -1    0    0  501  502  0.00000000000E+00  0.00000000000E+00  0.92338361141E+03  0.92338361141E+03  0.00000000000E+00 0. -1.
         21   -1    0    0  502  503 -0.00000000000E+00 -0.00000000000E+00 -0.20515823075E+03  0.20515823075E+03  0.00000000000E+00 0.  1.
         -6    2    1    2    0  503 -0.13573495876E+02  0.19852003035E+03 -0.90165574444E+02  0.27811890182E+03  0.17212161543E+03 0.  0.
        -24    2    3    3    0    0  0.30361534677E+00  0.22025870865E+03 -0.92465275507E+02  0.25180307056E+03  0.79630196864E+02 0.  0.
          6    2    1    2  501    0  0.13573495876E+02 -0.19852003035E+03  0.80839095510E+03  0.85042294034E+03  0.17357649301E+03 0.  0.
         24    2    5    5    0    0  0.45399907899E+02 -0.52022440248E+02  0.38556172935E+03  0.40177930831E+03  0.89449871562E+02 0.  0.
          5    1    5    5  501    0 -0.31826412023E+02 -0.14649759010E+03  0.42282922575E+03  0.44864363203E+03  0.47000000000E+01 0. -1.
        -15    1    6    6    0    0 -0.17859248302E+02 -0.41389238468E+02  0.21190328599E+03  0.21665221474E+03  0.17770000000E+01 0.  1.
         16    1    6    6    0    0  0.63259156201E+02 -0.10633201780E+02  0.17365844336E+03  0.18512709357E+03  0.00000000000E+00 0. -1.
         -5    1    3    3    0  503 -0.13877111222E+02 -0.21738678299E+02  0.22997010628E+01  0.26315831263E+02  0.47000000000E+01 0.  1.
         15    1    4    4    0    0 -0.12493497370E+02  0.12537766170E+02  0.93735963888E+01  0.20107339340E+02  0.17770000000E+01 0. -1.
        -16    1    4    4    0    0  0.12797112717E+02  0.20772094248E+03 -0.10183887190E+03  0.23169573122E+03  0.00000000000E+00 0.  1.
<mgrwt>
<rscale>  2 0.26381274E+03</rscale>
<asrwt>0</asrwt>
<pdfrwt beam="1">  1       21 0.14205901E+00 0.26405159E+03</pdfrwt>
<pdfrwt beam="2">  1       21 0.31562805E-01 0.26405159E+03</pdfrwt>
<totfact> 0.31459519E+03</totfact>
</mgrwt>
</event>
<event>
12    2  0.4090627E-002  0.1859989E+03  0.7546771E-02  0.1162213E+00
         21   -1    0    0  501  502  0.00000000000E+00  0.00000000000E+00  0.59523513632E+03  0.59523513632E+03  0.00000000000E+00 0.  1.
         21   -1    0    0  502  503 -0.00000000000E+00 -0.00000000000E+00 -0.58007373647E+02  0.58007373647E+02  0.00000000000E+00 0. -1.
         -6    2    1    2    0  503 -0.63696422457E+02 -0.24953726678E+02  0.26450222258E+03  0.32335279282E+03  0.17296149909E+03 0.  0.
        -24    2    3    3    0    0 -0.61519891334E+02  0.25827030035E+02  0.78939693202E+02  0.13089769455E+03  0.80318109830E+02 0.  0.
          6    2    1    2  501    0  0.63696422457E+02  0.24953726678E+02  0.27272554009E+03  0.32988971714E+03  0.17253429384E+03 0.  0.
         24    2    5    5    0    0  0.36288077756E+02 -0.51428508673E+02  0.18008885399E+03  0.20664561445E+03  0.79427316135E+02 0.  0.
          5    1    5    5  501    0  0.27408344701E+02  0.76382235352E+02  0.92636686100E+02  0.12324410269E+03  0.47000000000E+01 0. -1.
        -15    1    6    6    0    0  0.42669462996E+01  0.37211905811E+01  0.11628396532E+03  0.11643527133E+03  0.17770000000E+01 0.  1.
         16    1    6    6    0    0  0.32021131456E+02 -0.55149699254E+02  0.63804888667E+02  0.90210343118E+02  0.00000000000E+00 0. -1.
         -5    1    3    3    0  503 -0.21765311232E+01 -0.50780756713E+02  0.18556252938E+03  0.19245509827E+03  0.47000000000E+01 0.  1.
         15    1    4    4    0    0  0.57907865916E+00 -0.17703079907E+02 -0.42781717478E+01  0.18308327417E+02  0.17770000000E+01 0. -1.
        -16    1    4    4    0    0 -0.62098969993E+02  0.43530109942E+02  0.83217864950E+02  0.11258936714E+03  0.00000000000E+00 0.  1.
<mgrwt>
<rscale>  2 0.18589955E+03</rscale>
<asrwt>0</asrwt>
<pdfrwt beam="1">  1       21 0.91574632E-01 0.18599893E+03</pdfrwt>
<pdfrwt beam="2">  1       21 0.89242117E-02 0.18599893E+03</pdfrwt>
<totfact> 0.10031884E+05</totfact>
</mgrwt>
</event>
<event>
11    2  0.4090627E-002  0.1819249E+03  0.7546771E-02  0.1166688E+00
         21   -1    0    0  501  502  0.00000000000E+00  0.00000000000E+00  0.15037166640E+04  0.15037166640E+04  0.00000000000E+00 0.  1.
         21   -1    0    0  502  503 -0.00000000000E+00 -0.00000000000E+00 -0.63127043734E+02  0.63127043734E+02  0.00000000000E+00 0.  1.
         -6    2    1    2    0  503 -0.11998762095E+02 -0.42086068007E+02  0.87305131467E+02  0.20178912546E+03  0.17658272214E+03 0.  0.
          6    2    1    2  501    0  0.11998762095E+02  0.42086068007E+02  0.13532844888E+04  0.13650545823E+04  0.17343557180E+03 0.  0.
         24    2    4    4    0    0  0.50399106985E+02 -0.24088090268E+02  0.61122853901E+03  0.61905007269E+03  0.80637209268E+02 0.  0.
          5    1    4    4  501    0 -0.38400344890E+02  0.66174158275E+02  0.74205594978E+03  0.74600450958E+03  0.47000000000E+01 0. -1.
        -15    1    5    5    0    0  0.49611271166E+02 -0.10607829578E+02  0.59798668593E+03  0.60013751637E+03  0.17770000000E+01 0.  1.
         16    1    5    5    0    0  0.78783581964E+00 -0.13480260691E+02  0.13241853080E+02  0.18912556320E+02  0.00000000000E+00 0. -1.
         -5    1    3    3    0  503  0.11519207134E+02 -0.50995992939E+02 -0.39298071328E+02  0.65572187999E+02  0.47000000000E+01 0.  1.
         15    1    3    3    0    0  0.25396513499E+01 -0.37952502654E+01  0.86995657710E+02  0.87133552338E+02  0.17770000000E+01 0. -1.
        -16    1    3    3    0    0 -0.26057620579E+02  0.12705175198E+02  0.39607545085E+02  0.49083385119E+02  0.00000000000E+00 0.  1.
<mgrwt>
<rscale>  2 0.18115675E+03</rscale>
<asrwt>0</asrwt>
<pdfrwt beam="1">  1       21 0.23134100E+00 0.18192489E+03</pdfrwt>
<pdfrwt beam="2">  1       21 0.97118540E-02 0.18192489E+03</pdfrwt>
<totfact> 0.74109436E+03</totfact>
</mgrwt>
</event>
<event>
12    2  0.4090627E-002  0.1768596E+03  0.7546771E-02  0.1171058E+00
         21   -1    0    0  501  502  0.00000000000E+00  0.00000000000E+00  0.78984796836E+02  0.78984796836E+02  0.00000000000E+00 0. -1.
         21   -1    0    0  502  503 -0.00000000000E+00 -0.00000000000E+00 -0.41908445715E+03  0.41908445715E+03  0.00000000000E+00 0. -1.
         -6    2    1    2    0  503  0.21937217420E+02 -0.24626437390E+02 -0.23017508776E+03  0.28983208996E+03  0.17301550918E+03 0.  0.
        -24    2    3    3    0    0  0.11720681900E+02 -0.27307258826E+02 -0.25140037659E+03  0.26566253706E+03  0.80569060301E+02 0.  0.
          6    2    1    2  501    0 -0.21937217420E+02  0.24626437390E+02 -0.10992457255E+03  0.20823716402E+03  0.17375730748E+03 0.  0.
         24    2    5    5    0    0 -0.54325621207E+02 -0.14550292673E+02 -0.13858259824E+02  0.99449980407E+02  0.80840974148E+02 0.  0.
          5    1    5    5  501    0  0.32388403787E+02  0.39176730064E+02 -0.96066312722E+02  0.10878718361E+03  0.47000000000E+01 0. -1.
        -15    1    6    6    0    0 -0.21921033255E+02 -0.47445258291E+02 -0.66574114666E+01  0.52716819799E+02  0.17770000000E+01 0.  1.
         16    1    6    6    0    0 -0.32404587952E+02  0.32894965618E+02 -0.72008483574E+01  0.46733160608E+02  0.00000000000E+00 0. -1.
         -5    1    3    3    0  503  0.10216535519E+02  0.26808214356E+01  0.21225288829E+02  0.24169552901E+02  0.47000000000E+01 0.  1.
         15    1    4    4    0    0 -0.15979503915E+02 -0.37522115972E+02 -0.21477170625E+03  0.21861678176E+03  0.17770000000E+01 0. -1.
        -16    1    4    4    0    0  0.27700185815E+02  0.10214857146E+02 -0.36628670340E+02  0.47045755298E+02  0.00000000000E+00 0.  1.
<mgrwt>
<rscale>  2 0.17667710E+03</rscale>
<asrwt>0</asrwt>
<pdfrwt beam="1">  1       21 0.12151507E-01 0.17685956E+03</pdfrwt>
<pdfrwt beam="2">  1       21 0.64474531E-01 0.17685956E+03</pdfrwt>
<totfact> 0.12799971E+05</totfact>
</mgrwt>
</event>
<event>
12    2  0.4090627E-002  0.2590521E+03  0.7546771E-02  0.1108109E+00
         21   -1    0    0  503  502  0.00000000000E+00  0.00000000000E+00  0.57770590192E+03  0.57770590192E+03  0.00000000000E+00 0. -1.
         21   -1    0    0  501  503 -0.00000000000E+00 -0.00000000000E+00 -0.25972661740E+03  0.25972661740E+03  0.00000000000E+00 0.  1.
          6    2    1    2  501    0 -0.72511360803E+02  0.17442736988E+03 -0.15321574390E+03  0.30097016998E+03  0.17727147043E+03 0.  0.
         24    2    3    3    0    0  0.27680238397E+02  0.92780470416E+02 -0.49748931624E+02  0.13534395229E+03  0.80427718701E+02 0.  0.
         -6    2    1    2    0  502  0.72511360803E+02 -0.17442736988E+03  0.47119502841E+03  0.53646234934E+03  0.17344824199E+03 0.  0.
        -24    2    5    5    0    0 -0.22870040111E+02 -0.11408691845E+03  0.30332534705E+03  0.33412376765E+03  0.78061272400E+02 0.  0.
          5    1    3    3  501    0 -0.10019159920E+03  0.81646899468E+02 -0.10346681227E+03  0.16562621769E+03  0.47000000000E+01 0. -1.
        -15    1    4    4    0    0  0.16776252752E+02  0.10039694945E+03 -0.60338813807E+02  0.11834238588E+03  0.17770000000E+01 0.  1.
         16    1    4    4    0    0  0.10903985645E+02 -0.76164790327E+01  0.10589882182E+02  0.17001566411E+02  0.00000000000E+00 0. -1.
         -5    1    5    5    0  502  0.95381400914E+02 -0.60340451432E+02  0.16786968136E+03  0.20233858169E+03  0.47000000000E+01 0.  1.
         15    1    6    6    0    0 -0.31435945095E+02 -0.45927241232E+02  0.62570961129E+02  0.83760450314E+02  0.17770000000E+01 0. -1.
        -16    1    6    6    0    0  0.85659049841E+01 -0.68159677221E+02  0.24075438592E+03  0.25036331734E+03  0.00000000000E+00 0.  1.
<mgrwt>
<rscale>  2 0.25839934E+03</rscale>
<asrwt>0</asrwt>
<pdfrwt beam="1">  1       21 0.88877831E-01 0.25905208E+03</pdfrwt>
<pdfrwt beam="2">  1       21 0.39957941E-01 0.25905208E+03</pdfrwt>
<totfact> 0.62443962E+03</totfact>
</mgrwt>
</event>
<event>
12    2  0.4090627E-002  0.1817115E+03  0.7546771E-02  0.1166174E+00
         21   -1    0    0  503  502  0.00000000000E+00  0.00000000000E+00  0.10549814999E+03  0.10549814999E+03  0.00000000000E+00 0. -1.
         21   -1    0    0  501  503 -0.00000000000E+00 -0.00000000000E+00 -0.38282522928E+03  0.38282522928E+03  0.00000000000E+00 0. -1.
          6    2    1    2  501    0 -0.57277250859E+02  0.89942896600E+00 -0.34261695225E+02  0.18484378497E+03  0.17237131039E+03 0.  0.
         24    2    3    3    0    0 -0.37221281248E+02  0.27719458853E+02 -0.83507784056E+02  0.12510415671E+03  0.80769473510E+02 0.  0.
         -6    2    1    2    0  502  0.57277250859E+02 -0.89942896600E+00 -0.24306538406E+03  0.30347959429E+03  0.17244590683E+03 0.  0.
        -24    2    5    5    0    0  0.39064536388E+01 -0.32713209002E+02 -0.49788787808E+02  0.10040696872E+03  0.80729310371E+02 0.  0.
          5    1    3    3  501    0 -0.20055969611E+02 -0.26820029887E+02  0.49246088831E+02  0.59739628266E+02  0.47000000000E+01 0. -1.
        -15    1    4    4    0    0 -0.52878746079E+02  0.44104331287E+02 -0.52059700337E+02  0.86340743298E+02  0.17770000000E+01 0.  1.
         16    1    4    4    0    0  0.15657464831E+02 -0.16384872434E+02 -0.31448083719E+02  0.38763413410E+02  0.00000000000E+00 0. -1.
         -5    1    5    5    0  502  0.53370797220E+02  0.31813780036E+02 -0.19327659625E+03  0.20307262557E+03  0.47000000000E+01 0.  1.
         15    1    6    6    0    0 -0.28568547686E+02  0.12739702483E+02 -0.17858839269E+02  0.36063247292E+02  0.17770000000E+01 0. -1.
        -16    1    6    6    0    0  0.32475001325E+02 -0.45452911486E+02 -0.31929948540E+02  0.64343721429E+02  0.00000000000E+00 0.  1.
<mgrwt>
<rscale>  2 0.18169384E+03</rscale>
<asrwt>0</asrwt>
<pdfrwt beam="1">  1       21 0.16230485E-01 0.18171154E+03</pdfrwt>
<pdfrwt beam="2">  1       21 0.58896189E-01 0.18171154E+03</pdfrwt>
<totfact> 0.91982706E+04</totfact>
</mgrwt>
</event>
<event>
12    2  0.4090627E-002  0.1959915E+03  0.7546771E-02  0.1153270E+00
         21   -1    0    0  501  502  0.00000000000E+00  0.00000000000E+00  0.33013025751E+02  0.33013025751E+02  0.00000000000E+00 0. -1.
         21   -1    0    0  502  503 -0.00000000000E+00 -0.00000000000E+00 -0.12194579559E+04  0.12194579559E+04  0.00000000000E+00 0.  1.
         -6    2    1    2    0  503  0.30565832676E+02 -0.87082691689E+02 -0.45509009241E+03  0.49531011448E+03  0.17235849843E+03 0.  0.
        -24    2    3    3    0    0  0.66370258298E+02 -0.35597292542E+01 -0.24031678701E+03  0.26205552211E+03  0.80642765908E+02 0.  0.
          6    2    1    2  501    0 -0.30565832676E+02  0.87082691689E+02 -0.73135483779E+03  0.75716086722E+03  0.17290174890E+03 0.  0.
         24    2    5    5    0    0  0.89531931448E+01  0.42358299892E+02 -0.64892055403E+03  0.65528090961E+03  0.80129893414E+02 0.  0.
          5    1    5    5  501    0 -0.39519025821E+02  0.44724391798E+02 -0.82434283755E+02  0.10187995761E+03  0.47000000000E+01 0. -1.
        -15    1    6    6    0    0 -0.90938173064E+01  0.59221531435E+02 -0.55269414650E+03  0.55593512626E+03  0.17770000000E+01 0.  1.
         16    1    6    6    0    0  0.18047010451E+02 -0.16863231544E+02 -0.96226407529E+02  0.99345783354E+02  0.00000000000E+00 0. -1.
         -5    1    3    3    0  503 -0.35804425622E+02 -0.83522962435E+02 -0.21477330540E+03  0.23325459237E+03  0.47000000000E+01 0.  1.
         15    1    4    4    0    0  0.61975934925E+02  0.46129973595E+01 -0.79277286284E+02  0.10074890622E+03  0.17770000000E+01 0. -1.
        -16    1    4    4    0    0  0.43943233726E+01 -0.81727266138E+01 -0.16103950072E+03  0.16130661590E+03  0.00000000000E+00 0.  1.
<mgrwt>
<rscale>  2 0.19587165E+03</rscale>
<asrwt>0</asrwt>
<pdfrwt beam="1">  1       21 0.50789276E-02 0.19599153E+03</pdfrwt>
<pdfrwt beam="2">  1       21 0.18760890E+00 0.19599153E+03</pdfrwt>
<totfact> 0.42277259E+04</totfact>
</mgrwt>
</event>
<event>
12    2  0.4090627E-002  0.1843539E+03  0.7546771E-02  0.1163707E+00
         21   -1    0    0  503  502  0.00000000000E+00  0.00000000000E+00  0.53271524199E+03  0.53271524199E+03  0.00000000000E+00 0.  1.
         21   -1    0    0  501  503 -0.00000000000E+00 -0.00000000000E+00 -0.14273236711E+03  0.14273236711E+03  0.00000000000E+00 0.  1.
          6    2    1    2  501    0 -0.21285632483E+02 -0.60247731685E+02 -0.56333075033E+02  0.19255600665E+03  0.17268912250E+03 0.  0.
         24    2    3    3    0    0 -0.91586485981E+01 -0.10127746044E+03 -0.70097236715E+02  0.14736701986E+03  0.80389123094E+02 0.  0.
         -6    2    1    2    0  502  0.21285632483E+02  0.60247731685E+02  0.44631594991E+03  0.48289160245E+03  0.17292630006E+03 0.  0.
        -24    2    5    5    0    0 -0.51277082337E+02  0.50272656809E+02  0.22599841872E+03  0.25067025492E+03  0.81262612816E+02 0.  0.
          5    1    3    3  501    0 -0.12126983885E+02  0.41029728753E+02  0.13764161682E+02  0.45188986783E+02  0.47000000000E+01 0. -1.
        -15    1    4    4    0    0 -0.36493942651E+02 -0.42218865162E+02 -0.59212680563E+02  0.81385131899E+02  0.17770000000E+01 0.  1.
         16    1    4    4    0    0  0.27335294053E+02 -0.59058595275E+02 -0.10884556152E+02  0.65981887965E+02  0.00000000000E+00 0. -1.
         -5    1    5    5    0  502  0.72562714821E+02  0.99750748766E+01  0.22031753119E+03  0.23222134754E+03  0.47000000000E+01 0.  1.
         15    1    6    6    0    0 -0.11907765540E+02  0.11850638216E+02 -0.11719903462E+01  0.16934101590E+02  0.17770000000E+01 0. -1.
        -16    1    6    6    0    0 -0.39369316797E+02  0.38422018593E+02  0.22717040906E+03  0.23373615333E+03  0.00000000000E+00 0.  1.
<mgrwt>
<rscale>  2 0.18429829E+03</rscale>
<asrwt>0</asrwt>
<pdfrwt beam="1">  1       21 0.81956190E-01 0.18435393E+03</pdfrwt>
<pdfrwt beam="2">  1       21 0.21958826E-01 0.18435393E+03</pdfrwt>
<totfact> 0.25343407E+04</totfact>
</mgrwt>
</event>
<event>
12    2  0.4090627E-002  0.2698755E+03  0.7546771E-02  0.1101587E+00
         21   -1    0    0  501  502  0.00000000000E+00  0.00000000000E+00  0.10324366143E+04  0.10324366143E+04  0.00000000000E+00 0.  1.
         21   -1    0    0  502  503 -0.00000000000E+00 -0.00000000000E+00 -0.94677350177E+02  0.94677350177E+02  0.00000000000E+00 0.  1.
         -6    2    1    2    0  503 -0.90746377579E+02  0.18352815093E+03  0.18289951945E+03  0.32601386684E+03  0.17582752894E+03 0.  0.
        -24    2    3    3    0    0 -0.77855710537E+02  0.37007309921E+02  0.11221069088E+03  0.16275478859E+03  0.80416599103E+02 0.  0.
          6    2    1    2  501    0  0.90746377579E+02 -0.18352815093E+03  0.75485974464E+03  0.80110009760E+03  0.17329352288E+03 0.  0.
         24    2    5    5    0    0  0.35075874489E+02 -0.17739586179E+03  0.45683368328E+03  0.49782063385E+03  0.80179551973E+02 0.  0.
          5    1    5    5  501    0  0.55670503090E+02 -0.61322891369E+01  0.29802606136E+03  0.30327946375E+03  0.47000000000E+01 0. -1.
        -15    1    6    6    0    0  0.35432551467E+02 -0.16786565123E+03  0.45714183875E+03  0.48827877389E+03  0.17770000000E+01 0.  1.
         16    1    6    6    0    0 -0.35667697815E+00 -0.95302105639E+01 -0.30815546157E+00  0.95418599679E+01  0.00000000000E+00 0. -1.
         -5    1    3    3    0  503 -0.12890667042E+02  0.14652084101E+03  0.70688828572E+02  0.16325907825E+03  0.47000000000E+01 0.  1.
         15    1    4    4    0    0 -0.94531897825E+01 -0.15673558616E+02  0.57912808305E+02  0.60762441784E+02  0.17770000000E+01 0. -1.
        -16    1    4    4    0    0 -0.68402520755E+02  0.52680868537E+02  0.54297882574E+02  0.10199234681E+03  0.00000000000E+00 0.  1.
<mgrwt>
<rscale>  2 0.26946359E+03</rscale>
<asrwt>0</asrwt>
<pdfrwt beam="1">  1       21 0.15883639E+00 0.26987554E+03</pdfrwt>
<pdfrwt beam="2">  1       21 0.14565747E-01 0.26987554E+03</pdfrwt>
<totfact> 0.10090351E+04</totfact>
</mgrwt>
</event>
<event>
12    2  0.4090627E-002  0.1882221E+03  0.7546771E-02  0.1161058E+00
         21   -1    0    0  501  502  0.00000000000E+00  0.00000000000E+00  0.66473465619E+03  0.66473465619E+03  0.00000000000E+00 0.  1.
         21   -1    0    0  502  503 -0.00000000000E+00 -0.00000000000E+00 -0.18430941931E+03  0.18430941931E+03  0.00000000000E+00 0.  1.
         -6    2    1    2    0  503  0.65479642059E+02  0.55264321097E+01 -0.11855656601E+03  0.22244823748E+03  0.17637866662E+03 0.  0.
        -24    2    3    3    0    0  0.87161853993E+02  0.52848220225E+02 -0.56018976103E+02  0.14094664182E+03  0.79609716640E+02 0.  0.
          6    2    1    2  501    0 -0.65479642059E+02 -0.55264321097E+01  0.59898180289E+03  0.62659583802E+03  0.17182845823E+03 0.  0.
         24    2    5    5    0    0 -0.78589239138E+02  0.47359474670E+02  0.31575846832E+03  0.33814076714E+03  0.78845289900E+02 0.  0.
          5    1    5    5  501    0  0.13109597079E+02 -0.52885906779E+02  0.28322333457E+03  0.28845507088E+03  0.47000000000E+01 0. -1.
        -15    1    6    6    0    0 -0.35412074805E+02 -0.20194856453E+02  0.10650391474E+03  0.11405300896E+03  0.17770000000E+01 0.  1.
         16    1    6    6    0    0 -0.43177164334E+02  0.67554331123E+02  0.20925455357E+03  0.22408775818E+03  0.00000000000E+00 0. -1.
         -5    1    3    3    0  503 -0.21682211934E+02 -0.47321788115E+02 -0.62537589903E+02  0.81501595663E+02  0.47000000000E+01 0.  1.
         15    1    4    4    0    0  0.41046326954E+02  0.30887556175E+01  0.13939509912E+02  0.43494931122E+02  0.17770000000E+01 0. -1.
        -16    1    4    4    0    0  0.46115527039E+02  0.49759464607E+02 -0.69958486014E+02  0.97451710695E+02  0.00000000000E+00 0.  1.
<mgrwt>
<rscale>  2 0.18714869E+03</rscale>
<asrwt>0</asrwt>
<pdfrwt beam="1">  1       21 0.10226687E+00 0.18822210E+03</pdfrwt>
<pdfrwt beam="2">  1       21 0.28355296E-01 0.18822210E+03</pdfrwt>
<totfact> 0.92827761E+03</totfact>
</mgrwt>
</event>
<event>
12    2  0.4090627E-002  0.1847332E+03  0.7546771E-02  0.1163346E+00
         21   -1    0    0  503  502  0.00000000000E+00  0.00000000000E+00  0.16682323754E+03  0.16682323754E+03  0.00000000000E+00 0. -1.
         21   -1    0    0  501  503 -0.00000000000E+00 -0.00000000000E+00 -0.24258483852E+03  0.24258483852E+03  0.00000000000E+00 0. -1.
          6    2    1    2  501    0  0.60576210877E+02 -0.15765676293E+02 -0.11913820527E+03  0.21965059034E+03  0.17359273029E+03 0.  0.
         24    2    3    3    0    0  0.69482318844E+02 -0.51081878065E+02 -0.13585573625E+03  0.17930063732E+03  0.79087208665E+02 0.  0.
         -6    2    1    2    0  502 -0.60576210877E+02  0.15765676293E+02  0.43376604292E+02  0.18975748572E+03  0.17380546515E+03 0.  0.
        -24    2    5    5    0    0  0.99639617991E+00  0.25444340234E+02  0.81321540346E+02  0.11663587026E+03  0.79638722066E+02 0.  0.
          5    1    3    3  501    0 -0.89061079666E+01  0.35316201772E+02  0.16717530974E+02  0.40349953018E+02  0.47000000000E+01 0. -1.
        -15    1    4    4    0    0  0.13949075302E+02 -0.59085186464E+02 -0.75439628073E+02  0.96850044781E+02  0.17770000000E+01 0.  1.
         16    1    4    4    0    0  0.55533243541E+02  0.80033083986E+01 -0.60416108172E+02  0.82450592540E+02  0.00000000000E+00 0. -1.
         -5    1    5    5    0  502 -0.61572607057E+02 -0.96786639405E+01 -0.37944936054E+02  0.73121615461E+02  0.47000000000E+01 0.  1.
         15    1    6    6    0    0  0.66396633385E+01  0.46723889484E+02  0.81980811059E+02  0.94610877222E+02  0.17770000000E+01 0. -1.
        -16    1    6    6    0    0 -0.56432671586E+01 -0.21279549251E+02 -0.65927071354E+00  0.22024993040E+02  0.00000000000E+00 0.  1.
<mgrwt>
<rscale>  2 0.18468320E+03</rscale>
<asrwt>0</asrwt>
<pdfrwt beam="1">  1       21 0.25665113E-01 0.18473325E+03</pdfrwt>
<pdfrwt beam="2">  1       21 0.37320745E-01 0.18473325E+03</pdfrwt>
<totfact> 0.10004208E+05</totfact>
</mgrwt>
</event>
<event>
12    2  0.4090627E-002  0.2263126E+03  0.7546771E-02  0.1129479E+00
         21   -1    0    0  501  502  0.00000000000E+00  0.00000000000E+00  0.44184783182E+03  0.44184783182E+03  0.00000000000E+00 0. -1.
         21   -1    0    0  502  503 -0.00000000000E+00 -0.00000000000E+00 -0.11823522025E+03  0.11823522025E+03  0.00000000000E+00 0.  1.
         -6    2    1    2    0  503  0.82519194983E+02  0.11852750515E+03  0.11727995886E+03  0.25383059504E+03  0.17267656242E+03 0.  0.
        -24    2    3    3    0    0  0.19584401251E+02 -0.54103788455E+01  0.65165890374E+02  0.10530667950E+03  0.80187795254E+02 0.  0.
          6    2    1    2  501    0 -0.82519194983E+02 -0.11852750515E+03  0.20633265271E+03  0.30625245703E+03  0.17423896476E+03 0.  0.
         24    2    5    5    0    0 -0.17645408796E+02 -0.11334145951E+03  0.77322797092E+02  0.16168020502E+03  0.83690064218E+02 0.  0.
          5    1    5    5  501    0 -0.64873786187E+02 -0.51860456381E+01  0.12900985562E+03  0.14457225201E+03  0.47000000000E+01 0. -1.
        -15    1    6    6    0    0 -0.33438399103E+02 -0.87373587250E+02  0.18373933522E+02  0.95357377510E+02  0.17770000000E+01 0.  1.
         16    1    6    6    0    0  0.15792990307E+02 -0.25967872265E+02  0.58948863570E+02  0.66322827510E+02  0.00000000000E+00 0. -1.
         -5    1    3    3    0  503  0.62934793732E+02  0.12393788400E+03  0.52114068486E+02  0.14852391554E+03  0.47000000000E+01 0.  1.
         15    1    4    4    0    0  0.33431412342E+02  0.11810664630E+02  0.73551983569E+02  0.81671311647E+02  0.17770000000E+01 0. -1.
        -16    1    4    4    0    0 -0.13847011091E+02 -0.17221043476E+02 -0.83860931946E+01  0.23635367854E+02  0.00000000000E+00 0.  1.
<mgrwt>
<rscale>  2 0.22601185E+03</rscale>
<asrwt>0</asrwt>
<pdfrwt beam="1">  1       21 0.67976589E-01 0.22631262E+03</pdfrwt>
<pdfrwt beam="2">  1       21 0.18190034E-01 0.22631262E+03</pdfrwt>
<totfact> 0.53573852E+04</totfact>
</mgrwt>
</event>
<event>
12    2  0.4090627E-002  0.2420205E+03  0.7546771E-02  0.1119628E+00
         21   -1    0    0  501  502  0.00000000000E+00  0.00000000000E+00  0.13553379139E+03  0.13553379139E+03  0.00000000000E+00 0.  1.
         21   -1    0    0  502  503 -0.00000000000E+00 -0.00000000000E+00 -0.47978761226E+03  0.47978761226E+03  0.00000000000E+00 0.  1.
         -6    2    1    2    0  503  0.11250194098E+03  0.12391129862E+03 -0.28316915791E+03  0.37250327215E+03  0.17482339409E+03 0.  0.
        -24    2    3    3    0    0  0.24918170724E+01  0.82463293918E+02 -0.15361756301E+03  0.19750078589E+03  0.92745893519E+02 0.  0.
          6    2    1    2  501    0 -0.11250194098E+03 -0.12391129862E+03 -0.61084662956E+02  0.24281813151E+03  0.16498064217E+03 0.  0.
         24    2    5    5    0    0 -0.99987722099E+01 -0.86622444534E+01 -0.25751990496E+02  0.84515472536E+02  0.79402079058E+02 0.  0.
          5    1    5    5  501    0 -0.10250316877E+03 -0.11524905416E+03 -0.35332672460E+02  0.15830265897E+03  0.47000000000E+01 0. -1.
        -15    1    6    6    0    0 -0.35865133690E+02 -0.18730336068E+02  0.75127027780E+01  0.41191403664E+02  0.17770000000E+01 0.  1.
         16    1    6    6    0    0  0.25866361480E+02  0.10068091614E+02 -0.33264693274E+02  0.43324068872E+02  0.00000000000E+00 0. -1.
         -5    1    3    3    0  503  0.11001012391E+03  0.41448004698E+02 -0.12955159489E+03  0.17500248626E+03  0.47000000000E+01 0.  1.
         15    1    4    4    0    0  0.26824453100E+02 -0.98397848491E+01 -0.33209134837E+02  0.43844920067E+02  0.17770000000E+01 0. -1.
        -16    1    4    4    0    0 -0.24332636028E+02  0.92303078767E+02 -0.12040842818E+03  0.15365586582E+03  0.00000000000E+00 0.  1.
<mgrwt>
<rscale>  2 0.24024829E+03</rscale>
<asrwt>0</asrwt>
<pdfrwt beam="1">  1       21 0.20851352E-01 0.24202049E+03</pdfrwt>
<pdfrwt beam="2">  1       21 0.73813480E-01 0.24202049E+03</pdfrwt>
<totfact> 0.34315169E+04</totfact>
</mgrwt>
</event>
<event>
12    2  0.4090627E-002  0.1747797E+03  0.7546771E-02  0.1172992E+00
         21   -1    0    0  503  502  0.00000000000E+00  0.00000000000E+00  0.47899923241E+03  0.47899923241E+03  0.00000000000E+00 0. -1.
         21   -1    0    0  501  503 -0.00000000000E+00 -0.00000000000E+00 -0.78169671503E+02  0.78169671503E+02  0.00000000000E+00 0. -1.
          6    2    1    2  501    0 -0.22190533232E+02  0.78024938867E+01  0.80558740641E+02  0.19231093002E+03  0.17303318883E+03 0.  0.
         24    2    3    3    0    0 -0.28090546841E+02  0.70787700419E+02  0.44481347496E+02  0.11933412070E+03  0.80386968692E+02 0.  0.
         -6    2    1    2    0  502  0.22190533232E+02 -0.78024938867E+01  0.32027082026E+03  0.36485797389E+03  0.17318961898E+03 0.  0.
        -24    2    5    5    0    0 -0.51668978432E+02  0.13171918861E+02  0.11563791387E+03  0.14624445686E+03  0.71917530945E+02 0.  0.
          5    1    3    3  501    0  0.59000136085E+01 -0.62985206532E+02  0.36077393146E+02  0.72976809321E+02  0.47000000000E+01 0. -1.
        -15    1    4    4    0    0  0.17052596493E+02  0.50703411960E+02  0.44992462714E+02  0.69922145716E+02  0.17770000000E+01 0.  1.
         16    1    4    4    0    0 -0.45143143333E+02  0.20084288459E+02 -0.51111521815E+00  0.49411974982E+02  0.00000000000E+00 0. -1.
         -5    1    5    5    0  502  0.73859511664E+02 -0.20974412748E+02  0.20463290639E+03  0.21861351703E+03  0.47000000000E+01 0.  1.
         15    1    6    6    0    0 -0.39721242311E+02  0.94409702442E+01  0.12441646051E+03  0.13095618498E+03  0.17770000000E+01 0. -1.
        -16    1    6    6    0    0 -0.11947736121E+02  0.37309486169E+01 -0.87785466335E+01  0.15288271877E+02  0.00000000000E+00 0.  1.
<mgrwt>
<rscale>  2 0.17474093E+03</rscale>
<asrwt>0</asrwt>
<pdfrwt beam="1">  1       21 0.73692188E-01 0.17477970E+03</pdfrwt>
<pdfrwt beam="2">  1       21 0.12026104E-01 0.17477970E+03</pdfrwt>
<totfact> 0.97343925E+04</totfact>
</mgrwt>
</event>
<event>
12    2  0.4090627E-002  0.2003694E+03  0.7546771E-02  0.1149626E+00
         21   -1    0    0  501  502  0.00000000000E+00  0.00000000000E+00  0.87000356145E+02  0.87000356145E+02  0.00000000000E+00 0. -1.
         21   -1    0    0  502  503 -0.00000000000E+00 -0.00000000000E+00 -0.13384880004E+04  0.13384880004E+04  0.00000000000E+00 0. -1.
         -6    2    1    2    0  503 -0.11391591700E+02 -0.10023974528E+03 -0.12028898214E+04  0.12193096739E+04  0.17203018241E+03 0.  0.
        -24    2    3    3    0    0 -0.91223002275E+01 -0.62301781030E+02 -0.11473127916E+04  0.11518164517E+04  0.79936025703E+02 0.  0.
          6    2    1    2  501    0  0.11391591700E+02  0.10023974528E+03 -0.48597822867E+02  0.20617868261E+03  0.17311882012E+03 0.  0.
         24    2    5    5    0    0  0.41320207368E+02  0.57893435204E+02  0.30209856127E+02  0.11172407827E+03  0.80688443293E+02 0.  0.
          5    1    5    5  501    0 -0.29928615667E+02  0.42346310076E+02 -0.78807678994E+02  0.94454604341E+02  0.47000000000E+01 0. -1.
        -15    1    6    6    0    0  0.34962048805E+02 -0.11920010842E+02  0.15484192131E+02  0.40091762871E+02  0.17770000000E+01 0.  1.
         16    1    6    6    0    0  0.63581585621E+01  0.69813446045E+02  0.14725663995E+02  0.71632315397E+02  0.00000000000E+00 0. -1.
         -5    1    3    3    0  503 -0.22692914729E+01 -0.37937964250E+02 -0.55577029727E+02  0.67493222241E+02  0.47000000000E+01 0.  1.
         15    1    4    4    0    0 -0.12629016611E+02 -0.79364471841E+02 -0.10397250307E+04  0.10428276505E+04  0.17770000000E+01 0. -1.
        -16    1    4    4    0    0  0.35067163836E+01  0.17062690811E+02 -0.10758776090E+03  0.10898880113E+03  0.00000000000E+00 0.  1.
<mgrwt>
<rscale>  2 0.20013404E+03</rscale>
<asrwt>0</asrwt>
<pdfrwt beam="1">  1       21 0.13384671E-01 0.20036941E+03</pdfrwt>
<pdfrwt beam="2">  1       21 0.20592122E+00 0.20036941E+03</pdfrwt>
<totfact> 0.58952474E+03</totfact>
</mgrwt>
</event>
<event>
12    2  0.4090627E-002  0.1945079E+03  0.7546771E-02  0.1154578E+00
         21   -1    0    0  503  502  0.00000000000E+00  0.00000000000E+00  0.56542347373E+03  0.56542347373E+03  0.00000000000E+00 0.  1.
         21   -1    0    0  501  503 -0.00000000000E+00 -0.00000000000E+00 -0.76461855632E+02  0.76461855632E+02  0.00000000000E+00 0. -1.
          6    2    1    2  501    0 -0.25167239424E+02  0.82037814969E+02  0.13023977663E+03  0.23408482092E+03  0.17455575310E+03 0.  0.
         24    2    3    3    0    0 -0.75056922128E+02  0.54571304928E+02  0.12709310588E+03  0.17685387517E+03  0.80703573158E+02 0.  0.
         -6    2    1    2    0  502  0.25167239424E+02 -0.82037814969E+02  0.35872184146E+03  0.40780050844E+03  0.17394338768E+03 0.  0.
        -24    2    5    5    0    0 -0.16239929179E+02  0.17140620503E+02  0.12462897111E+03  0.15017194321E+03  0.80384674634E+02 0.  0.
          5    1    3    3  501    0  0.49889682704E+02  0.27466510041E+02  0.31466707548E+01  0.57230945746E+02  0.47000000000E+01 0. -1.
        -15    1    4    4    0    0 -0.78716091110E+02  0.60383352892E+02  0.75182006383E+02  0.12449041778E+03  0.17770000000E+01 0.  1.
         16    1    4    4    0    0  0.36591689817E+01 -0.58120479642E+01  0.51911099497E+02  0.52363457393E+02  0.00000000000E+00 0. -1.
         -5    1    5    5    0  502  0.41407168603E+02 -0.99178435472E+02  0.23409287035E+03  0.25762856523E+03  0.47000000000E+01 0.  1.
         15    1    6    6    0    0  0.15257824015E+02  0.28245872265E+02  0.14833695331E+02  0.35409415978E+02  0.17770000000E+01 0. -1.
        -16    1    6    6    0    0 -0.31497753195E+02 -0.11105251762E+02  0.10979527578E+03  0.11476252723E+03  0.00000000000E+00 0.  1.
<mgrwt>
<rscale>  2 0.19437036E+03</rscale>
<asrwt>0</asrwt>
<pdfrwt beam="1">  1       21 0.86988224E-01 0.19450785E+03</pdfrwt>
<pdfrwt beam="2">  1       21 0.11763363E-01 0.19450785E+03</pdfrwt>
<totfact> 0.69045943E+04</totfact>
</mgrwt>
</event>
<event>
12    2  0.4090627E-002  0.3070962E+03  0.7546771E-02  0.1081852E+00
         21   -1    0    0  503  502  0.00000000000E+00  0.00000000000E+00  0.47474379673E+03  0.47474379673E+03  0.00000000000E+00 0.  1.
         21   -1    0    0  501  503 -0.00000000000E+00 -0.00000000000E+00 -0.27163522320E+03  0.27163522320E+03  0.00000000000E+00 0.  1.
          6    2    1    2  501    0  0.17121593973E+03  0.18610630846E+03 -0.92531088253E+02  0.32073364400E+03  0.17423435951E+03 0.  0.
         24    2    3    3    0    0  0.65732149011E+02  0.16955052275E+03 -0.62002103135E+02  0.20958044756E+03  0.83735345155E+02 0.  0.
         -6    2    1    2    0  502 -0.17121593973E+03 -0.18610630846E+03  0.29563966179E+03  0.42564537593E+03  0.17268676950E+03 0.  0.
        -24    2    5    5    0    0 -0.18533845833E+03 -0.16953176965E+03  0.21003343188E+03  0.33718816895E+03  0.80563352167E+02 0.  0.
          5    1    3    3  501    0  0.10548379072E+03  0.16555785707E+02 -0.30528985118E+02  0.11115319644E+03  0.47000000000E+01 0. -1.
        -15    1    4    4    0    0  0.44990330004E+02  0.57014674975E+02  0.11531950074E+02  0.73559136467E+02  0.17770000000E+01 0.  1.
         16    1    4    4    0    0  0.20741819008E+02  0.11253584778E+03 -0.73534053209E+02  0.13602131110E+03  0.00000000000E+00 0. -1.
         -5    1    5    5    0  502  0.14122518595E+02 -0.16574538807E+02  0.85606229910E+02  0.88457206985E+02  0.47000000000E+01 0.  1.
         15    1    6    6    0    0 -0.65841432005E+02 -0.16856528040E+02  0.37437166024E+02  0.77614018288E+02  0.17770000000E+01 0. -1.
        -16    1    6    6    0    0 -0.11949702632E+03 -0.15267524161E+03  0.17259626586E+03  0.25957415066E+03  0.00000000000E+00 0.  1.
<mgrwt>
<rscale>  2 0.30687711E+03</rscale>
<asrwt>0</asrwt>
<pdfrwt beam="1">  1       21 0.73037507E-01 0.30709619E+03</pdfrwt>
<pdfrwt beam="2">  1       21 0.41790034E-01 0.30709619E+03</pdfrwt>
<totfact> 0.87095347E+03</totfact>
</mgrwt>
</event>
<event>
12    2  0.4090627E-002  0.1990277E+03  0.7546771E-02  0.1150723E+00
         21   -1    0    0  503  502  0.00000000000E+00  0.00000000000E+00  0.10201149972E+04  0.10201149972E+04  0.00000000000E+00 0.  1.
         21   -1    0    0  501  503 -0.00000000000E+00 -0.00000000000E+00 -0.39215204286E+02  0.39215204286E+02  0.00000000000E+00 0.  1.
          6    2    1    2  501    0 -0.87797491567E+02  0.38604302283E+02  0.42970701669E+03  0.47356113644E+03  0.17439420310E+03 0.  0.
         24    2    3    3    0    0 -0.10883870395E+03  0.30409923344E+02  0.16969024894E+03  0.21252341891E+03  0.60006633656E+02 0.  0.
         -6    2    1    2    0  502  0.87797491567E+02 -0.38604302283E+02  0.55119277617E+03  0.58576906499E+03  0.17353163780E+03 0.  0.
        -24    2    5    5    0    0  0.82582991570E+01  0.36754295580E+02  0.23853493686E+03  0.25443476872E+03  0.80119021982E+02 0.  0.
          5    1    3    3  501    0  0.21041212385E+02  0.81943789395E+01  0.26001676775E+03  0.26103771754E+03  0.47000000000E+01 0. -1.
        -15    1    4    4    0    0 -0.10170493327E+03  0.14987315781E+02  0.16579702835E+03  0.19509055699E+03  0.17770000000E+01 0.  1.
         16    1    4    4    0    0 -0.71337706797E+01  0.15422607562E+02  0.38932205873E+01  0.17432861919E+02  0.00000000000E+00 0. -1.
         -5    1    5    5    0  502  0.79539192410E+02 -0.75358597863E+02  0.31265783932E+03  0.33133429627E+03  0.47000000000E+01 0.  1.
         15    1    6    6    0    0  0.68818260165E+01  0.39510418286E+02  0.42819083709E+02  0.58694670466E+02  0.17770000000E+01 0. -1.
        -16    1    6    6    0    0  0.13764731406E+01 -0.27561227060E+01  0.19571585315E+03  0.19574009825E+03  0.00000000000E+00 0.  1.
<mgrwt>
<rscale>  2 0.19883860E+03</rscale>
<asrwt>0</asrwt>
<pdfrwt beam="1">  1       21 0.15694075E+00 0.19902771E+03</pdfrwt>
<pdfrwt beam="2">  1       21 0.60331091E-02 0.19902771E+03</pdfrwt>
<totfact> 0.51593078E+04</totfact>
</mgrwt>
</event>
<event>
12    2  0.4090627E-002  0.1978278E+03  0.7546771E-02  0.1151922E+00
         21   -1    0    0  501  502  0.00000000000E+00  0.00000000000E+00  0.16137163935E+04  0.16137163935E+04  0.00000000000E+00 0.  1.
         21   -1    0    0  502  503 -0.00000000000E+00 -0.00000000000E+00 -0.24333716022E+02  0.24333716022E+02  0.00000000000E+00 0.  1.
         -6    2    1    2    0  503 -0.73036999895E+01  0.91148821837E+02  0.87841543643E+03  0.90007297516E+03  0.17365549203E+03 0.  0.
        -24    2    3    3    0    0 -0.37140993364E+02 -0.10346398226E+02  0.46278289558E+03  0.47116267827E+03  0.79622607392E+02 0.  0.
          6    2    1    2  501    0  0.73036999895E+01 -0.91148821837E+02  0.71096724110E+03  0.73797713440E+03  0.17542628433E+03 0.  0.
         24    2    5    5    0    0  0.71959330243E+01  0.22429673698E+02  0.29950652998E+03  0.31110233654E+03  0.80781375226E+02 0.  0.
          5    1    5    5  501    0  0.10776696520E+00 -0.11357849554E+03  0.41146071111E+03  0.42687479786E+03  0.47000000000E+01 0. -1.
        -15    1    6    6    0    0  0.35281765419E+02  0.58702825965E+01  0.24488775871E+03  0.24749229339E+03  0.17770000000E+01 0.  1.
         16    1    6    6    0    0 -0.28085832395E+02  0.16559391101E+02  0.54618771270E+02  0.63610043154E+02  0.00000000000E+00 0. -1.
         -5    1    3    3    0  503  0.29837293375E+02  0.10149522006E+03  0.41563254084E+03  0.42891029689E+03  0.47000000000E+01 0.  1.
         15    1    4    4    0    0 -0.33366382821E+01  0.19086167974E+02  0.33825038901E+03  0.33880953109E+03  0.17770000000E+01 0. -1.
        -16    1    4    4    0    0 -0.33804355082E+02 -0.29432566200E+02  0.12453250657E+03  0.13235314718E+03  0.00000000000E+00 0.  1.
<mgrwt>
<rscale>  2 0.19743447E+03</rscale>
<asrwt>0</asrwt>
<pdfrwt beam="1">  1       21 0.24826398E+00 0.19782779E+03</pdfrwt>
<pdfrwt beam="2">  1       21 0.37436499E-02 0.19782779E+03</pdfrwt>
<totfact> 0.29677227E+04</totfact>
</mgrwt>
</event>
<event>
12    2  0.4090627E-002  0.2039123E+03  0.7546771E-02  0.1146769E+00
         21   -1    0    0  503  502  0.00000000000E+00  0.00000000000E+00  0.26305102483E+03  0.26305102483E+03  0.00000000000E+00 0.  1.
         21   -1    0    0  501  503 -0.00000000000E+00 -0.00000000000E+00 -0.15959291148E+03  0.15959291148E+03  0.00000000000E+00 0.  1.
          6    2    1    2  501    0  0.41210242954E+02 -0.98404839531E+02  0.78575307371E+02  0.21721901269E+03  0.17212851007E+03 0.  0.
         24    2    3    3    0    0  0.19420445551E+02 -0.10550031019E+03  0.11418898316E+03  0.17460956682E+03  0.77083771271E+02 0.  0.
         -6    2    1    2    0  502 -0.41210242954E+02  0.98404839531E+02  0.24882805977E+02  0.20542492362E+03  0.17377700838E+03 0.  0.
        -24    2    5    5    0    0  0.37829049515E+02  0.24189827906E+02  0.22317924268E+02  0.96871958101E+02  0.82884870521E+02 0.  0.
          5    1    3    3  501    0  0.21789797403E+02  0.70954706601E+01 -0.35613675789E+02  0.42609445877E+02  0.47000000000E+01 0. -1.
        -15    1    4    4    0    0 -0.11110875052E+02 -0.93455825197E+02  0.61191267516E+02  0.11227186538E+03  0.17770000000E+01 0.  1.
         16    1    4    4    0    0  0.30531320603E+02 -0.12044484994E+02  0.52997715643E+02  0.62337701433E+02  0.00000000000E+00 0. -1.
         -5    1    5    5    0  502 -0.79039292469E+02  0.74215011624E+02  0.25648817087E+01  0.10855296552E+03  0.47000000000E+01 0.  1.
         15    1    6    6    0    0 -0.13514484572E+02  0.34340605964E+02  0.24762423219E+02  0.44477565625E+02  0.17770000000E+01 0. -1.
        -16    1    6    6    0    0  0.51343534088E+02 -0.10150778058E+02 -0.24444989505E+01  0.52394392476E+02  0.00000000000E+00 0.  1.
<mgrwt>
<rscale>  2 0.20356068E+03</rscale>
<asrwt>0</asrwt>
<pdfrwt beam="1">  1       21 0.40469388E-01 0.20391235E+03</pdfrwt>
<pdfrwt beam="2">  1       21 0.24552756E-01 0.20391235E+03</pdfrwt>
<totfact> 0.91802822E+04</totfact>
</mgrwt>
</event>
<event>
12    2  0.4090627E-002  0.2675229E+03  0.7546771E-02  0.1103501E+00
         21   -1    0    0  501  502  0.00000000000E+00  0.00000000000E+00  0.47450862652E+03  0.47450862652E+03  0.00000000000E+00 0. -1.
         21   -1    0    0  502  503 -0.00000000000E+00 -0.00000000000E+00 -0.16260489497E+03  0.16260489497E+03  0.00000000000E+00 0.  1.
         -6    2    1    2    0  503 -0.16485846880E+03 -0.10731083036E+03  0.61224945866E+02  0.27443945099E+03  0.18131351085E+03 0.  0.
        -24    2    3    3    0    0 -0.10913736749E+03 -0.10895414840E+03  0.10548594818E+03  0.20310455104E+03  0.79637942934E+02 0.  0.
          6    2    1    2  501    0  0.16485846880E+03  0.10731083036E+03  0.25067878568E+03  0.36267407049E+03  0.17320132438E+03 0.  0.
         24    2    5    5    0    0  0.14014054479E+03  0.14501427577E+03  0.20960452095E+03  0.30150454551E+03  0.79387803158E+02 0.  0.
          5    1    5    5  501    0  0.24717924008E+02 -0.37703445409E+02  0.41074264733E+02  0.61169524980E+02  0.47000000000E+01 0. -1.
        -15    1    6    6    0    0  0.10668009309E+03  0.54584611168E+02  0.12585764375E+03  0.17379132964E+03  0.17770000000E+01 0.  1.
         16    1    6    6    0    0  0.33460451699E+02  0.90429664601E+02  0.83746877199E+02  0.12771321587E+03  0.00000000000E+00 0. -1.
         -5    1    3    3    0  503 -0.55721101306E+02  0.16433180417E+01 -0.44261002310E+02  0.71334899947E+02  0.47000000000E+01 0.  1.
         15    1    4    4    0    0  0.11205638715E+01 -0.40753478675E+01  0.35177507036E+02  0.35475045509E+02  0.17770000000E+01 0. -1.
        -16    1    4    4    0    0 -0.11025793136E+03 -0.10487880053E+03  0.70308441141E+02  0.16762950553E+03  0.00000000000E+00 0.  1.
<mgrwt>
<rscale>  2 0.26615494E+03</rscale>
<asrwt>0</asrwt>
<pdfrwt beam="1">  1       21 0.73001327E-01 0.26752293E+03</pdfrwt>
<pdfrwt beam="2">  1       21 0.25016138E-01 0.26752293E+03</pdfrwt>
<totfact> 0.24589152E+04</totfact>
</mgrwt>
</event>
<event>
12    2  0.4090627E-002  0.1968238E+03  0.7546771E-02  0.1153432E+00
         21   -1    0    0  503  502  0.00000000000E+00  0.00000000000E+00  0.16129481254E+03  0.16129481254E+03  0.00000000000E+00 0.  1.
         21   -1    0    0  501  503 -0.00000000000E+00 -0.00000000000E+00 -0.35799521988E+03  0.35799521988E+03  0.00000000000E+00 0. -1.
          6    2    1    2  501    0 -0.16368693325E+02  0.81581449569E+02 -0.25146986441E+03  0.31933789035E+03  0.17837076126E+03 0.  0.
         24    2    3    3    0    0 -0.33636716478E+02  0.79484317083E+02 -0.71863421270E+02  0.13882986558E+03  0.81610017175E+02 0.  0.
         -6    2    1    2    0  502  0.16368693325E+02 -0.81581449569E+02  0.54769457066E+02  0.19995214207E+03  0.17337156242E+03 0.  0.
        -24    2    5    5    0    0  0.42041530132E+02 -0.53814868489E+02  0.96145008112E+02  0.14370177496E+03  0.82114598073E+02 0.  0.
          5    1    3    3  501    0  0.17268023153E+02  0.20971324858E+01 -0.17960644314E+03  0.18050802477E+03  0.47000000000E+01 0. -1.
        -15    1    4    4    0    0 -0.27365132532E+02 -0.90140513671E+01 -0.26496491327E+02  0.39183228328E+02  0.17770000000E+01 0.  1.
         16    1    4    4    0    0 -0.62715839453E+01  0.88498368450E+02 -0.45366929943E+02  0.99646637254E+02  0.00000000000E+00 0. -1.
         -5    1    5    5    0  502 -0.25672836808E+02 -0.27766581080E+02 -0.41375551046E+02  0.56250367101E+02  0.47000000000E+01 0.  1.
         15    1    6    6    0    0  0.34209994163E+02 -0.24040116547E+02 -0.93144564474E+00  0.41860198568E+02  0.17770000000E+01 0. -1.
        -16    1    6    6    0    0  0.78315359694E+01 -0.29774751942E+02  0.97076453757E+02  0.10184157640E+03  0.00000000000E+00 0.  1.
<mgrwt>
<rscale>  2 0.19568419E+03</rscale>
<asrwt>0</asrwt>
<pdfrwt beam="1">  1       21 0.24814587E-01 0.19682377E+03</pdfrwt>
<pdfrwt beam="2">  1       21 0.55076187E-01 0.19682377E+03</pdfrwt>
<totfact> 0.47683578E+04</totfact>
</mgrwt>
</event>
<event>
12    2  0.4090627E-002  0.1774605E+03  0.7546771E-02  0.1170299E+00
         21   -1    0    0  501  502  0.00000000000E+00  0.00000000000E+00  0.27699911104E+03  0.27699911104E+03  0.00000000000E+00 0. -1.
         21   -1    0    0  502  503 -0.00000000000E+00 -0.00000000000E+00 -0.32586060730E+03  0.32586060730E+03  0.00000000000E+00 0. -1.
         -6    2    1    2    0  503  0.33965100032E+02  0.18671640129E+02 -0.26767992234E+03  0.32112629549E+03  0.17311065440E+03 0.  0.
        -24    2    3    3    0    0  0.32967775639E+02  0.78242996555E+02 -0.15527954700E+03  0.19382478121E+03  0.79040922014E+02 0.  0.
          6    2    1    2  501    0 -0.33965100032E+02 -0.18671640129E+02  0.21881842608E+03  0.28173342285E+03  0.17317609476E+03 0.  0.
         24    2    5    5    0    0 -0.69070675442E+02  0.55274480588E+00  0.68537611687E+02  0.12614296178E+03  0.80271905789E+02 0.  0.
          5    1    5    5  501    0  0.35105575410E+02 -0.19224384935E+02  0.15028081439E+03  0.15559046107E+03  0.47000000000E+01 0. -1.
        -15    1    6    6    0    0 -0.21121904461E+02 -0.33809092590E+02  0.63125385602E+01  0.40400438883E+02  0.17770000000E+01 0.  1.
         16    1    6    6    0    0 -0.47948770981E+02  0.34361837396E+02  0.62225073127E+02  0.85742522901E+02  0.00000000000E+00 0. -1.
         -5    1    3    3    0  503  0.99732439235E+00 -0.59571356425E+02 -0.11240037534E+03  0.12730151428E+03  0.47000000000E+01 0.  1.
         15    1    4    4    0    0  0.35003662989E+01  0.85000235069E+02 -0.12336242815E+03  0.14986240000E+03  0.17770000000E+01 0. -1.
        -16    1    4    4    0    0  0.29467409341E+02 -0.67572385146E+01 -0.31917118854E+02  0.43962381208E+02  0.00000000000E+00 0.  1.
<mgrwt>
<rscale>  2 0.17744450E+03</rscale>
<asrwt>0</asrwt>
<pdfrwt beam="1">  1       21 0.42615248E-01 0.17746047E+03</pdfrwt>
<pdfrwt beam="2">  1       21 0.50132401E-01 0.17746047E+03</pdfrwt>
<totfact> 0.20256071E+04</totfact>
</mgrwt>
</event>
<event>
12    2  0.4090627E-002  0.3008075E+03  0.7546771E-02  0.1085123E+00
         21   -1    0    0  503  502  0.00000000000E+00  0.00000000000E+00  0.49867659129E+03  0.49867659129E+03  0.00000000000E+00 0.  1.
         21   -1    0    0  501  503 -0.00000000000E+00 -0.00000000000E+00 -0.19595687566E+03  0.19595687566E+03  0.00000000000E+00 0. -1.
          6    2    1    2  501    0 -0.23986543341E+03  0.52016915005E+02  0.24970116576E+03  0.38918931017E+03  0.16993075466E+03 0.  0.
         24    2    3    3    0    0 -0.56925364511E+02  0.26889372228E+02  0.14361634977E+03  0.17617630494E+03  0.80305037429E+02 0.  0.
         -6    2    1    2    0  502  0.23986543341E+03 -0.52016915005E+02  0.53018549869E+02  0.30544415678E+03  0.17390796614E+03 0.  0.
        -24    2    5    5    0    0  0.15174654611E+03  0.25320643428E+01 -0.27511524979E+02  0.17411361043E+03  0.80778955963E+02 0.  0.
          5    1    3    3  501    0 -0.18294006890E+03  0.25127542778E+02  0.10608481598E+03  0.21301300523E+03  0.47000000000E+01 0. -1.
        -15    1    4    4    0    0 -0.61117661203E+02 -0.84960612646E+01  0.63844520198E+02  0.88807837809E+02  0.17770000000E+01 0.  1.
         16    1    4    4    0    0  0.41922966921E+01  0.35385433492E+02  0.79771829576E+02  0.87368467132E+02  0.00000000000E+00 0. -1.
         -5    1    5    5    0  502  0.88118887308E+02 -0.54548979348E+02  0.80530074848E+02  0.13133054635E+03  0.47000000000E+01 0.  1.
         15    1    6    6    0    0  0.10040930686E+03  0.70616114080E+01  0.21555290817E+02  0.10295476458E+03  0.17770000000E+01 0. -1.
        -16    1    6    6    0    0  0.51337239249E+02 -0.45295470652E+01 -0.49066815796E+02  0.71158845850E+02  0.00000000000E+00 0.  1.
<mgrwt>
<rscale>  2 0.30023546E+03</rscale>
<asrwt>0</asrwt>
<pdfrwt beam="1">  1       21 0.76719475E-01 0.30080752E+03</pdfrwt>
<pdfrwt beam="2">  1       21 0.30147212E-01 0.30080752E+03</pdfrwt>
<totfact> 0.15071328E+04</totfact>
</mgrwt>
</event>
<event>
12    2  0.4090627E-002  0.2624535E+03  0.7546771E-02  0.1105715E+00
         21   -1    0    0  503  502  0.00000000000E+00  0.00000000000E+00  0.29184230654E+02  0.29184230654E+02  0.00000000000E+00 0. -1.
         21   -1    0    0  501  503 -0.00000000000E+00 -0.00000000000E+00 -0.23859135907E+04  0.23859135907E+04  0.00000000000E+00 0.  1.
          6    2    1    2  501    0  0.41660109211E+02  0.19259594627E+03 -0.13084705322E+04  0.13344829921E+04  0.17297675935E+03 0.  0.
         24    2    3    3    0    0  0.86892389749E+02  0.95907169033E+02 -0.66992780946E+03  0.68706228063E+03  0.80640158122E+02 0.  0.
         -6    2    1    2    0  502 -0.41660109211E+02 -0.19259594627E+03 -0.10482588278E+04  0.10806148293E+04  0.17335822993E+03 0.  0.
        -24    2    5    5    0    0 -0.13062540301E+02 -0.17315930359E+03 -0.10131096750E+04  0.10310854746E+04  0.81186624573E+02 0.  0.
          5    1    3    3  501    0 -0.45232280538E+02  0.96688777241E+02 -0.63854272273E+03  0.64742071144E+03  0.47000000000E+01 0. -1.
        -15    1    4    4    0    0  0.66374202761E+01  0.41480506213E+02 -0.35665519607E+03  0.35912501215E+03  0.17770000000E+01 0.  1.
         16    1    4    4    0    0  0.80254969473E+02  0.54426662820E+02 -0.31327261340E+03  0.32793726848E+03  0.00000000000E+00 0. -1.
         -5    1    5    5    0  502 -0.28597568910E+02 -0.19436642685E+02 -0.35149152800E+02  0.49529354619E+02  0.47000000000E+01 0.  1.
         15    1    6    6    0    0 -0.47811347768E+01 -0.17571032664E+03 -0.10002495560E+04  0.10155783132E+04  0.17770000000E+01 0. -1.
        -16    1    6    6    0    0 -0.82814055247E+01  0.25510230544E+01 -0.12860119020E+02  0.15507161484E+02  0.00000000000E+00 0.  1.
<mgrwt>
<rscale>  2 0.26239052E+03</rscale>
<asrwt>0</asrwt>
<pdfrwt beam="1">  1       21 0.44898816E-02 0.26245350E+03</pdfrwt>
<pdfrwt beam="2">  1       21 0.36706363E+00 0.26245350E+03</pdfrwt>
<totfact> 0.41273457E+03</totfact>
</mgrwt>
</event>
<event>
12    2  0.4090627E-002  0.2186586E+03  0.7546771E-02  0.1135428E+00
         21   -1    0    0  503  502  0.00000000000E+00  0.00000000000E+00  0.99061431909E+02  0.99061431909E+02  0.00000000000E+00 0.  1.
         21   -1    0    0  501  503 -0.00000000000E+00 -0.00000000000E+00 -0.58008036847E+03  0.58008036847E+03  0.00000000000E+00 0. -1.
          6    2    1    2  501    0  0.28671578181E+02 -0.12839065258E+03 -0.38279800226E+03  0.43943585443E+03  0.17106531080E+03 0.  0.
         24    2    3    3    0    0  0.17612205472E+02 -0.39433596343E+01 -0.21561541619E+03  0.23067391936E+03  0.79966927602E+02 0.  0.
         -6    2    1    2    0  502 -0.28671578181E+02  0.12839065258E+03 -0.98220934297E+02  0.23970594594E+03  0.17465786418E+03 0.  0.
        -24    2    5    5    0    0 -0.75370254128E+02  0.11500361475E+03 -0.40326358220E+02  0.16398374936E+03  0.79736743550E+02 0.  0.
          5    1    3    3  501    0  0.11059372709E+02 -0.12444729295E+03 -0.16718258608E+03  0.20876193507E+03  0.47000000000E+01 0. -1.
        -15    1    4    4    0    0  0.29623878958E+02  0.18262544206E+02 -0.39149632234E+02  0.52411317083E+02  0.17770000000E+01 0.  1.
         16    1    4    4    0    0 -0.12011673486E+02 -0.22205903840E+02 -0.17646578395E+03  0.17826260228E+03  0.00000000000E+00 0. -1.
         -5    1    5    5    0  502  0.46698675947E+02  0.13387037832E+02 -0.57894576077E+02  0.75722196589E+02  0.47000000000E+01 0.  1.
         15    1    6    6    0    0 -0.13813464622E+02  0.34516602524E+02 -0.49846167050E+02  0.62209370301E+02  0.17770000000E+01 0. -1.
        -16    1    6    6    0    0 -0.61556789507E+02  0.80487012228E+02  0.95198088302E+01  0.10177437905E+03  0.00000000000E+00 0.  1.
<mgrwt>
<rscale>  2 0.21794038E+03</rscale>
<asrwt>0</asrwt>
<pdfrwt beam="1">  1       21 0.15240221E-01 0.21865861E+03</pdfrwt>
<pdfrwt beam="2">  1       21 0.89243132E-01 0.21865861E+03</pdfrwt>
<totfact> 0.40281358E+04</totfact>
</mgrwt>
</event>
<event>
12    2  0.4090627E-002  0.2358287E+03  0.7546771E-02  0.1122721E+00
         21   -1    0    0  503  502  0.00000000000E+00  0.00000000000E+00  0.36984462924E+03  0.36984462924E+03  0.00000000000E+00 0.  1.
         21   -1    0    0  501  503 -0.00000000000E+00 -0.00000000000E+00 -0.33616523502E+03  0.33616523502E+03  0.00000000000E+00 0. -1.
          6    2    1    2  501    0  0.13451579165E+03  0.85624041828E+02 -0.24591216898E+03  0.34024131370E+03  0.17281603499E+03 0.  0.
         24    2    3    3    0    0  0.47595107133E+01  0.32691936759E+02 -0.99565010550E+02  0.13756403088E+03  0.88990199425E+02 0.  0.
         -6    2    1    2    0  502 -0.13451579165E+03 -0.85624041828E+02  0.27959156321E+03  0.36576855057E+03  0.17375044065E+03 0.  0.
        -24    2    5    5    0    0  0.29078620772E+00 -0.31939994686E+02  0.12321759381E+03  0.15239165712E+03  0.83787790993E+02 0.  0.
          5    1    3    3  501    0  0.12975628094E+03  0.52932105069E+02 -0.14634715843E+03  0.20267728282E+03  0.47000000000E+01 0. -1.
        -15    1    4    4    0    0 -0.17131493531E+02  0.53511359736E+02 -0.34839846506E+02  0.66135666058E+02  0.17770000000E+01 0.  1.
         16    1    4    4    0    0  0.21891004244E+02 -0.20819422977E+02 -0.64725164045E+02  0.71428364818E+02  0.00000000000E+00 0. -1.
         -5    1    5    5    0  502 -0.13480657786E+03 -0.53684047142E+02  0.15637396940E+03  0.21337689345E+03  0.47000000000E+01 0.  1.
         15    1    6    6    0    0 -0.23202925108E+02  0.19613627260E+02  0.26755271839E+02  0.40522492619E+02  0.17770000000E+01 0. -1.
        -16    1    6    6    0    0  0.23493711315E+02 -0.51553621946E+02  0.96462321966E+02  0.11186916450E+03  0.00000000000E+00 0.  1.
<mgrwt>
<rscale>  2 0.23565665E+03</rscale>
<asrwt>0</asrwt>
<pdfrwt beam="1">  1       21 0.56899174E-01 0.23582873E+03</pdfrwt>
<pdfrwt beam="2">  1       21 0.51717729E-01 0.23582873E+03</pdfrwt>
<totfact> 0.10023343E+04</totfact>
</mgrwt>
</event>
<event>
12    2  0.4090627E-002  0.1725611E+03  0.7546771E-02  0.1176240E+00
         21   -1    0    0  503  502  0.00000000000E+00  0.00000000000E+00  0.14925770636E+03  0.14925770636E+03  0.00000000000E+00 0.  1.
         21   -1    0    0  501  503 -0.00000000000E+00 -0.00000000000E+00 -0.20360866057E+03  0.20360866057E+03  0.00000000000E+00 0.  1.
          6    2    1    2  501    0  0.90410415553E+01 -0.18350785661E+02 -0.63355556537E+02  0.18007050384E+03  0.16731099199E+03 0.  0.
         24    2    3    3    0    0  0.32378643270E+02  0.30428674599E+01 -0.88282895599E+02  0.13950211367E+03  0.10300162369E+03 0.  0.
         -6    2    1    2    0  502 -0.90410415553E+01  0.18350785661E+02  0.90046023327E+01  0.17279586309E+03  0.17134420233E+03 0.  0.
        -24    2    5    5    0    0 -0.60952245024E+02 -0.25309996147E+02  0.10400158465E+02  0.10478796289E+03  0.80725347887E+02 0.  0.
          5    1    3    3  501    0 -0.23337601714E+02 -0.21393653121E+02  0.24927339062E+02  0.40568390162E+02  0.47000000000E+01 0. -1.
        -15    1    4    4    0    0 -0.27998815101E+02  0.14885841980E+02 -0.67432282238E+02  0.74537187735E+02  0.17770000000E+01 0.  1.
         16    1    4    4    0    0  0.60377458371E+02 -0.11842974521E+02 -0.20850613361E+02  0.64964925939E+02  0.00000000000E+00 0. -1.
         -5    1    5    5    0  502  0.51911203469E+02  0.43660781808E+02 -0.13955561321E+01  0.68007900207E+02  0.47000000000E+01 0.  1.
         15    1    6    6    0    0 -0.38808422632E+02 -0.20514328471E+01 -0.32850967962E+02  0.50918030883E+02  0.17770000000E+01 0. -1.
        -16    1    6    6    0    0 -0.22143822392E+02 -0.23258563300E+02  0.43251126427E+02  0.53869932004E+02  0.00000000000E+00 0.  1.
<mgrwt>
<rscale>  2 0.17155123E+03</rscale>
<asrwt>0</asrwt>
<pdfrwt beam="1">  1       21 0.22962724E-01 0.17256108E+03</pdfrwt>
<pdfrwt beam="2">  1       21 0.31324409E-01 0.17256108E+03</pdfrwt>
<totfact> 0.17542575E+05</totfact>
</mgrwt>
</event>
<event>
12    2  0.4090627E-002  0.2374395E+03  0.7546771E-02  0.1121573E+00
         21   -1    0    0  503  502  0.00000000000E+00  0.00000000000E+00  0.29202032836E+03  0.29202032836E+03  0.00000000000E+00 0. -1.
         21   -1    0    0  501  503 -0.00000000000E+00 -0.00000000000E+00 -0.19553412191E+03  0.19553412191E+03  0.00000000000E+00 0. -1.
          6    2    1    2  501    0 -0.60348244342E+02 -0.15120317832E+03  0.19239534350E+02  0.23821775048E+03  0.17283872607E+03 0.  0.
         24    2    3    3    0    0 -0.19467361007E+02 -0.16965006184E+03  0.16377748473E+02  0.19303131499E+03  0.88502747381E+02 0.  0.
         -6    2    1    2    0  502  0.60348244342E+02  0.15120317832E+03  0.77246672108E+02  0.24933669979E+03  0.17232942228E+03 0.  0.
        -24    2    5    5    0    0  0.62516851674E+02  0.43153890986E+02  0.86704687801E+02  0.14075081023E+03  0.80761826645E+02 0.  0.
          5    1    3    3  501    0 -0.40880883334E+02  0.18446883518E+02  0.28617858779E+01  0.45186435488E+02  0.47000000000E+01 0. -1.
        -15    1    4    4    0    0 -0.94882667701E+01 -0.11690171499E+03  0.52306750095E+02  0.12843360935E+03  0.17770000000E+01 0.  1.
         16    1    4    4    0    0 -0.99790942372E+01 -0.52748346845E+02 -0.35929001622E+02  0.64597705642E+02  0.00000000000E+00 0. -1.
         -5    1    5    5    0  502 -0.21686073320E+01  0.10804928734E+03 -0.94580156933E+01  0.10858588956E+03  0.47000000000E+01 0.  1.
         15    1    6    6    0    0  0.64645618309E+02  0.38952821436E+02  0.25975056605E+02  0.79838834905E+02  0.17770000000E+01 0. -1.
        -16    1    6    6    0    0 -0.21287666350E+01  0.42010695507E+01  0.60729631196E+02  0.60911975325E+02  0.00000000000E+00 0.  1.
<mgrwt>
<rscale>  2 0.23734687E+03</rscale>
<asrwt>0</asrwt>
<pdfrwt beam="1">  1       21 0.44926204E-01 0.23743954E+03</pdfrwt>
<pdfrwt beam="2">  1       21 0.30082173E-01 0.23743954E+03</pdfrwt>
<totfact> 0.49374403E+04</totfact>
</mgrwt>
</event>
<event>
12    2  0.4090627E-002  0.1852471E+03  0.7546771E-02  0.1164651E+00
         21   -1    0    0  503  502  0.00000000000E+00  0.00000000000E+00  0.19353201000E+03  0.19353201000E+03  0.00000000000E+00 0. -1.
         21   -1    0    0  501  503 -0.00000000000E+00 -0.00000000000E+00 -0.30764268700E+03  0.30764268700E+03  0.00000000000E+00 0. -1.
          6    2    1    2  501    0  0.55510277668E+02 -0.34923398785E+02 -0.22395763960E+03  0.28580796376E+03  0.16500949398E+03 0.  0.
         24    2    3    3    0    0  0.19040632173E+02 -0.66432981199E+02 -0.55859391843E+02  0.11087369117E+03  0.66308499250E+02 0.  0.
         -6    2    1    2    0  502 -0.55510277668E+02  0.34923398785E+02  0.10984696260E+03  0.21536673324E+03  0.17324964613E+03 0.  0.
        -24    2    5    5    0    0 -0.61144294378E+02 -0.14408533619E+02  0.12792209630E+03  0.16231786749E+03  0.77696826230E+02 0.  0.
          5    1    3    3  501    0  0.36469645495E+02  0.31509582414E+02 -0.16809824775E+03  0.17493427258E+03  0.47000000000E+01 0. -1.
        -15    1    4    4    0    0 -0.21374023809E+01 -0.21541953626E+02  0.13506950324E+02  0.25577718644E+02  0.17770000000E+01 0.  1.
         16    1    4    4    0    0  0.21178034554E+02 -0.44891027573E+02 -0.69366342167E+02  0.85295972530E+02  0.00000000000E+00 0. -1.
         -5    1    5    5    0  502  0.56340167098E+01  0.49331932404E+02 -0.18075133705E+02  0.53048865751E+02  0.47000000000E+01 0.  1.
         15    1    6    6    0    0 -0.32356135015E+02  0.31772920303E+02  0.62022357506E+02  0.76852901684E+02  0.17770000000E+01 0. -1.
        -16    1    6    6    0    0 -0.28788159363E+02 -0.46181453921E+02  0.65899738798E+02  0.85464965801E+02  0.00000000000E+00 0.  1.
<mgrwt>
<rscale>  2 0.18329582E+03</rscale>
<asrwt>0</asrwt>
<pdfrwt beam="1">  1       21 0.29774156E-01 0.18524706E+03</pdfrwt>
<pdfrwt beam="2">  1       21 0.47329644E-01 0.18524706E+03</pdfrwt>
<totfact> 0.46345650E+04</totfact>
</mgrwt>
</event>
<event>
12    2  0.4090627E-002  0.1755123E+03  0.7546771E-02  0.1172299E+00
         21   -1    0    0  501  502  0.00000000000E+00  0.00000000000E+00  0.11186882674E+04  0.11186882674E+04  0.00000000000E+00 0.  1.
         21   -1    0    0  502  503 -0.00000000000E+00 -0.00000000000E+00 -0.32111818451E+02  0.32111818451E+02  0.00000000000E+00 0.  1.
         -6    2    1    2    0  503 -0.89037003391E+01 -0.30222548931E+02  0.32447547738E+03  0.36874992322E+03  0.17233540586E+03 0.  0.
        -24    2    3    3    0    0 -0.26540576281E+00 -0.79958709376E+02  0.15639065687E+03  0.19318539755E+03  0.80430682118E+02 0.  0.
          6    2    1    2  501    0  0.89037003391E+01  0.30222548931E+02  0.76210097157E+03  0.78205016263E+03  0.17266119324E+03 0.  0.
         24    2    5    5    0    0 -0.42650517363E+02 -0.27905585628E+02  0.38342993010E+03  0.39546179622E+03  0.82302689109E+02 0.  0.
          5    1    5    5  501    0  0.51554217702E+02  0.58128134559E+02  0.37867104147E+03  0.38658836640E+03  0.47000000000E+01 0. -1.
        -15    1    6    6    0    0  0.21688637646E+02  0.68081294356E+01  0.11598100257E+03  0.11820109270E+03  0.17770000000E+01 0.  1.
         16    1    6    6    0    0 -0.64339155009E+02 -0.34713715064E+02  0.26744892753E+03  0.27726070352E+03  0.00000000000E+00 0. -1.
         -5    1    3    3    0  503 -0.86382945763E+01  0.49736160445E+02  0.16808482051E+03  0.17556452567E+03  0.47000000000E+01 0.  1.
         15    1    4    4    0    0  0.34843074738E+02 -0.62135836390E+02  0.79246014265E+02  0.10657387357E+03  0.17770000000E+01 0. -1.
        -16    1    4    4    0    0 -0.35108480501E+02 -0.17822872986E+02  0.77144642601E+02  0.86611523982E+02  0.00000000000E+00 0.  1.
<mgrwt>
<rscale>  2 0.17543212E+03</rscale>
<asrwt>0</asrwt>
<pdfrwt beam="1">  1       21 0.17210586E+00 0.17551230E+03</pdfrwt>
<pdfrwt beam="2">  1       21 0.49402806E-02 0.17551230E+03</pdfrwt>
<totfact> 0.57198540E+04</totfact>
</mgrwt>
</event>
<event>
12    2  0.4090627E-002  0.1928132E+03  0.7546771E-02  0.1156169E+00
         21   -1    0    0  501  502  0.00000000000E+00  0.00000000000E+00  0.13828814145E+03  0.13828814145E+03  0.00000000000E+00 0. -1.
         21   -1    0    0  502  503 -0.00000000000E+00 -0.00000000000E+00 -0.60688755256E+03  0.60688755256E+03  0.00000000000E+00 0. -1.
         -6    2    1    2    0  503 -0.83096654865E+02  0.18606357050E+02 -0.51321196637E+03  0.54823667327E+03  0.17299039545E+03 0.  0.
        -24    2    3    3    0    0  0.15364177277E+02 -0.13723995644E+02 -0.14896514339E+03  0.16950507276E+03  0.78210931119E+02 0.  0.
          6    2    1    2  501    0  0.83096654865E+02 -0.18606357050E+02  0.44612555258E+02  0.19693902074E+03  0.17188207362E+03 0.  0.
         24    2    5    5    0    0  0.19687030729E+02  0.39115005554E+02  0.15793816761E+02  0.10635676077E+03  0.95628202296E+02 0.  0.
          5    1    5    5  501    0  0.63409624135E+02 -0.57721362605E+02  0.28818738497E+02  0.90582259977E+02  0.47000000000E+01 0. -1.
        -15    1    6    6    0    0 -0.18895350240E+02 -0.12812036142E+02 -0.21731781197E+02  0.31569139580E+02  0.17770000000E+01 0.  1.
         16    1    6    6    0    0  0.38582380969E+02  0.51927041697E+02  0.37525597958E+02  0.74787621186E+02  0.00000000000E+00 0. -1.
         -5    1    3    3    0  503 -0.98460832142E+02  0.32330352694E+02 -0.36424682298E+03  0.37873160051E+03  0.47000000000E+01 0.  1.
         15    1    4    4    0    0  0.21258726444E+01 -0.20464754878E+02 -0.15277838030E+03  0.15416782006E+03  0.17770000000E+01 0. -1.
        -16    1    4    4    0    0  0.13238304633E+02  0.67407592338E+01  0.38132369101E+01  0.15337252698E+02  0.00000000000E+00 0.  1.
<mgrwt>
<rscale>  2 0.19256427E+03</rscale>
<asrwt>0</asrwt>
<pdfrwt beam="1">  1       21 0.21275099E-01 0.19281319E+03</pdfrwt>
<pdfrwt beam="2">  1       21 0.93367316E-01 0.19281319E+03</pdfrwt>
<totfact> 0.19831821E+04</totfact>
</mgrwt>
</event>
<event>
12    2  0.4090627E-002  0.2082923E+03  0.7546771E-02  0.1143004E+00
         21   -1    0    0  503  502  0.00000000000E+00  0.00000000000E+00  0.21757641045E+04  0.21757641045E+04  0.00000000000E+00 0. -1.
         21   -1    0    0  501  503 -0.00000000000E+00 -0.00000000000E+00 -0.20750093734E+02  0.20750093734E+02  0.00000000000E+00 0.  1.
          6    2    1    2  501    0 -0.71998611172E+02  0.90733177175E+02  0.85459851428E+03  0.87952287036E+03  0.17264283775E+03 0.  0.
         24    2    3    3    0    0 -0.16605937501E+02  0.63487898940E+02  0.75890069011E+03  0.76554560494E+03  0.76310846657E+02 0.  0.
         -6    2    1    2    0  502  0.71998611172E+02 -0.90733177175E+02  0.13004154965E+04  0.13169913279E+04  0.17311667955E+03 0.  0.
        -24    2    5    5    0    0 -0.11925815487E+02 -0.18769919818E+02  0.79859639994E+03  0.80311730103E+03  0.82138019583E+02 0.  0.
          5    1    3    3  501    0 -0.55392673670E+02  0.27245278235E+02  0.95697824168E+02  0.11397726542E+03  0.47000000000E+01 0. -1.
        -15    1    4    4    0    0 -0.20972232800E+02  0.27798284334E+01  0.54020519055E+02  0.58042537872E+02  0.17770000000E+01 0.  1.
         16    1    4    4    0    0  0.43662952991E+01  0.60708070507E+02  0.70488017105E+03  0.70750306706E+03  0.00000000000E+00 0. -1.
         -5    1    5    5    0  502  0.83924426659E+02 -0.71963257357E+02  0.50181909658E+03  0.51387402687E+03  0.47000000000E+01 0.  1.
         15    1    6    6    0    0 -0.12970124887E+02 -0.44604584388E+02  0.68673771084E+03  0.68830925775E+03  0.17770000000E+01 0. -1.
        -16    1    6    6    0    0  0.10443094000E+01  0.25834664569E+02  0.11185868909E+03  0.11480804328E+03  0.00000000000E+00 0.  1.
<mgrwt>
<rscale>  2 0.20819385E+03</rscale>
<asrwt>0</asrwt>
<pdfrwt beam="1">  1       21 0.33473276E+00 0.20829233E+03</pdfrwt>
<pdfrwt beam="2">  1       21 0.31923238E-02 0.20829233E+03</pdfrwt>
<totfact> 0.12059103E+04</totfact>
</mgrwt>
</event>
<event>
12    2  0.4090627E-002  0.1845235E+03  0.7546771E-02  0.1163631E+00
         21   -1    0    0  503  502  0.00000000000E+00  0.00000000000E+00  0.10600187765E+04  0.10600187765E+04  0.00000000000E+00 0.  1.
         21   -1    0    0  501  503 -0.00000000000E+00 -0.00000000000E+00 -0.33016490036E+02  0.33016490036E+02  0.00000000000E+00 0.  1.
          6    2    1    2  501    0  0.63666942460E+02  0.47346277096E+01  0.41779942801E+03  0.45650006771E+03  0.17251102434E+03 0.  0.
         24    2    3    3    0    0  0.64117886132E+02 -0.48196859091E+02  0.36272594658E+03  0.37996821813E+03  0.79822890916E+02 0.  0.
         -6    2    1    2    0  502 -0.63666942460E+02 -0.47346277096E+01  0.60920285842E+03  0.63653519878E+03  0.17312723738E+03 0.  0.
        -24    2    5    5    0    0 -0.51377373336E+02  0.62694976858E+02  0.33642367729E+03  0.35523756862E+03  0.80265465174E+02 0.  0.
          5    1    3    3  501    0 -0.45094367269E+00  0.52931486800E+02  0.55073481422E+02  0.76531849586E+02  0.47000000000E+01 0. -1.
        -15    1    4    4    0    0  0.33553249856E+02 -0.45660300367E+02  0.96033457266E+02  0.11151800863E+03  0.17770000000E+01 0.  1.
         16    1    4    4    0    0  0.30564636277E+02 -0.25365587237E+01  0.26669248932E+03  0.26845020950E+03  0.00000000000E+00 0. -1.
         -5    1    5    5    0  502 -0.12289569124E+02 -0.67429604567E+02  0.27277918113E+03  0.28129763017E+03  0.47000000000E+01 0.  1.
         15    1    6    6    0    0  0.93206637491E+00 -0.14712805985E+02  0.17701163033E+02  0.23104638266E+02  0.17770000000E+01 0. -1.
        -16    1    6    6    0    0 -0.52309439711E+02  0.77407782843E+02  0.31872251426E+03  0.33213293035E+03  0.00000000000E+00 0.  1.
<mgrwt>
<rscale>  2 0.18437886E+03</rscale>
<asrwt>0</asrwt>
<pdfrwt beam="1">  1       21 0.16307979E+00 0.18452354E+03</pdfrwt>
<pdfrwt beam="2">  1       21 0.50794608E-02 0.18452354E+03</pdfrwt>
<totfact> 0.62884703E+04</totfact>
</mgrwt>
</event>
<event>
12    2  0.4090627E-002  0.1850935E+03  0.7546771E-02  0.1163212E+00
         21   -1    0    0  503  502  0.00000000000E+00  0.00000000000E+00  0.16024428480E+02  0.16024428480E+02  0.00000000000E+00 0.  1.
         21   -1    0    0  501  503 -0.00000000000E+00 -0.00000000000E+00 -0.23086092418E+04  0.23086092418E+04  0.00000000000E+00 0.  1.
          6    2    1    2  501    0  0.63386471212E+01 -0.60892324404E+02 -0.82215460838E+03  0.84273235277E+03  0.17467559847E+03 0.  0.
         24    2    3    3    0    0  0.54988431339E+01 -0.10385460628E+03 -0.70722046754E+03  0.71993817674E+03  0.85639781069E+02 0.  0.
         -6    2    1    2    0  502 -0.63386471212E+01  0.60892324404E+02 -0.14704302049E+04  0.14819013175E+04  0.17354674768E+03 0.  0.
        -24    2    5    5    0    0  0.15844861799E+02  0.61279340798E+02 -0.46468240927E+03  0.47589785016E+03  0.80887607460E+02 0.  0.
          5    1    3    3  501    0  0.83980398728E+00  0.42962281878E+02 -0.11493414084E+03  0.12279417603E+03  0.47000000000E+01 0. -1.
        -15    1    4    4    0    0  0.10610725824E+02 -0.91163717003E+01 -0.12731538689E+02  0.18998566837E+02  0.17770000000E+01 0.  1.
         16    1    4    4    0    0 -0.51118826904E+01 -0.94738234581E+02 -0.69448892885E+03  0.70093960990E+03  0.00000000000E+00 0. -1.
         -5    1    5    5    0  502 -0.22183508921E+02 -0.38701639383E+00 -0.10057477956E+04  0.10060034673E+04  0.47000000000E+01 0.  1.
         15    1    6    6    0    0  0.98671867265E+01 -0.18632129109E+02 -0.13299631253E+03  0.13466883264E+03  0.17770000000E+01 0. -1.
        -16    1    6    6    0    0  0.59776750728E+01  0.79911469907E+02 -0.33168609675E+03  0.34122901752E+03  0.00000000000E+00 0.  1.
<mgrwt>
<rscale>  2 0.18482673E+03</rscale>
<asrwt>0</asrwt>
<pdfrwt beam="1">  1       21 0.24652972E-02 0.18509354E+03</pdfrwt>
<pdfrwt beam="2">  1       21 0.35517058E+00 0.18509354E+03</pdfrwt>
<totfact> 0.14380471E+04</totfact>
</mgrwt>
</event>
<event>
12    2  0.4090627E-002  0.1944075E+03  0.7546771E-02  0.1155458E+00
         21   -1    0    0  501  502  0.00000000000E+00  0.00000000000E+00  0.73443113755E+02  0.73443113755E+02  0.00000000000E+00 0.  1.
         21   -1    0    0  502  503 -0.00000000000E+00 -0.00000000000E+00 -0.50403026201E+03  0.50403026201E+03  0.00000000000E+00 0.  1.
         -6    2    1    2    0  503  0.22705050253E+02 -0.84508736280E+02 -0.21978065604E+03  0.29070928429E+03  0.16897072346E+03 0.  0.
        -24    2    3    3    0    0  0.34162995437E+02 -0.75704583034E+02 -0.58631803777E+02  0.12884563733E+03  0.79153115507E+02 0.  0.
          6    2    1    2  501    0 -0.22705050253E+02  0.84508736280E+02 -0.21080649221E+03  0.28676409147E+03  0.17360017622E+03 0.  0.
         24    2    5    5    0    0  0.34775330118E+02 -0.46374256156E+00 -0.12576109454E+03  0.15342570258E+03  0.80709693776E+02 0.  0.
          5    1    5    5  501    0 -0.57480380371E+02  0.84972478841E+02 -0.85045397667E+02  0.13333838889E+03  0.47000000000E+01 0. -1.
        -15    1    6    6    0    0 -0.23938637149E+02  0.35029652029E+01 -0.16542797761E+02  0.29362407949E+02  0.17770000000E+01 0.  1.
         16    1    6    6    0    0  0.58713967267E+02 -0.39667077645E+01 -0.10921829678E+03  0.12406329463E+03  0.00000000000E+00 0. -1.
         -5    1    3    3    0  503 -0.11457945184E+02 -0.88041532456E+01 -0.16114885226E+03  0.16186364696E+03  0.47000000000E+01 0.  1.
         15    1    4    4    0    0 -0.25519885838E+02 -0.16241596863E+02 -0.18748806196E+02  0.35633264019E+02  0.17770000000E+01 0. -1.
        -16    1    4    4    0    0  0.59682881275E+02 -0.59462986171E+02 -0.39882997581E+02  0.93212373308E+02  0.00000000000E+00 0.  1.
<mgrwt>
<rscale>  2 0.19336854E+03</rscale>
<asrwt>0</asrwt>
<pdfrwt beam="1">  1       21 0.11298940E-01 0.19440748E+03</pdfrwt>
<pdfrwt beam="2">  1       21 0.77543119E-01 0.19440748E+03</pdfrwt>
<totfact> 0.96342836E+04</totfact>
</mgrwt>
</event>
<event>
12    2  0.4090627E-002  0.2116476E+03  0.7546771E-02  0.1140609E+00
         21   -1    0    0  503  502  0.00000000000E+00  0.00000000000E+00  0.46779392864E+03  0.46779392864E+03  0.00000000000E+00 0.  1.
         21   -1    0    0  501  503 -0.00000000000E+00 -0.00000000000E+00 -0.28898140597E+03  0.28898140597E+03  0.00000000000E+00 0.  1.
          6    2    1    2  501    0  0.10746114083E+03  0.54609171068E+02 -0.22074804284E+03  0.30462119135E+03  0.17185550165E+03 0.  0.
         24    2    3    3    0    0  0.58363771029E+02 -0.33389028717E+02 -0.14199438242E+03  0.17664281850E+03  0.80741090421E+02 0.  0.
         -6    2    1    2    0  502 -0.10746114083E+03 -0.54609171068E+02  0.39956056551E+03  0.45215414327E+03  0.17396742630E+03 0.  0.
        -24    2    5    5    0    0 -0.59181126594E+02 -0.10187382860E+03  0.24824540886E+03  0.28637334143E+03  0.80642575386E+02 0.  0.
          5    1    3    3  501    0  0.49097369798E+02  0.87998199786E+02 -0.78753660420E+02  0.12797837285E+03  0.47000000000E+01 0. -1.
        -15    1    4    4    0    0  0.68792432249E+02 -0.17874868232E+02 -0.61502164399E+02  0.94008423047E+02  0.17770000000E+01 0.  1.
         16    1    4    4    0    0 -0.10428661221E+02 -0.15514160486E+02 -0.80492218019E+02  0.82634395454E+02  0.00000000000E+00 0. -1.
         -5    1    5    5    0  502 -0.48280014232E+02  0.47264657530E+02  0.15131515665E+03  0.16578080184E+03  0.47000000000E+01 0.  1.
         15    1    6    6    0    0 -0.64976973391E+02 -0.32562924581E+02  0.11466806541E+03  0.13577287683E+03  0.17770000000E+01 0. -1.
        -16    1    6    6    0    0  0.57958467970E+01 -0.69310904018E+02  0.13357734345E+03  0.15060046461E+03  0.00000000000E+00 0.  1.
<mgrwt>
<rscale>  2 0.21121318E+03</rscale>
<asrwt>0</asrwt>
<pdfrwt beam="1">  1       21 0.71968297E-01 0.21164764E+03</pdfrwt>
<pdfrwt beam="2">  1       21 0.44458678E-01 0.21164764E+03</pdfrwt>
<totfact> 0.83537080E+03</totfact>
</mgrwt>
</event>
<event>
12    2  0.4090627E-002  0.1762782E+03  0.7546771E-02  0.1171683E+00
         21   -1    0    0  503  502  0.00000000000E+00  0.00000000000E+00  0.72493332066E+02  0.72493332066E+02  0.00000000000E+00 0. -1.
         21   -1    0    0  501  503 -0.00000000000E+00 -0.00000000000E+00 -0.42756840809E+03  0.42756840809E+03  0.00000000000E+00 0. -1.
          6    2    1    2  501    0  0.12407025124E+02  0.31682036472E+02 -0.19003020166E+03  0.25857917306E+03  0.17202914140E+03 0.  0.
         24    2    3    3    0    0  0.10867440122E+01  0.86602065038E+02 -0.14489062562E+03  0.18644021253E+03  0.79155295290E+02 0.  0.
         -6    2    1    2    0  502 -0.12407025124E+02 -0.31682036472E+02 -0.16504487436E+03  0.24148256709E+03  0.17296338904E+03 0.  0.
        -24    2    5    5    0    0  0.19721759650E+02 -0.18370154099E+02 -0.18124945908E+03  0.20282841350E+03  0.86957394982E+02 0.  0.
          5    1    3    3  501    0  0.11320281111E+02 -0.54920028566E+02 -0.45139576041E+02  0.72138960537E+02  0.47000000000E+01 0. -1.
        -15    1    4    4    0    0 -0.33174223615E+02  0.19896296622E+02 -0.28898886446E+02  0.48318682707E+02  0.17770000000E+01 0.  1.
         16    1    4    4    0    0  0.34260967627E+02  0.66705768416E+02 -0.11599173918E+03  0.13812152982E+03  0.00000000000E+00 0. -1.
         -5    1    5    5    0  502 -0.32128784773E+02 -0.13311882373E+02  0.16204584724E+02  0.38654153585E+02  0.47000000000E+01 0.  1.
         15    1    6    6    0    0 -0.84254223965E+01 -0.82016920933E+01  0.59183223376E+01  0.13283063052E+02  0.17770000000E+01 0. -1.
        -16    1    6    6    0    0  0.28147182046E+02 -0.10168462006E+02 -0.18716778142E+03  0.18954535045E+03  0.00000000000E+00 0.  1.
<mgrwt>
<rscale>  2 0.17604865E+03</rscale>
<asrwt>0</asrwt>
<pdfrwt beam="1">  1       21 0.11152820E-01 0.17627824E+03</pdfrwt>
<pdfrwt beam="2">  1       21 0.65779756E-01 0.17627824E+03</pdfrwt>
<totfact> 0.14280576E+05</totfact>
</mgrwt>
</event>
<event>
12    2  0.4090627E-002  0.2366727E+03  0.7546771E-02  0.1122660E+00
         21   -1    0    0  501  502  0.00000000000E+00  0.00000000000E+00  0.38327377528E+03  0.38327377528E+03  0.00000000000E+00 0. -1.
         21   -1    0    0  502  503 -0.00000000000E+00 -0.00000000000E+00 -0.14519844272E+03  0.14519844272E+03  0.00000000000E+00 0. -1.
         -6    2    1    2    0  503  0.15252091400E+03 -0.17395695723E+02  0.14331982594E+03  0.27353579990E+03  0.17525986958E+03 0.  0.
        -24    2    3    3    0    0  0.79167435288E+02 -0.63979779435E+02  0.35980144209E+02  0.13535220114E+03  0.81637935962E+02 0.  0.
          6    2    1    2  501    0 -0.15252091400E+03  0.17395695723E+02  0.94755506615E+02  0.25493641810E+03  0.18013531526E+03 0.  0.
         24    2    5    5    0    0 -0.47090480685E+02 -0.55036233362E+02  0.51744735473E+02  0.11990317385E+03  0.80329030221E+02 0.  0.
          5    1    5    5  501    0 -0.10543043331E+03  0.72431929085E+02  0.43010771142E+02  0.13503324425E+03  0.47000000000E+01 0. -1.
        -15    1    6    6    0    0 -0.63907194217E+02 -0.56947587472E+02  0.26715288032E+02  0.89688469354E+02  0.17770000000E+01 0.  1.
         16    1    6    6    0    0  0.16816713531E+02  0.19113541101E+01  0.25029447441E+02  0.30214704495E+02  0.00000000000E+00 0. -1.
         -5    1    3    3    0  503  0.73353478709E+02  0.46584083712E+02  0.10733968173E+03  0.13818359877E+03  0.47000000000E+01 0.  1.
         15    1    4    4    0    0  0.74345748384E+02 -0.86115865035E+01  0.18976739845E+02  0.77231626353E+02  0.17770000000E+01 0. -1.
        -16    1    4    4    0    0  0.48216869041E+01 -0.55368192932E+02  0.17003404364E+02  0.58120574783E+02  0.00000000000E+00 0.  1.
<mgrwt>
<rscale>  2 0.23574494E+03</rscale>
<asrwt>0</asrwt>
<pdfrwt beam="1">  1       21 0.58965196E-01 0.23667271E+03</pdfrwt>
<pdfrwt beam="2">  1       21 0.22338222E-01 0.23667271E+03</pdfrwt>
<totfact> 0.49432178E+04</totfact>
</mgrwt>
</event>
<event>
12    2  0.4090627E-002  0.5564297E+03  0.7546771E-02  0.1000018E+00
         21   -1    0    0  503  502  0.00000000000E+00  0.00000000000E+00  0.47199734020E+03  0.47199734020E+03  0.00000000000E+00 0. -1.
         21   -1    0    0  501  503 -0.00000000000E+00 -0.00000000000E+00 -0.68673761105E+03  0.68673761105E+03  0.00000000000E+00 0.  1.
          6    2    1    2  501    0 -0.15613646258E+02 -0.52860088575E+03  0.15320138620E+02  0.55664051943E+03  0.17306437777E+03 0.  0.
         24    2    3    3    0    0 -0.71599026460E+02 -0.31005381525E+03  0.36051285929E+02  0.33003722005E+03  0.79781466882E+02 0.  0.
         -6    2    1    2    0  502  0.15613646258E+02  0.52860088575E+03 -0.23006040948E+03  0.60209443183E+03  0.17299488565E+03 0.  0.
        -24    2    5    5    0    0  0.55235600786E+02  0.17748931379E+03 -0.73250041678E+02  0.21549280652E+03  0.80735078806E+02 0.  0.
          5    1    3    3  501    0  0.55985380202E+02 -0.21854707050E+03 -0.20731147309E+02  0.22660329938E+03  0.47000000000E+01 0. -1.
        -15    1    4    4    0    0 -0.17783777918E+02 -0.54582640244E+01  0.57110579854E+00  0.18695969994E+02  0.17770000000E+01 0.  1.
         16    1    4    4    0    0 -0.53815248542E+02 -0.30459555123E+03  0.35480180130E+02  0.31134125005E+03  0.00000000000E+00 0. -1.
         -5    1    5    5    0  502 -0.39621954528E+02  0.35111157196E+03 -0.15681036780E+03  0.38660162531E+03  0.47000000000E+01 0.  1.
         15    1    6    6    0    0 -0.19313706646E+02  0.62536503972E+02 -0.27910106729E+02  0.71175595397E+02  0.17770000000E+01 0. -1.
        -16    1    6    6    0    0  0.74549307432E+02  0.11495280982E+03 -0.45339934950E+02  0.14431721112E+03  0.00000000000E+00 0.  1.
<mgrwt>
<rscale>  2 0.55642425E+03</rscale>
<asrwt>0</asrwt>
<pdfrwt beam="1">  1       21 0.72614976E-01 0.55642966E+03</pdfrwt>
<pdfrwt beam="2">  1       21 0.10565194E+00 0.55642966E+03</pdfrwt>
<totfact> 0.10060505E+03</totfact>
</mgrwt>
</event>
<event>
12    2  0.4090627E-002  0.2037056E+03  0.7546771E-02  0.1147107E+00
         21   -1    0    0  501  502  0.00000000000E+00  0.00000000000E+00  0.90574300681E+03  0.90574300681E+03  0.00000000000E+00 0.  1.
         21   -1    0    0  502  503 -0.00000000000E+00 -0.00000000000E+00 -0.10226573835E+03  0.10226573835E+03  0.00000000000E+00 0. -1.
         -6    2    1    2    0  503  0.49664374856E+02 -0.95905741242E+02  0.26611416780E+02  0.20543642095E+03  0.17271796147E+03 0.  0.
        -24    2    3    3    0    0  0.59341628477E+02 -0.16411098610E+02 -0.30773855745E+02  0.10680474780E+03  0.81666828804E+02 0.  0.
          6    2    1    2  501    0 -0.49664374856E+02  0.95905741242E+02  0.77686585168E+03  0.80257232422E+03  0.17010973740E+03 0.  0.
         24    2    5    5    0    0 -0.88340046687E+01  0.81104048133E+02  0.72819609386E+03  0.73717320668E+03  0.80615626705E+02 0.  0.
          5    1    5    5  501    0 -0.40830370187E+02  0.14801693110E+02  0.48669757820E+02  0.65399117538E+02  0.47000000000E+01 0. -1.
        -15    1    6    6    0    0  0.12196052186E+02  0.11473305739E+02  0.24504098290E+02  0.29731952433E+02  0.17770000000E+01 0.  1.
         16    1    6    6    0    0 -0.21030056855E+02  0.69630742393E+02  0.70369199557E+03  0.70744125425E+03  0.00000000000E+00 0. -1.
         -5    1    3    3    0  503 -0.96772536219E+01 -0.79494642633E+02  0.57385272526E+02  0.98631673147E+02  0.47000000000E+01 0.  1.
         15    1    4    4    0    0  0.46034400953E+02 -0.24567488823E+02  0.18287796137E+02  0.55320238563E+02  0.17770000000E+01 0. -1.
        -16    1    4    4    0    0  0.13307227525E+02  0.81563902132E+01 -0.49061651883E+02  0.51484509235E+02  0.00000000000E+00 0.  1.
<mgrwt>
<rscale>  2 0.20315163E+03</rscale>
<asrwt>0</asrwt>
<pdfrwt beam="1">  1       21 0.13934507E+00 0.20370556E+03</pdfrwt>
<pdfrwt beam="2">  1       21 0.15733191E-01 0.20370556E+03</pdfrwt>
<totfact> 0.12921538E+04</totfact>
</mgrwt>
</event>
<event>
12    2  0.4090627E-002  0.1868135E+03  0.7546771E-02  0.1162068E+00
         21   -1    0    0  503  502  0.00000000000E+00  0.00000000000E+00  0.10517012953E+04  0.10517012953E+04  0.00000000000E+00 0. -1.
         21   -1    0    0  501  503 -0.00000000000E+00 -0.00000000000E+00 -0.11972032288E+03  0.11972032288E+03  0.00000000000E+00 0. -1.
          6    2    1    2  501    0 -0.29446027416E+02  0.54621161323E+02 -0.32469138205E+02  0.18961413034E+03  0.17620650866E+03 0.  0.
         24    2    3    3    0    0  0.47898219279E+02  0.31454979364E+02  0.74659063153E+01  0.99416002512E+02  0.80895900152E+02 0.  0.
         -6    2    1    2    0  502  0.29446027416E+02 -0.54621161323E+02  0.96445011060E+03  0.98180748782E+03  0.17300690018E+03 0.  0.
        -24    2    5    5    0    0 -0.35741882180E+02 -0.16556719303E+02  0.71978202065E+03  0.72571584496E+03  0.83819587671E+02 0.  0.
          5    1    3    3  501    0 -0.77344246696E+02  0.23166181959E+02 -0.39935044520E+02  0.90198127832E+02  0.47000000000E+01 0. -1.
        -15    1    4    4    0    0  0.21281807576E+01 -0.98614272208E+01  0.31586575671E+02  0.33206119794E+02  0.17770000000E+01 0.  1.
         16    1    4    4    0    0  0.45770038522E+02  0.41316406585E+02 -0.24120669355E+02  0.66209882718E+02  0.00000000000E+00 0. -1.
         -5    1    5    5    0  502  0.65187909596E+02 -0.38064442020E+02  0.24466808994E+03  0.25609164286E+03  0.47000000000E+01 0.  1.
         15    1    6    6    0    0 -0.14336524943E+02  0.18771017879E+02  0.58058499395E+02  0.62704339090E+02  0.17770000000E+01 0. -1.
        -16    1    6    6    0    0 -0.21405357236E+02 -0.35327737182E+02  0.66172352126E+03  0.66301150587E+03  0.00000000000E+00 0.  1.
<mgrwt>
<rscale>  2 0.18605515E+03</rscale>
<asrwt>0</asrwt>
<pdfrwt beam="1">  1       21 0.16180019E+00 0.18681347E+03</pdfrwt>
<pdfrwt beam="2">  1       21 0.18418512E-01 0.18681347E+03</pdfrwt>
<totfact> 0.66025256E+03</totfact>
</mgrwt>
</event>
<event>
12    2  0.4090627E-002  0.1864052E+03  0.7546771E-02  0.1161901E+00
         21   -1    0    0  503  502  0.00000000000E+00  0.00000000000E+00  0.67921875361E+02  0.67921875361E+02  0.00000000000E+00 0. -1.
         21   -1    0    0  501  503 -0.00000000000E+00 -0.00000000000E+00 -0.90155763214E+03  0.90155763214E+03  0.00000000000E+00 0. -1.
          6    2    1    2  501    0 -0.67844570138E+02 -0.12990338100E+02 -0.73682177972E+03  0.76003502903E+03  0.17313369316E+03 0.  0.
         24    2    3    3    0    0 -0.23873898984E+02 -0.66508473311E+02 -0.55653042005E+03  0.56683907905E+03  0.81160908219E+02 0.  0.
         -6    2    1    2    0  502  0.67844570138E+02  0.12990338100E+02 -0.96813977061E+02  0.20944447847E+03  0.17240188173E+03 0.  0.
        -24    2    5    5    0    0  0.48029654815E+02 -0.45089329705E+02 -0.10419532909E+03  0.14745695521E+03  0.80913482444E+02 0.  0.
          5    1    3    3  501    0 -0.43970671155E+02  0.53518135211E+02 -0.18029135967E+03  0.19319594998E+03  0.47000000000E+01 0. -1.
        -15    1    4    4    0    0 -0.46282610449E+02 -0.65743204445E+02 -0.49188250632E+03  0.49841328906E+03  0.17770000000E+01 0.  1.
         16    1    4    4    0    0  0.22408711465E+02 -0.76526886619E+00 -0.64647913730E+02  0.68425789989E+02  0.00000000000E+00 0. -1.
         -5    1    5    5    0  502  0.19814915323E+02  0.58079667805E+02  0.73813520310E+01  0.61987523256E+02  0.47000000000E+01 0.  1.
         15    1    6    6    0    0  0.33353846537E+02 -0.68697298082E+02 -0.79884301228E+02  0.11052808310E+03  0.17770000000E+01 0. -1.
        -16    1    6    6    0    0  0.14675808278E+02  0.23607968378E+02 -0.24311027864E+02  0.36928872110E+02  0.00000000000E+00 0.  1.
<mgrwt>
<rscale>  2 0.18623512E+03</rscale>
<asrwt>0</asrwt>
<pdfrwt beam="1">  1       21 0.10449520E-01 0.18640523E+03</pdfrwt>
<pdfrwt beam="2">  1       21 0.13870117E+00 0.18640523E+03</pdfrwt>
<totfact> 0.27622820E+04</totfact>
</mgrwt>
</event>
<event>
12    2  0.4090627E-002  0.2304336E+03  0.7546771E-02  0.1126763E+00
         21   -1    0    0  501  502  0.00000000000E+00  0.00000000000E+00  0.84207043369E+03  0.84207043369E+03  0.00000000000E+00 0.  1.
         21   -1    0    0  502  503 -0.00000000000E+00 -0.00000000000E+00 -0.11102385712E+03  0.11102385712E+03  0.00000000000E+00 0. -1.
         -6    2    1    2    0  503  0.70406738315E+02  0.13572626813E+03  0.49053363425E+02  0.23322318897E+03  0.16913927619E+03 0.  0.
        -24    2    3    3    0    0  0.10562628633E+03  0.72297027501E+02  0.52166319347E+02  0.16045323897E+03  0.81487081630E+02 0.  0.
          6    2    1    2  501    0 -0.70406738315E+02 -0.13572626813E+03  0.68199321315E+03  0.71987110183E+03  0.17239759806E+03 0.  0.
         24    2    5    5    0    0  0.22159647162E+02 -0.98086221552E+02  0.34156272153E+03  0.36504675311E+03  0.80511380529E+02 0.  0.
          5    1    5    5  501    0 -0.92566385477E+02 -0.37640046576E+02  0.34043049162E+03  0.35482434872E+03  0.47000000000E+01 0. -1.
        -15    1    6    6    0    0  0.75388381445E+01 -0.10886676683E+03  0.30970962814E+03  0.32837785932E+03  0.17770000000E+01 0.  1.
         16    1    6    6    0    0  0.14620809018E+02  0.10780545282E+02  0.31853093393E+02  0.36668893788E+02  0.00000000000E+00 0. -1.
         -5    1    3    3    0  503 -0.35219548013E+02  0.63429240628E+02 -0.31129559221E+01  0.72769950003E+02  0.47000000000E+01 0.  1.
         15    1    4    4    0    0  0.10698603971E+03  0.71681325171E+02  0.22491808617E+02  0.13074121101E+03  0.17770000000E+01 0. -1.
        -16    1    4    4    0    0 -0.13597533826E+01  0.61570232913E+00  0.29674510731E+02  0.29712027964E+02  0.00000000000E+00 0.  1.
<mgrwt>
<rscale>  2 0.22982436E+03</rscale>
<asrwt>0</asrwt>
<pdfrwt beam="1">  1       21 0.12954929E+00 0.23043364E+03</pdfrwt>
<pdfrwt beam="2">  1       21 0.17080594E-01 0.23043364E+03</pdfrwt>
<totfact> 0.13152791E+04</totfact>
</mgrwt>
</event>
<event>
12    2  0.4090627E-002  0.2274899E+03  0.7546771E-02  0.1128548E+00
         21   -1    0    0  501  502  0.00000000000E+00  0.00000000000E+00  0.11795105284E+03  0.11795105284E+03  0.00000000000E+00 0. -1.
         21   -1    0    0  502  503 -0.00000000000E+00 -0.00000000000E+00 -0.51408511176E+03  0.51408511176E+03  0.00000000000E+00 0. -1.
         -6    2    1    2    0  503  0.10897424540E+03  0.96938690522E+02 -0.31988209377E+03  0.39210693954E+03  0.17363986362E+03 0.  0.
        -24    2    3    3    0    0  0.12458633392E+03  0.95899640851E+02 -0.32898970983E+03  0.37340251219E+03  0.80478016990E+02 0.  0.
          6    2    1    2  501    0 -0.10897424540E+03 -0.96938690522E+02 -0.76251965150E+02  0.23992922505E+03  0.17458285988E+03 0.  0.
         24    2    5    5    0    0  0.53454890729E+01 -0.75898237878E+02 -0.64559763894E+02  0.12300831200E+03  0.71930278337E+02 0.  0.
          5    1    5    5  501    0 -0.11431973448E+03 -0.21040452643E+02 -0.11692201255E+02  0.11692091305E+03  0.47000000000E+01 0. -1.
        -15    1    6    6    0    0 -0.16188124667E+02  0.72074544718E+01 -0.18102536791E+02  0.25394140022E+02  0.17770000000E+01 0.  1.
         16    1    6    6    0    0  0.21533613740E+02 -0.83105692350E+02 -0.46457227104E+02  0.97614171982E+02  0.00000000000E+00 0. -1.
         -5    1    3    3    0  503 -0.15612088518E+02  0.10390496712E+01  0.91076160626E+01  0.18704427349E+02  0.47000000000E+01 0.  1.
         15    1    4    4    0    0  0.60396848423E+02 -0.20254799989E+00 -0.12829348001E+03  0.14181041945E+03  0.17770000000E+01 0. -1.
        -16    1    4    4    0    0  0.64189485498E+02  0.96102188850E+02 -0.20069622983E+03  0.23159209274E+03  0.00000000000E+00 0.  1.
<mgrwt>
<rscale>  2 0.22730900E+03</rscale>
<asrwt>0</asrwt>
<pdfrwt beam="1">  1       21 0.18146316E-01 0.22748994E+03</pdfrwt>
<pdfrwt beam="2">  1       21 0.79090017E-01 0.22748994E+03</pdfrwt>
<totfact> 0.38351869E+04</totfact>
</mgrwt>
</event>
<event>
12    2  0.4090627E-002  0.1891719E+03  0.7546771E-02  0.1159327E+00
         21   -1    0    0  503  502  0.00000000000E+00  0.00000000000E+00  0.44011933364E+03  0.44011933364E+03  0.00000000000E+00 0.  1.
         21   -1    0    0  501  503 -0.00000000000E+00 -0.00000000000E+00 -0.81790595520E+02  0.81790595520E+02  0.00000000000E+00 0.  1.
          6    2    1    2  501    0 -0.74383303987E+02  0.17971956007E+02  0.15476856398E+03  0.24402013677E+03  0.17244318380E+03 0.  0.
         24    2    3    3    0    0 -0.58681667709E+02  0.49620806364E+02  0.17195649472E+03  0.20445113282E+03  0.79532805079E+02 0.  0.
         -6    2    1    2    0  502  0.74383303987E+02 -0.17971956007E+02  0.20356017414E+03  0.27788979239E+03  0.17300325172E+03 0.  0.
        -24    2    5    5    0    0  0.94693283357E+02 -0.32176299109E+02  0.21474235932E+03  0.25029649809E+03  0.80820318809E+02 0.  0.
          5    1    3    3  501    0 -0.15701636278E+02 -0.31648850357E+02 -0.17187930741E+02  0.39569003954E+02  0.47000000000E+01 0. -1.
        -15    1    4    4    0    0 -0.90427392870E+01  0.50247779487E+02  0.44797834801E+02  0.67945671010E+02  0.17770000000E+01 0.  1.
         16    1    4    4    0    0 -0.49638928422E+02 -0.62697312324E+00  0.12715865992E+03  0.13650546181E+03  0.00000000000E+00 0. -1.
         -5    1    5    5    0  502 -0.20309979370E+02  0.14204343102E+02 -0.11182185180E+02  0.27593294301E+02  0.47000000000E+01 0.  1.
         15    1    6    6    0    0  0.69336306747E+02  0.18597777660E+02  0.12223621948E+03  0.14176830340E+03  0.17770000000E+01 0. -1.
        -16    1    6    6    0    0  0.25356976610E+02 -0.50774076768E+02  0.92506139842E+02  0.10852819469E+03  0.00000000000E+00 0.  1.
<mgrwt>
<rscale>  2 0.18904371E+03</rscale>
<asrwt>0</asrwt>
<pdfrwt beam="1">  1       21 0.67710665E-01 0.18917186E+03</pdfrwt>
<pdfrwt beam="2">  1       21 0.12583169E-01 0.18917186E+03</pdfrwt>
<totfact> 0.10758402E+05</totfact>
</mgrwt>
</event>
<event>
12    2  0.4090627E-002  0.1895357E+03  0.7546771E-02  0.1159049E+00
         21   -1    0    0  501  502  0.00000000000E+00  0.00000000000E+00  0.92272222896E+02  0.92272222896E+02  0.00000000000E+00 0. -1.
         21   -1    0    0  502  503 -0.00000000000E+00 -0.00000000000E+00 -0.39128379486E+03  0.39128379486E+03  0.00000000000E+00 0. -1.
         -6    2    1    2    0  503  0.66183841503E+02 -0.39372071472E+02 -0.12699998795E+03  0.22815075435E+03  0.17318576409E+03 0.  0.
        -24    2    3    3    0    0 -0.14745024022E+02  0.28543880315E+02 -0.54594759292E+02  0.99984202865E+02  0.77356862938E+02 0.  0.
          6    2    1    2  501    0 -0.66183841503E+02  0.39372071472E+02 -0.17201158401E+03  0.25540526341E+03  0.17237576005E+03 0.  0.
         24    2    5    5    0    0 -0.98849281177E+02  0.51965500427E+01 -0.16430241970E+03  0.20727503976E+03  0.78545989492E+02 0.  0.
          5    1    5    5  501    0  0.32665439674E+02  0.34175521429E+02 -0.77091643097E+01  0.48130223648E+02  0.47000000000E+01 0. -1.
        -15    1    6    6    0    0 -0.63315083288E+02 -0.26654738188E+02 -0.55033360292E+02  0.88040350486E+02  0.17770000000E+01 0.  1.
         16    1    6    6    0    0 -0.35534197889E+02  0.31851288231E+02 -0.10926905941E+03  0.11923468927E+03  0.00000000000E+00 0. -1.
         -5    1    3    3    0  503  0.80928865524E+02 -0.67915951787E+02 -0.72405228660E+02  0.12816655148E+03  0.47000000000E+01 0.  1.
         15    1    4    4    0    0  0.79568140002E+01 -0.19682276610E+02  0.29945275989E+01  0.21513433620E+02  0.17770000000E+01 0. -1.
        -16    1    4    4    0    0 -0.22701838022E+02  0.48226156925E+02 -0.57589286891E+02  0.78470769245E+02  0.00000000000E+00 0.  1.
<mgrwt>
<rscale>  2 0.18935044E+03</rscale>
<asrwt>0</asrwt>
<pdfrwt beam="1">  1       21 0.14195727E-01 0.18953567E+03</pdfrwt>
<pdfrwt beam="2">  1       21 0.60197506E-01 0.18953567E+03</pdfrwt>
<totfact> 0.11169320E+05</totfact>
</mgrwt>
</event>
<event>
12    2  0.4090627E-002  0.1842954E+03  0.7546771E-02  0.1164045E+00
         21   -1    0    0  501  502  0.00000000000E+00  0.00000000000E+00  0.76348349638E+03  0.76348349638E+03  0.00000000000E+00 0. -1.
         21   -1    0    0  502  503 -0.00000000000E+00 -0.00000000000E+00 -0.45708232384E+02  0.45708232384E+02  0.00000000000E+00 0. -1.
         -6    2    1    2    0  503 -0.38886145810E+02  0.42935179849E+02  0.28536711373E+03  0.33970454431E+03  0.17495492512E+03 0.  0.
        -24    2    3    3    0    0 -0.83098793393E+02 -0.31877322194E+01  0.21848753073E+03  0.24709218096E+03  0.80013584511E+02 0.  0.
          6    2    1    2  501    0  0.38886145810E+02 -0.42935179849E+02  0.43240815027E+03  0.46948718445E+03  0.17345271961E+03 0.  0.
         24    2    5    5    0    0  0.78764466620E+01 -0.91768033999E+02  0.24696364172E+03  0.27517299342E+03  0.79029902564E+02 0.  0.
          5    1    5    5  501    0  0.31009699148E+02  0.48832854150E+02  0.18544450855E+03  0.19431419104E+03  0.47000000000E+01 0. -1.
        -15    1    6    6    0    0 -0.16742946636E+02  0.30739447131E+01  0.12915749938E+02  0.21441775197E+02  0.17770000000E+01 0.  1.
         16    1    6    6    0    0  0.24619393298E+02 -0.94841978712E+02  0.23404789178E+03  0.25373121822E+03  0.00000000000E+00 0. -1.
         -5    1    3    3    0  503  0.44212647583E+02  0.46122912068E+02  0.66879582995E+02  0.92612363352E+02  0.47000000000E+01 0.  1.
         15    1    4    4    0    0 -0.86894986604E+02  0.20665230928E+02  0.15143778041E+03  0.17582476939E+03  0.17770000000E+01 0. -1.
        -16    1    4    4    0    0  0.37961932107E+01 -0.23852963148E+02  0.67049750320E+02  0.71267411570E+02  0.00000000000E+00 0.  1.
<mgrwt>
<rscale>  2 0.18393798E+03</rscale>
<asrwt>0</asrwt>
<pdfrwt beam="1">  1       21 0.11745899E+00 0.18429538E+03</pdfrwt>
<pdfrwt beam="2">  1       21 0.70320363E-02 0.18429538E+03</pdfrwt>
<totfact> 0.83867141E+04</totfact>
</mgrwt>
</event>
<event>
12    2  0.4090627E-002  0.1999009E+03  0.7546771E-02  0.1149864E+00
         21   -1    0    0  503  502  0.00000000000E+00  0.00000000000E+00  0.63435150053E+03  0.63435150053E+03  0.00000000000E+00 0. -1.
         21   -1    0    0  501  503 -0.00000000000E+00 -0.00000000000E+00 -0.11987069422E+03  0.11987069422E+03  0.00000000000E+00 0. -1.
          6    2    1    2  501    0  0.43772889039E+02 -0.89587518152E+02 -0.25983946914E+01  0.19991775842E+03  0.17325810010E+03 0.  0.
         24    2    3    3    0    0 -0.22847507845E+02  0.22117091279E+01 -0.18284338277E+02  0.85316212894E+02  0.80110167172E+02 0.  0.
         -6    2    1    2    0  502 -0.43772889039E+02  0.89587518152E+02  0.51707920100E+03  0.55430443633E+03  0.17303328816E+03 0.  0.
        -24    2    5    5    0    0 -0.94026597458E+02  0.79446721868E+02  0.35827551391E+03  0.38736441120E+03  0.80852090576E+02 0.  0.
          5    1    3    3  501    0  0.66620396884E+02 -0.91799227279E+02  0.15685943585E+02  0.11460154552E+03  0.47000000000E+01 0. -1.
        -15    1    4    4    0    0 -0.51822973270E+01  0.21242734396E+02 -0.43752895740E+02  0.48944699251E+02  0.17770000000E+01 0.  1.
         16    1    4    4    0    0 -0.17665210518E+02 -0.19031025268E+02  0.25468557463E+02  0.36371513642E+02  0.00000000000E+00 0. -1.
         -5    1    5    5    0  502  0.50253708419E+02  0.10140796284E+02  0.15880368709E+03  0.16694002514E+03  0.47000000000E+01 0.  1.
         15    1    6    6    0    0 -0.80279149254E+02  0.64121390427E+02  0.35067103692E+03  0.36541706087E+03  0.17770000000E+01 0. -1.
        -16    1    6    6    0    0 -0.13747448204E+02  0.15325331441E+02  0.76044769886E+01  0.21947350322E+02  0.00000000000E+00 0.  1.
<mgrwt>
<rscale>  2 0.19985215E+03</rscale>
<asrwt>0</asrwt>
<pdfrwt beam="1">  1       21 0.97592537E-01 0.19990087E+03</pdfrwt>
<pdfrwt beam="2">  1       21 0.18441646E-01 0.19990087E+03</pdfrwt>
<totfact> 0.23241637E+04</totfact>
</mgrwt>
</event>
<event>
12    2  0.4090627E-002  0.2868528E+03  0.7546771E-02  0.1092092E+00
         21   -1    0    0  503  502  0.00000000000E+00  0.00000000000E+00  0.24050451414E+03  0.24050451414E+03  0.00000000000E+00 0. -1.
         21   -1    0    0  501  503 -0.00000000000E+00 -0.00000000000E+00 -0.36366892593E+03  0.36366892593E+03  0.00000000000E+00 0. -1.
          6    2    1    2  501    0 -0.67365281354E+02 -0.21806101768E+03 -0.13636322368E+03  0.31701716366E+03  0.17267386809E+03 0.  0.
         24    2    3    3    0    0 -0.58404706852E+02 -0.57534556446E+02 -0.96458924226E+02  0.15129607338E+03  0.82854346827E+02 0.  0.
         -6    2    1    2    0  502  0.67365281354E+02  0.21806101768E+03  0.13198811891E+02  0.28715627641E+03  0.17376947339E+03 0.  0.
        -24    2    5    5    0    0  0.55252350549E+02  0.22100974486E+03 -0.28354677327E+02  0.24351912995E+03  0.81236995024E+02 0.  0.
          5    1    3    3  501    0 -0.89605745024E+01 -0.16052646123E+03 -0.39904299449E+02  0.16572109029E+03  0.47000000000E+01 0. -1.
        -15    1    4    4    0    0  0.15393110572E+02 -0.82405833809E+00 -0.38860184139E+02  0.41843739861E+02  0.17770000000E+01 0.  1.
         16    1    4    4    0    0 -0.73797817424E+02 -0.56710498108E+02 -0.57598740086E+02  0.10945233351E+03  0.00000000000E+00 0. -1.
         -5    1    5    5    0  502  0.12112930806E+02 -0.29487271819E+01  0.41553489217E+02  0.43637146456E+02  0.47000000000E+01 0.  1.
         15    1    6    6    0    0  0.47101977427E+02  0.10566801212E+03 -0.49716057869E+02  0.12593319341E+03  0.17770000000E+01 0. -1.
        -16    1    6    6    0    0  0.81503731222E+01  0.11534173274E+03  0.21361380543E+02  0.11758593654E+03  0.00000000000E+00 0.  1.
<mgrwt>
<rscale>  2 0.28668705E+03</rscale>
<asrwt>0</asrwt>
<pdfrwt beam="1">  1       21 0.37000695E-01 0.28685278E+03</pdfrwt>
<pdfrwt beam="2">  1       21 0.55949065E-01 0.28685278E+03</pdfrwt>
<totfact> 0.20206873E+04</totfact>
</mgrwt>
</event>
<event>
12    2  0.4090627E-002  0.2683453E+03  0.7546771E-02  0.1102284E+00
         21   -1    0    0  503  502  0.00000000000E+00  0.00000000000E+00  0.79050326078E+03  0.79050326078E+03  0.00000000000E+00 0.  1.
         21   -1    0    0  501  503 -0.00000000000E+00 -0.00000000000E+00 -0.98990505911E+02  0.98990505911E+02  0.00000000000E+00 0.  1.
          6    2    1    2  501    0 -0.24145955705E+02 -0.20356262174E+03  0.21936164836E+03  0.34659595750E+03  0.17317175531E+03 0.  0.
         24    2    3    3    0    0  0.19984863554E+02 -0.11220382384E+03  0.49885751269E+02  0.14901526801E+03  0.82023588472E+02 0.  0.
         -6    2    1    2    0  502  0.24145955705E+02  0.20356262174E+03  0.47215110651E+03  0.54289780919E+03  0.17259952406E+03 0.  0.
        -24    2    5    5    0    0 -0.28633564595E+02  0.37018002354E+02  0.16518079193E+03  0.18966183702E+03  0.80602139409E+02 0.  0.
          5    1    3    3  501    0 -0.44130819258E+02 -0.91358797904E+02  0.16947589709E+03  0.19758068949E+03  0.47000000000E+01 0. -1.
        -15    1    4    4    0    0  0.76197778118E+01 -0.10553757645E+03  0.68225952943E+02  0.12591338070E+03  0.17770000000E+01 0.  1.
         16    1    4    4    0    0  0.12365085742E+02 -0.66662473882E+01 -0.18340201674E+02  0.23101887306E+02  0.00000000000E+00 0. -1.
         -5    1    5    5    0  502  0.52779520300E+02  0.16654461939E+03  0.30697031457E+03  0.35323597218E+03  0.47000000000E+01 0.  1.
         15    1    6    6    0    0  0.85204138383E+01  0.17777975361E+02  0.55464785156E+00  0.19802000483E+02  0.17770000000E+01 0. -1.
        -16    1    6    6    0    0 -0.37153978434E+02  0.19240026993E+02  0.16462614408E+03  0.16985983653E+03  0.00000000000E+00 0.  1.
<mgrwt>
<rscale>  2 0.26825307E+03</rscale>
<asrwt>0</asrwt>
<pdfrwt beam="1">  1       21 0.12161588E+00 0.26834535E+03</pdfrwt>
<pdfrwt beam="2">  1       21 0.15229309E-01 0.26834535E+03</pdfrwt>
<totfact> 0.18675875E+04</totfact>
</mgrwt>
</event>
<event>
12    2  0.4090627E-002  0.1795452E+03  0.7546771E-02  0.1168319E+00
         21   -1    0    0  501  502  0.00000000000E+00  0.00000000000E+00  0.61266301940E+03  0.61266301940E+03  0.00000000000E+00 0. -1.
         21   -1    0    0  502  503 -0.00000000000E+00 -0.00000000000E+00 -0.76640860001E+02  0.76640860001E+02  0.00000000000E+00 0. -1.
         -6    2    1    2    0  503  0.27551562593E+02 -0.38510893534E+02  0.46149614203E+03  0.49519204687E+03  0.17318861582E+03 0.  0.
        -24    2    3    3    0    0 -0.87166320147E+01 -0.57754958592E+02  0.43447062733E+03  0.44581407177E+03  0.81079255415E+02 0.  0.
          6    2    1    2  501    0 -0.27551562593E+02  0.38510893534E+02  0.74526017367E+02  0.19411183253E+03  0.17286728650E+03 0.  0.
         24    2    5    5    0    0 -0.18046951910E+01 -0.20618628623E+02 -0.14654402515E+02  0.83955403479E+02  0.80033577262E+02 0.  0.
          5    1    5    5  501    0 -0.25746867402E+02  0.59129522157E+02  0.89180419882E+02  0.11015642905E+03  0.47000000000E+01 0. -1.
        -15    1    6    6    0    0  0.25892405479E+02 -0.37777912152E+02  0.46745579724E+01  0.46071645611E+02  0.17770000000E+01 0.  1.
         16    1    6    6    0    0 -0.27697100670E+02  0.17159283529E+02 -0.19328960487E+02  0.37883757869E+02  0.00000000000E+00 0. -1.
         -5    1    3    3    0  503  0.36268194607E+02  0.19244065058E+02  0.27025514701E+02  0.49377975099E+02  0.47000000000E+01 0.  1.
         15    1    4    4    0    0  0.29667853383E+02  0.46843310264E-01  0.15787409875E+03  0.16064735449E+03  0.17770000000E+01 0. -1.
        -16    1    4    4    0    0 -0.38384485398E+02 -0.57801801902E+02  0.27659652858E+03  0.28516671728E+03  0.00000000000E+00 0.  1.
<mgrwt>
<rscale>  2 0.17946765E+03</rscale>
<asrwt>0</asrwt>
<pdfrwt beam="1">  1       21 0.94255846E-01 0.17954519E+03</pdfrwt>
<pdfrwt beam="2">  1       21 0.11790902E-01 0.17954519E+03</pdfrwt>
<totfact> 0.57495206E+04</totfact>
</mgrwt>
</event>
<event>
12    2  0.4090627E-002  0.2285825E+03  0.7546771E-02  0.1127937E+00
         21   -1    0    0  501  502  0.00000000000E+00  0.00000000000E+00  0.13184821501E+03  0.13184821501E+03  0.00000000000E+00 0.  1.
         21   -1    0    0  502  503 -0.00000000000E+00 -0.00000000000E+00 -0.41426112502E+03  0.41426112502E+03  0.00000000000E+00 0. -1.
         -6    2    1    2    0  503 -0.79823734002E+02 -0.12437863653E+03 -0.20294020459E+03  0.30567087088E+03  0.17437912987E+03 0.  0.
        -24    2    3    3    0    0 -0.14275381722E+02 -0.80828869401E+02 -0.35281179625E+02  0.12040131765E+03  0.80713214560E+02 0.  0.
          6    2    1    2  501    0  0.79823734002E+02  0.12437863653E+03 -0.79472705422E+02  0.24043846915E+03  0.17220009526E+03 0.  0.
         24    2    5    5    0    0  0.50558081282E+01  0.61995389749E+02  0.18531219300E+02  0.10220398909E+03  0.78950995882E+02 0.  0.
          5    1    5    5  501    0  0.74767925874E+02  0.62383246781E+02 -0.98003924722E+02  0.13823448007E+03  0.47000000000E+01 0. -1.
        -15    1    6    6    0    0  0.23142547137E+02  0.20793303238E+02  0.41329253845E+02  0.51761026844E+02  0.17770000000E+01 0.  1.
         16    1    6    6    0    0 -0.18086739008E+02  0.41202086511E+02 -0.22798034545E+02  0.50442962244E+02  0.00000000000E+00 0. -1.
         -5    1    3    3    0  503 -0.65548352280E+02 -0.43549767129E+02 -0.16765902496E+03  0.18526955323E+03  0.47000000000E+01 0.  1.
         15    1    4    4    0    0  0.55327348457E+01  0.14422214221E+02  0.30291327707E+01  0.15841237081E+02  0.17770000000E+01 0. -1.
        -16    1    4    4    0    0 -0.19808116568E+02 -0.95251083622E+02 -0.38310312396E+02  0.10456008057E+03  0.00000000000E+00 0.  1.
<mgrwt>
<rscale>  2 0.22816687E+03</rscale>
<asrwt>0</asrwt>
<pdfrwt beam="1">  1       21 0.20284341E-01 0.22858249E+03</pdfrwt>
<pdfrwt beam="2">  1       21 0.63732479E-01 0.22858249E+03</pdfrwt>
<totfact> 0.50286517E+04</totfact>
</mgrwt>
</event>
<event>
11    2  0.4090627E-002  0.2125172E+03  0.7546771E-02  0.1139697E+00
         21   -1    0    0  501  502  0.00000000000E+00  0.00000000000E+00  0.90038239874E+03  0.90038239874E+03  0.00000000000E+00 0. -1.
         21   -1    0    0  502  503 -0.00000000000E+00 -0.00000000000E+00 -0.61672906979E+02  0.61672906979E+02  0.00000000000E+00 0. -1.
         -6    2    1    2    0  503  0.66386686092E+02  0.10383931583E+03  0.20989113727E+03  0.29829623839E+03  0.17244292021E+03 0.  0.
        -24    2    3    3    0    0  0.54906379797E+02  0.21984007636E+01  0.53684379547E+02  0.11152013123E+03  0.80840482148E+02 0.  0.
          6    2    1    2  501    0 -0.66386686092E+02 -0.10383931583E+03  0.62881835448E+03  0.66375906732E+03  0.17312937623E+03 0.  0.
          5    1    5    5  501    0 -0.19639395664E+02 -0.58318854833E+02  0.19714992071E+03  0.20658406504E+03  0.47000000000E+01 0. -1.
        -15    1    5    5    0    0  0.79730745024E+01 -0.65185650729E+02  0.94881359752E+02  0.11540523877E+03  0.17770000000E+01 0.  1.
         16    1    5    5    0    0 -0.54720364931E+02  0.19665189735E+02  0.33678707402E+03  0.34176976351E+03  0.00000000000E+00 0. -1.
         -5    1    3    3    0  503  0.11480306295E+02  0.10164091506E+03  0.15620675773E+03  0.18677610716E+03  0.47000000000E+01 0.  1.
         15    1    4    4    0    0  0.51800628961E+00 -0.32930283985E+02  0.17069587513E+02  0.37137588515E+02  0.17770000000E+01 0. -1.
        -16    1    4    4    0    0  0.54388373507E+02  0.35128684749E+02  0.36614792034E+02  0.74382542714E+02  0.00000000000E+00 0.  1.
<mgrwt>
<rscale>  2 0.21237739E+03</rscale>
<asrwt>0</asrwt>
<pdfrwt beam="1">  1       21 0.13852036E+00 0.21251724E+03</pdfrwt>
<pdfrwt beam="2">  1       21 0.94881402E-02 0.21251724E+03</pdfrwt>
<totfact> 0.32357238E+04</totfact>
</mgrwt>
</event>
<event>
12    2  0.4090627E-002  0.2550992E+03  0.7546771E-02  0.1110339E+00
         21   -1    0    0  501  502  0.00000000000E+00  0.00000000000E+00  0.84072711222E+02  0.84072711222E+02  0.00000000000E+00 0.  1.
         21   -1    0    0  502  503 -0.00000000000E+00 -0.00000000000E+00 -0.17474936141E+04  0.17474936141E+04  0.00000000000E+00 0. -1.
         -6    2    1    2    0  503 -0.95896962613E+02  0.16087951217E+03 -0.15156917828E+04  0.15367791345E+04  0.17114345675E+03 0.  0.
        -24    2    3    3    0    0 -0.97102812281E+02  0.53296832648E+02 -0.10493794613E+04  0.10581929268E+04  0.79407228559E+02 0.  0.
          6    2    1    2  501    0  0.95896962613E+02 -0.16087951217E+03 -0.14772912012E+03  0.29478719090E+03  0.17319685365E+03 0.  0.
         24    2    5    5    0    0  0.12935337603E+03 -0.93464942389E+02 -0.88163354195E+02  0.19869230921E+03  0.78980158076E+02 0.  0.
          5    1    5    5  501    0 -0.33456413419E+02 -0.67414569779E+02 -0.59565765921E+02  0.96094881690E+02  0.47000000000E+01 0. -1.
        -15    1    6    6    0    0  0.10811535824E+03 -0.56719173785E+02 -0.96261930079E+02  0.15548476541E+03  0.17770000000E+01 0.  1.
         16    1    6    6    0    0  0.21238017789E+02 -0.36745768605E+02  0.80985758846E+01  0.43207543801E+02  0.00000000000E+00 0. -1.
         -5    1    3    3    0  503  0.12058496683E+01  0.10758267952E+03 -0.46631232150E+03  0.47858620769E+03  0.47000000000E+01 0.  1.
         15    1    4    4    0    0 -0.36222129751E+02  0.26931291647E+02 -0.75847727192E+03  0.75982120719E+03  0.17770000000E+01 0. -1.
        -16    1    4    4    0    0 -0.60880682530E+02  0.26365541002E+02 -0.29090218939E+03  0.29837171959E+03  0.00000000000E+00 0.  1.
<mgrwt>
<rscale>  2 0.25475106E+03</rscale>
<asrwt>0</asrwt>
<pdfrwt beam="1">  1       21 0.12934263E-01 0.25509919E+03</pdfrwt>
<pdfrwt beam="2">  1       21 0.26884518E+00 0.25509919E+03</pdfrwt>
<totfact> 0.24848479E+03</totfact>
</mgrwt>
</event>
<event>
12    2  0.4090627E-002  0.2159681E+03  0.7546771E-02  0.1137265E+00
         21   -1    0    0  501  502  0.00000000000E+00  0.00000000000E+00  0.23478837564E+03  0.23478837564E+03  0.00000000000E+00 0. -1.
         21   -1    0    0  502  503 -0.00000000000E+00 -0.00000000000E+00 -0.20277575797E+03  0.20277575797E+03  0.00000000000E+00 0. -1.
         -6    2    1    2    0  503  0.98811125966E+02 -0.84041241054E+02 -0.20881025522E+02  0.21521312340E+03  0.17045263989E+03 0.  0.
        -24    2    3    3    0    0  0.68411666955E+02 -0.11981069883E+03 -0.31516198929E+02  0.16685220807E+03  0.88383419333E+02 0.  0.
          6    2    1    2  501    0 -0.98811125966E+02  0.84041241054E+02  0.52893643184E+02  0.22235101021E+03  0.17267213278E+03 0.  0.
         24    2    5    5    0    0 -0.18127141726E+02  0.42237151045E+02 -0.31918972048E+02  0.97961473040E+02  0.80405592019E+02 0.  0.
          5    1    5    5  501    0 -0.80683984239E+02  0.41804090009E+02  0.84812615232E+02  0.12438953717E+03  0.47000000000E+01 0. -1.
        -15    1    6    6    0    0 -0.10736844856E+02 -0.23160819433E+02 -0.20072435858E+01  0.25668855644E+02  0.17770000000E+01 0.  1.
         16    1    6    6    0    0 -0.73902968706E+01  0.65397970477E+02 -0.29911728462E+02  0.72292617396E+02  0.00000000000E+00 0. -1.
         -5    1    3    3    0  503  0.30399459010E+02  0.35769457781E+02  0.10635173407E+02  0.48360915329E+02  0.47000000000E+01 0.  1.
         15    1    4    4    0    0  0.60018157390E+02 -0.87362737114E+02  0.17530957492E+02  0.10744728592E+03  0.17770000000E+01 0. -1.
        -16    1    4    4    0    0  0.83935095650E+01 -0.32447961721E+02 -0.49047156421E+02  0.59404922150E+02  0.00000000000E+00 0.  1.
<mgrwt>
<rscale>  2 0.21552417E+03</rscale>
<asrwt>0</asrwt>
<pdfrwt beam="1">  1       21 0.36121288E-01 0.21596813E+03</pdfrwt>
<pdfrwt beam="2">  1       21 0.31196271E-01 0.21596813E+03</pdfrwt>
<totfact> 0.72235289E+04</totfact>
</mgrwt>
</event>
<event>
12    2  0.4090627E-002  0.1879270E+03  0.7546771E-02  0.1160759E+00
         21   -1    0    0  501  502  0.00000000000E+00  0.00000000000E+00  0.67181492762E+03  0.67181492762E+03  0.00000000000E+00 0. -1.
         21   -1    0    0  502  503 -0.00000000000E+00 -0.00000000000E+00 -0.60084022325E+02  0.60084022325E+02  0.00000000000E+00 0. -1.
         -6    2    1    2    0  503  0.24886051775E+02 -0.68441605329E+02  0.17345865838E+03  0.25574298646E+03  0.17324260458E+03 0.  0.
        -24    2    3    3    0    0  0.61825024898E+02 -0.28465874926E+02  0.17091927566E+03  0.20105217168E+03  0.81092152542E+02 0.  0.
          6    2    1    2  501    0 -0.24886051775E+02  0.68441605329E+02  0.43827224692E+03  0.47615596349E+03  0.17128447167E+03 0.  0.
         24    2    5    5    0    0 -0.41040438994E+02  0.20061346266E+01  0.36253749100E+03  0.37401645474E+03  0.82258943739E+02 0.  0.
          5    1    5    5  501    0  0.16154387219E+02  0.66435470702E+02  0.75734755916E+02  0.10213950875E+03  0.47000000000E+01 0. -1.
        -15    1    6    6    0    0 -0.28017675229E+02 -0.20166863183E+02  0.33326762418E+03  0.33505545742E+03  0.17770000000E+01 0.  1.
         16    1    6    6    0    0 -0.13022763764E+02  0.22172997810E+02  0.29269866827E+02  0.38960997318E+02  0.00000000000E+00 0. -1.
         -5    1    3    3    0  503 -0.36938973123E+02 -0.39975730403E+02  0.25393827132E+01  0.54690814779E+02  0.47000000000E+01 0.  1.
         15    1    4    4    0    0  0.39787310967E+02 -0.24917669157E+02  0.17239530627E+03  0.17868189529E+03  0.17770000000E+01 0. -1.
        -16    1    4    4    0    0  0.22037713930E+02 -0.35482057688E+01 -0.14760306066E+01  0.22370276391E+02  0.00000000000E+00 0.  1.
<mgrwt>
<rscale>  2 0.18747450E+03</rscale>
<asrwt>0</asrwt>
<pdfrwt beam="1">  1       21 0.10335614E+00 0.18792703E+03</pdfrwt>
<pdfrwt beam="2">  1       21 0.92436962E-02 0.18792703E+03</pdfrwt>
<totfact> 0.70875653E+04</totfact>
</mgrwt>
</event>
<event>
12    2  0.4090627E-002  0.1772306E+03  0.7546771E-02  0.1170549E+00
         21   -1    0    0  503  502  0.00000000000E+00  0.00000000000E+00  0.19026851402E+03  0.19026851402E+03  0.00000000000E+00 0. -1.
         21   -1    0    0  501  503 -0.00000000000E+00 -0.00000000000E+00 -0.30931795372E+03  0.30931795372E+03  0.00000000000E+00 0.  1.
          6    2    1    2  501    0  0.38829924060E+02 -0.16629929894E+02 -0.23019607419E+03  0.29051834676E+03  0.17212309451E+03 0.  0.
         24    2    3    3    0    0 -0.26518681452E+02  0.19241193221E+02 -0.69920759019E+02  0.11369231823E+03  0.83447987988E+02 0.  0.
         -6    2    1    2    0  502 -0.38829924060E+02  0.16629929894E+02  0.11114663449E+03  0.20906812098E+03  0.17196391272E+03 0.  0.
        -24    2    5    5    0    0 -0.86653806540E+02  0.37191233746E+02  0.78149219698E+02  0.14725541731E+03  0.81760548754E+02 0.  0.
          5    1    3    3  501    0  0.65348605512E+02 -0.35871123115E+02 -0.16027531517E+03  0.17682602854E+03  0.47000000000E+01 0. -1.
        -15    1    4    4    0    0 -0.34050715884E+02  0.48460087888E+02 -0.50052609113E+02  0.77564507207E+02  0.17770000000E+01 0.  1.
         16    1    4    4    0    0  0.75320344320E+01 -0.29218894667E+02 -0.19868149906E+02  0.36127811018E+02  0.00000000000E+00 0. -1.
         -5    1    5    5    0  502  0.47823882480E+02 -0.20561303852E+02  0.32997414792E+02  0.61812703666E+02  0.47000000000E+01 0. -1.
         15    1    6    6    0    0 -0.81515582252E+02 -0.27065267781E+01  0.66850238239E+02  0.10547145357E+03  0.17770000000E+01 0. -1.
        -16    1    6    6    0    0 -0.51382242879E+01  0.39897760524E+02  0.11298981459E+02  0.41783963738E+02  0.00000000000E+00 0.  1.
<mgrwt>
<rscale>  2 0.17719192E+03</rscale>
<asrwt>0</asrwt>
<pdfrwt beam="1">  1       21 0.29272079E-01 0.17723058E+03</pdfrwt>
<pdfrwt beam="2">  1       21 0.47587377E-01 0.17723058E+03</pdfrwt>
<totfact> 0.47552898E+04</totfact>
</mgrwt>
</event>
<event>
12    2  0.4090627E-002  0.1776612E+03  0.7546771E-02  0.1171262E+00
         21   -1    0    0  501  502  0.00000000000E+00  0.00000000000E+00  0.43909571095E+02  0.43909571095E+02  0.00000000000E+00 0. -1.
         21   -1    0    0  502  503 -0.00000000000E+00 -0.00000000000E+00 -0.90900173549E+03  0.90900173549E+03  0.00000000000E+00 0. -1.
         -6    2    1    2    0  503 -0.86175852887E+00 -0.67206034256E+01 -0.66552355162E+03  0.68882879965E+03  0.17753199243E+03 0.  0.
        -24    2    3    3    0    0 -0.53328571008E+02  0.41018488898E+02 -0.44570250875E+03  0.45779813451E+03  0.80012203706E+02 0.  0.
          6    2    1    2  501    0  0.86175852887E+00  0.67206034256E+01 -0.19956861278E+03  0.26408250693E+03  0.17281791031E+03 0.  0.
         24    2    5    5    0    0 -0.12217862207E+02  0.28782216670E+02 -0.21651095095E+03  0.23298710405E+03  0.80176721184E+02 0.  0.
          5    1    5    5  501    0  0.13079620736E+02 -0.22061613244E+02  0.16942338171E+02  0.31095402879E+02  0.47000000000E+01 0. -1.
        -15    1    6    6    0    0  0.26954443248E+02  0.35940585155E+02 -0.13458156724E+03  0.14189300068E+03  0.17770000000E+01 0.  1.
         16    1    6    6    0    0 -0.39172305455E+02 -0.71583684852E+01 -0.81929383705E+02  0.91094103367E+02  0.00000000000E+00 0. -1.
         -5    1    3    3    0  503  0.52466812479E+02 -0.47739092324E+02 -0.21982104287E+03  0.23103066514E+03  0.47000000000E+01 0.  1.
         15    1    4    4    0    0 -0.81035100973E+01  0.41560100241E+01 -0.30932504938E+03  0.30946418726E+03  0.17770000000E+01 0. -1.
        -16    1    4    4    0    0 -0.45225060910E+02  0.36862478874E+02 -0.13637745937E+03  0.14833394725E+03  0.00000000000E+00 0.  1.
<mgrwt>
<rscale>  2 0.17647171E+03</rscale>
<asrwt>0</asrwt>
<pdfrwt beam="1">  1       21 0.67553187E-02 0.17766124E+03</pdfrwt>
<pdfrwt beam="2">  1       21 0.13984642E+00 0.17766124E+03</pdfrwt>
<totfact> 0.58178133E+04</totfact>
</mgrwt>
</event>
<event>
12    2  0.4090627E-002  0.2462714E+03  0.7546771E-02  0.1116171E+00
         21   -1    0    0  503  502  0.00000000000E+00  0.00000000000E+00  0.72810307518E+02  0.72810307518E+02  0.00000000000E+00 0. -1.
         21   -1    0    0  501  503 -0.00000000000E+00 -0.00000000000E+00 -0.14049895841E+04  0.14049895841E+04  0.00000000000E+00 0. -1.
          6    2    1    2  501    0 -0.16904620627E+03  0.46034007372E+02 -0.11393118732E+04  0.11649941733E+04  0.16877242042E+03 0.  0.
         24    2    3    3    0    0 -0.31402450341E+02  0.43921275416E+02 -0.32613684415E+03  0.34023603606E+03  0.80499234819E+02 0.  0.
         -6    2    1    2    0  502  0.16904620627E+03 -0.46034007372E+02 -0.19286740345E+03  0.31280571831E+03  0.17307175508E+03 0.  0.
        -24    2    5    5    0    0  0.10183185430E+03  0.42174113432E+02 -0.13704423988E+03  0.18856097083E+03  0.68012746166E+02 0.  0.
          5    1    3    3  501    0 -0.13764375593E+03  0.21127319564E+01 -0.81317502901E+03  0.82475813727E+03  0.47000000000E+01 0. -1.
        -15    1    4    4    0    0  0.63659294701E+01 -0.15366578873E+02 -0.14459774980E+03  0.14556209597E+03  0.17770000000E+01 0.  1.
         16    1    4    4    0    0 -0.37768379811E+02  0.59287854289E+02 -0.18153909434E+03  0.19467394010E+03  0.00000000000E+00 0. -1.
         -5    1    5    5    0  502  0.67214351970E+02 -0.88208120805E+02 -0.55823163572E+02  0.12424474749E+03  0.47000000000E+01 0.  1.
         15    1    6    6    0    0 -0.70791509274E+01 -0.60176081102E+01 -0.17040984382E+02  0.19490481342E+02  0.17770000000E+01 0. -1.
        -16    1    6    6    0    0  0.10891100522E+03  0.48191721543E+02 -0.12000325550E+03  0.16907048948E+03  0.00000000000E+00 0.  1.
<mgrwt>
<rscale>  2 0.24551735E+03</rscale>
<asrwt>0</asrwt>
<pdfrwt beam="1">  1       21 0.11201587E-01 0.24627136E+03</pdfrwt>
<pdfrwt beam="2">  1       21 0.21615222E+00 0.24627136E+03</pdfrwt>
<totfact> 0.67417158E+03</totfact>
</mgrwt>
</event>
<event>
12    2  0.4090627E-002  0.1958322E+03  0.7546771E-02  0.1153411E+00
         21   -1    0    0  503  502  0.00000000000E+00  0.00000000000E+00  0.11471489415E+03  0.11471489415E+03  0.00000000000E+00 0.  1.
         21   -1    0    0  501  503 -0.00000000000E+00 -0.00000000000E+00 -0.63616189494E+03  0.63616189494E+03  0.00000000000E+00 0.  1.
          6    2    1    2  501    0  0.67187295860E+02 -0.60937499244E+02 -0.51952633481E+03  0.55503512885E+03  0.17299962471E+03 0.  0.
         24    2    3    3    0    0  0.20321463515E+02  0.13555009701E+02 -0.38543092094E+03  0.39456952458E+03  0.80817168621E+02 0.  0.
         -6    2    1    2    0  502 -0.67187295860E+02  0.60937499244E+02 -0.19206659810E+01  0.19584166025E+03  0.17355908329E+03 0.  0.
        -24    2    5    5    0    0 -0.10856355614E+03  0.65110905740E+02  0.15701260646E+02  0.15043202983E+03  0.79735752600E+02 0.  0.
          5    1    3    3  501    0  0.46865832345E+02 -0.74492508945E+02 -0.13409541387E+03  0.16046560426E+03  0.47000000000E+01 0. -1.
        -15    1    4    4    0    0  0.41303014800E+02 -0.19157951795E+02 -0.20850727839E+03  0.21342776066E+03  0.17770000000E+01 0.  1.
         16    1    4    4    0    0 -0.20981551286E+02  0.32712961496E+02 -0.17692364255E+03  0.18114176393E+03  0.00000000000E+00 0. -1.
         -5    1    5    5    0  502  0.41376260285E+02 -0.41734064964E+01 -0.17621926627E+02  0.45409630421E+02  0.47000000000E+01 0.  1.
         15    1    6    6    0    0 -0.10874904962E+03  0.74263731719E+02 -0.64073979878E+00  0.13170051601E+03  0.17770000000E+01 0. -1.
        -16    1    6    6    0    0  0.18549347354E+00 -0.91528259782E+01  0.16342000445E+02  0.18731513813E+02  0.00000000000E+00 0.  1.
<mgrwt>
<rscale>  2 0.19570821E+03</rscale>
<asrwt>0</asrwt>
<pdfrwt beam="1">  1       21 0.17648445E-01 0.19583224E+03</pdfrwt>
<pdfrwt beam="2">  1       21 0.97871062E-01 0.19583224E+03</pdfrwt>
<totfact> 0.25104352E+04</totfact>
</mgrwt>
</event>
<event>
12    2  0.4090627E-002  0.2649753E+03  0.7546771E-02  0.1104314E+00
         21   -1    0    0  503  502  0.00000000000E+00  0.00000000000E+00  0.20478285951E+03  0.20478285951E+03  0.00000000000E+00 0.  1.
         21   -1    0    0  501  503 -0.00000000000E+00 -0.00000000000E+00 -0.36415727800E+03  0.36415727800E+03  0.00000000000E+00 0. -1.
          6    2    1    2  501    0 -0.17176473656E+03  0.10436970941E+03 -0.90310890508E+01  0.26428454412E+03  0.17137268955E+03 0.  0.
         24    2    3    3    0    0 -0.40410601217E+02 -0.75285974449E+01 -0.18567710194E+02  0.91402569665E+02  0.79498260417E+02 0.  0.
         -6    2    1    2    0  502  0.17176473656E+03 -0.10436970941E+03 -0.15034332944E+03  0.30465559339E+03  0.17267238607E+03 0.  0.
        -24    2    5    5    0    0  0.16236179309E+02 -0.32549109774E+02 -0.11353936920E+02  0.84003215465E+02  0.74863677836E+02 0.  0.
          5    1    3    3  501    0 -0.13135413535E+03  0.11189830685E+03  0.95366211435E+01  0.17288197445E+03  0.47000000000E+01 0. -1.
        -15    1    4    4    0    0 -0.17371717203E+02  0.14815454461E+02  0.27166327390E+02  0.35530850290E+02  0.17770000000E+01 0.  1.
         16    1    4    4    0    0 -0.23038884014E+02 -0.22344051906E+02 -0.45734037584E+02  0.55871719375E+02  0.00000000000E+00 0. -1.
         -5    1    5    5    0  502  0.15552855725E+03 -0.71820599633E+02 -0.13898939252E+03  0.22065237793E+03  0.47000000000E+01 0.  1.
         15    1    6    6    0    0 -0.23805567600E+02  0.69746199313E+01  0.50932604934E+01  0.25386008024E+02  0.17770000000E+01 0. -1.
        -16    1    6    6    0    0  0.40041746909E+02 -0.39523729705E+02 -0.16447197414E+02  0.58617207441E+02  0.00000000000E+00 0.  1.
<mgrwt>
<rscale>  2 0.26476378E+03</rscale>
<asrwt>0</asrwt>
<pdfrwt beam="1">  1       21 0.31505056E-01 0.26497531E+03</pdfrwt>
<pdfrwt beam="2">  1       21 0.56024196E-01 0.26497531E+03</pdfrwt>
<totfact> 0.28030429E+04</totfact>
</mgrwt>
</event>
<event>
12    2  0.4090627E-002  0.2005105E+03  0.7546771E-02  0.1150012E+00
         21   -1    0    0  501  502  0.00000000000E+00  0.00000000000E+00  0.18401107493E+03  0.18401107493E+03  0.00000000000E+00 0. -1.
         21   -1    0    0  502  503 -0.00000000000E+00 -0.00000000000E+00 -0.21604329218E+03  0.21604329218E+03  0.00000000000E+00 0.  1.
         -6    2    1    2    0  503 -0.65948586431E+02  0.44760873289E+02 -0.15473879137E+01  0.20051651190E+03  0.18398838361E+03 0.  0.
        -24    2    3    3    0    0 -0.10128132320E+03 -0.15692465510E+02  0.69915170841E+01  0.12981989700E+03  0.79373575225E+02 0.  0.
          6    2    1    2  501    0  0.65948586431E+02 -0.44760873289E+02 -0.30484829335E+02  0.19953785522E+03  0.18036983954E+03 0.  0.
         24    2    5    5    0    0  0.11149664936E+03 -0.56226723029E+02 -0.24051387058E+02  0.15189784129E+03  0.83075494387E+02 0.  0.
          5    1    5    5  501    0 -0.45548062933E+02  0.11465849740E+02 -0.64334422766E+01  0.47640013925E+02  0.47000000000E+01 0. -1.
        -15    1    6    6    0    0  0.24203985883E+02  0.20117492519E+02 -0.16759596636E+02  0.35701375971E+02  0.17770000000E+01 0.  1.
         16    1    6    6    0    0  0.87292663481E+02 -0.76344215548E+02 -0.72917904223E+01  0.11619646532E+03  0.00000000000E+00 0. -1.
         -5    1    3    3    0  503  0.35332736765E+02  0.60453338799E+02 -0.85389049979E+01  0.70696614896E+02  0.47000000000E+01 0.  1.
         15    1    4    4    0    0 -0.54251277305E+02  0.22960736743E+02 -0.21330389711E+02  0.62678064546E+02  0.17770000000E+01 0. -1.
        -16    1    4    4    0    0 -0.47030045891E+02 -0.38653202252E+02  0.28321906795E+02  0.67141832454E+02  0.00000000000E+00 0.  1.
<mgrwt>
<rscale>  2 0.19967657E+03</rscale>
<asrwt>0</asrwt>
<pdfrwt beam="1">  1       21 0.28309396E-01 0.20051054E+03</pdfrwt>
<pdfrwt beam="2">  1       21 0.33237429E-01 0.20051054E+03</pdfrwt>
<totfact> 0.10363880E+05</totfact>
</mgrwt>
</event>
<event>
12    2  0.4090627E-002  0.2454017E+03  0.7546771E-02  0.1116497E+00
         21   -1    0    0  503  502  0.00000000000E+00  0.00000000000E+00  0.32421654208E+03  0.32421654208E+03  0.00000000000E+00 0.  1.
         21   -1    0    0  501  503 -0.00000000000E+00 -0.00000000000E+00 -0.30221248996E+03  0.30221248996E+03  0.00000000000E+00 0.  1.
          6    2    1    2  501    0 -0.25152934861E+02  0.17161031022E+03 -0.18438910817E+03  0.30695495389E+03  0.17360654309E+03 0.  0.
         24    2    3    3    0    0 -0.70528224555E+01  0.10640801071E+03 -0.19721342542E+03  0.23792230189E+03  0.79633407073E+02 0.  0.
         -6    2    1    2    0  502  0.25152934861E+02 -0.17161031022E+03  0.20639316029E+03  0.31947407815E+03  0.17141406387E+03 0.  0.
        -24    2    5    5    0    0 -0.14310752687E+02 -0.18850795608E+02  0.86303459316E+02  0.12113981934E+03  0.81648139002E+02 0.  0.
          5    1    3    3  501    0 -0.18100112405E+02  0.65202299502E+02  0.12824317254E+02  0.69032652002E+02  0.47000000000E+01 0. -1.
        -15    1    4    4    0    0  0.26133020520E+01  0.50409414692E+01 -0.89496045551E+02  0.89693591392E+02  0.17770000000E+01 0.  1.
         16    1    4    4    0    0 -0.96661245075E+01  0.10136706924E+03 -0.10771737987E+03  0.14822871050E+03  0.00000000000E+00 0. -1.
         -5    1    5    5    0  502  0.39463687548E+02 -0.15275951461E+03  0.12008970097E+03  0.19833425881E+03  0.47000000000E+01 0.  1.
         15    1    6    6    0    0 -0.24535945084E+02 -0.19494894914E+02 -0.27411755074E+01  0.31507702249E+02  0.17770000000E+01 0. -1.
        -16    1    6    6    0    0  0.10225192396E+02  0.64409930607E+00  0.89044634824E+02  0.89632117092E+02  0.00000000000E+00 0.  1.
<mgrwt>
<rscale>  2 0.24501427E+03</rscale>
<asrwt>0</asrwt>
<pdfrwt beam="1">  1       21 0.49879468E-01 0.24540171E+03</pdfrwt>
<pdfrwt beam="2">  1       21 0.46494229E-01 0.24540171E+03</pdfrwt>
<totfact> 0.16462678E+04</totfact>
</mgrwt>
</event>
<event>
12    2  0.4090627E-002  0.1874114E+03  0.7546771E-02  0.1161126E+00
         21   -1    0    0  501  502  0.00000000000E+00  0.00000000000E+00  0.46445130421E+03  0.46445130421E+03  0.00000000000E+00 0.  1.
         21   -1    0    0  502  503 -0.00000000000E+00 -0.00000000000E+00 -0.33216277567E+03  0.33216277567E+03  0.00000000000E+00 0.  1.
         -6    2    1    2    0  503  0.70630425293E+02 -0.16010199471E+02 -0.28431870888E+03  0.33979394986E+03  0.17139958190E+03 0.  0.
        -24    2    3    3    0    0  0.36678681098E+02 -0.72292146963E+02 -0.21859167935E+03  0.24672133864E+03  0.80731756457E+02 0.  0.
          6    2    1    2  501    0 -0.70630425293E+02  0.16010199471E+02  0.41660723742E+03  0.45682013003E+03  0.17285270452E+03 0.  0.
         24    2    5    5    0    0  0.10691447710E+02  0.42674926414E+02  0.23541710957E+03  0.25638009630E+03  0.91510009830E+02 0.  0.
          5    1    5    5  501    0 -0.81321873003E+02 -0.26664726943E+02  0.18119012785E+03  0.20044003373E+03  0.47000000000E+01 0. -1.
        -15    1    6    6    0    0 -0.11056407129E+02  0.58069777261E+02  0.84564235336E+02  0.10319210627E+03  0.17770000000E+01 0.  1.
         16    1    6    6    0    0  0.21747854840E+02 -0.15394850847E+02  0.15085287424E+03  0.15318799003E+03  0.00000000000E+00 0. -1.
         -5    1    3    3    0  503  0.33951744195E+02  0.56281947492E+02 -0.65727029534E+02  0.93072611217E+02  0.47000000000E+01 0.  1.
         15    1    4    4    0    0 -0.23021573508E+02 -0.12870180894E+02 -0.82886072695E+02  0.86999386083E+02  0.17770000000E+01 0. -1.
        -16    1    4    4    0    0  0.59700254606E+02 -0.59421966070E+02 -0.13570560665E+03  0.15972195256E+03  0.00000000000E+00 0.  1.
<mgrwt>
<rscale>  2 0.18707567E+03</rscale>
<asrwt>0</asrwt>
<pdfrwt beam="1">  1       21 0.71454047E-01 0.18741142E+03</pdfrwt>
<pdfrwt beam="2">  1       21 0.51101965E-01 0.18741142E+03</pdfrwt>
<totfact> 0.64719788E+03</totfact>
</mgrwt>
</event>
<event>
12    2  0.4090627E-002  0.2224994E+03  0.7546771E-02  0.1132558E+00
         21   -1    0    0  503  502  0.00000000000E+00  0.00000000000E+00  0.61966743455E+02  0.61966743455E+02  0.00000000000E+00 0. -1.
         21   -1    0    0  501  503 -0.00000000000E+00 -0.00000000000E+00 -0.82048499654E+03  0.82048499654E+03  0.00000000000E+00 0.  1.
          6    2    1    2  501    0  0.92296099880E+02 -0.10502314919E+03 -0.46368753450E+03  0.51308590310E+03  0.16941836498E+03 0.  0.
         24    2    3    3    0    0  0.62481517955E+02 -0.13526389417E+03 -0.39682485521E+03  0.43373781028E+03  0.91968805606E+02 0.  0.
         -6    2    1    2    0  502 -0.92296099880E+02  0.10502314919E+03 -0.29483071858E+03  0.36936583689E+03  0.17308245701E+03 0.  0.
        -24    2    5    5    0    0 -0.46253571507E+02  0.12359198691E+03 -0.27578807680E+03  0.31598579981E+03  0.79834768547E+02 0.  0.
          5    1    3    3  501    0  0.29814581925E+02  0.30240744980E+02 -0.66862679293E+02  0.79348092822E+02  0.47000000000E+01 0. -1.
        -15    1    4    4    0    0  0.15869917602E+02 -0.84170707210E+01 -0.16042287303E+03  0.16143530371E+03  0.17770000000E+01 0.  1.
         16    1    4    4    0    0  0.46611600354E+02 -0.12684682344E+03 -0.23640198217E+03  0.27230250656E+03  0.00000000000E+00 0. -1.
         -5    1    5    5    0  502 -0.46042528373E+02 -0.18568837720E+02 -0.19042641783E+02  0.53380037086E+02  0.47000000000E+01 0.  1.
         15    1    6    6    0    0  0.15766678731E+02  0.10820766624E+02 -0.12470159646E+02  0.22898466305E+02  0.17770000000E+01 0. -1.
        -16    1    6    6    0    0 -0.62020250239E+02  0.11277122028E+03 -0.26331791716E+03  0.29308733350E+03  0.00000000000E+00 0.  1.
<mgrwt>
<rscale>  2 0.22178639E+03</rscale>
<asrwt>0</asrwt>
<pdfrwt beam="1">  1       21 0.95333456E-02 0.22249937E+03</pdfrwt>
<pdfrwt beam="2">  1       21 0.12622846E+00 0.22249937E+03</pdfrwt>
<totfact> 0.40431968E+04</totfact>
</mgrwt>
</event>
<event>
12    2  0.4090627E-002  0.2066355E+03  0.7546771E-02  0.1144666E+00
         21   -1    0    0  503  502  0.00000000000E+00  0.00000000000E+00  0.74773149983E+03  0.74773149983E+03  0.00000000000E+00 0. -1.
         21   -1    0    0  501  503 -0.00000000000E+00 -0.00000000000E+00 -0.77729406367E+02  0.77729406367E+02  0.00000000000E+00 0. -1.
          6    2    1    2  501    0  0.83409517021E+02  0.69971455484E+02  0.12075315773E+03  0.23933143283E+03  0.17562761037E+03 0.  0.
         24    2    3    3    0    0  0.45964651475E+02  0.10909730674E+03  0.11499923765E+03  0.18466747955E+03  0.82838890744E+02 0.  0.
         -6    2    1    2    0  502 -0.83409517021E+02 -0.69971455484E+02  0.54924893573E+03  0.58612947337E+03  0.17326342383E+03 0.  0.
        -24    2    5    5    0    0  0.20340601954E+02 -0.91678075289E+01  0.26689076451E+03  0.27919397909E+03  0.78872105321E+02 0.  0.
          5    1    3    3  501    0  0.37444865546E+02 -0.39125851254E+02  0.57539200839E+01  0.54663953282E+02  0.47000000000E+01 0. -1.
        -15    1    4    4    0    0  0.61239763238E+02  0.45126505871E+02  0.44043115457E+02  0.87918507048E+02  0.17770000000E+01 0.  1.
         16    1    4    4    0    0 -0.15275111763E+02  0.63970800868E+02  0.70956122191E+02  0.96748972498E+02  0.00000000000E+00 0. -1.
         -5    1    5    5    0  502 -0.10375011897E+03 -0.60803647956E+02  0.28235817122E+03  0.30693549428E+03  0.47000000000E+01 0.  1.
         15    1    6    6    0    0  0.11167295159E+02 -0.17172358847E+02  0.26620729244E+03  0.26700014731E+03  0.17770000000E+01 0. -1.
        -16    1    6    6    0    0  0.91733067943E+01  0.80045513185E+01  0.68347207184E+00  0.12193831778E+02  0.00000000000E+00 0.  1.
<mgrwt>
<rscale>  2 0.20613221E+03</rscale>
<asrwt>0</asrwt>
<pdfrwt beam="1">  1       21 0.11503561E+00 0.20663545E+03</pdfrwt>
<pdfrwt beam="2">  1       21 0.11958371E-01 0.20663545E+03</pdfrwt>
<totfact> 0.34317950E+04</totfact>
</mgrwt>
</event>
<event>
12    2  0.4090627E-002  0.1800431E+03  0.7546771E-02  0.1168124E+00
         21   -1    0    0  503  502  0.00000000000E+00  0.00000000000E+00  0.77839517268E+02  0.77839517268E+02  0.00000000000E+00 0.  1.
         21   -1    0    0  501  503 -0.00000000000E+00 -0.00000000000E+00 -0.48143842646E+03  0.48143842646E+03  0.00000000000E+00 0.  1.
          6    2    1    2  501    0 -0.46826273950E+02  0.20811669020E+01 -0.30795962914E+03  0.35672767818E+03  0.17383461109E+03 0.  0.
         24    2    3    3    0    0 -0.87429743118E+02  0.33960200820E+02 -0.17519205210E+03  0.21419966681E+03  0.79949902576E+02 0.  0.
         -6    2    1    2    0  502  0.46826273950E+02 -0.20811669020E+01 -0.95639280053E+02  0.20255026555E+03  0.17228670000E+03 0.  0.
        -24    2    5    5    0    0 -0.21275437845E+02 -0.24807168095E+02 -0.98004573542E+02  0.13056416347E+03  0.79837738583E+02 0.  0.
          5    1    3    3  501    0  0.40603469167E+02 -0.31879033918E+02 -0.13276757704E+03  0.14252801137E+03  0.47000000000E+01 0. -1.
        -15    1    4    4    0    0 -0.25607642083E+02  0.45424917561E+02 -0.11874762963E+03  0.12970478688E+03  0.17770000000E+01 0.  1.
         16    1    4    4    0    0 -0.61822101034E+02 -0.11464716741E+02 -0.56444422469E+02  0.84494879928E+02  0.00000000000E+00 0. -1.
         -5    1    5    5    0  502  0.68101711795E+02  0.22726001193E+02  0.23652934890E+01  0.71986102082E+02  0.47000000000E+01 0.  1.
         15    1    6    6    0    0 -0.66968394897E+01  0.15599593215E+02  0.59560572639E+01  0.18078365931E+02  0.17770000000E+01 0. -1.
        -16    1    6    6    0    0 -0.14578598355E+02 -0.40406761310E+02 -0.10396063081E+03  0.11248579754E+03  0.00000000000E+00 0.  1.
<mgrwt>
<rscale>  2 0.17966837E+03</rscale>
<asrwt>0</asrwt>
<pdfrwt beam="1">  1       21 0.11975311E-01 0.18004306E+03</pdfrwt>
<pdfrwt beam="2">  1       21 0.74067449E-01 0.18004306E+03</pdfrwt>
<totfact> 0.96774279E+04</totfact>
</mgrwt>
</event>
<event>
12    2  0.4090627E-002  0.2996277E+03  0.7546771E-02  0.1085991E+00
         21   -1    0    0  501  502  0.00000000000E+00  0.00000000000E+00  0.14535143329E+04  0.14535143329E+04  0.00000000000E+00 0. -1.
         21   -1    0    0  502  503 -0.00000000000E+00 -0.00000000000E+00 -0.61101087352E+02  0.61101087352E+02  0.00000000000E+00 0.  1.
         -6    2    1    2    0  503  0.19459630616E+03  0.13702992737E+03  0.73983963013E+03  0.79654225825E+03  0.17456221669E+03 0.  0.
        -24    2    3    3    0    0  0.39066276976E+02  0.65538926045E+02  0.17631280108E+03  0.20757270869E+03  0.78604711966E+02 0.  0.
          6    2    1    2  501    0 -0.19459630616E+03 -0.13702992737E+03  0.65257361541E+03  0.71807316200E+03  0.18202147974E+03 0.  0.
         24    2    5    5    0    0 -0.89989268720E+02 -0.33918579668E+02  0.14635568322E+03  0.19095527464E+03  0.76127474468E+02 0.  0.
          5    1    5    5  501    0 -0.10460703744E+03 -0.10311134770E+03  0.50621793219E+03  0.52711788736E+03  0.47000000000E+01 0. -1.
        -15    1    6    6    0    0  0.29106899787E+01 -0.20267282513E+01 -0.74627120412E+01  0.84516000595E+01  0.17770000000E+01 0.  1.
         16    1    6    6    0    0 -0.92899958699E+02 -0.31891851417E+02  0.15381839526E+03  0.18250367458E+03  0.00000000000E+00 0. -1.
         -5    1    3    3    0  503  0.15553002918E+03  0.71491001323E+02  0.56352682905E+03  0.58896954956E+03  0.47000000000E+01 0.  1.
         15    1    4    4    0    0  0.29366836650E+02 -0.10870078184E+02  0.38115431413E+02  0.49361052818E+02  0.17770000000E+01 0. -1.
        -16    1    4    4    0    0  0.96994403263E+01  0.76409004229E+02  0.13819736967E+03  0.15821165587E+03  0.00000000000E+00 0.  1.
<mgrwt>
<rscale>  2 0.29850337E+03</rscale>
<asrwt>0</asrwt>
<pdfrwt beam="1">  1       21 0.22361756E+00 0.29962767E+03</pdfrwt>
<pdfrwt beam="2">  1       21 0.94001684E-02 0.29962767E+03</pdfrwt>
<totfact> 0.79913921E+03</totfact>
</mgrwt>
</event>
<event>
11    2  0.4090627E-002  0.1920136E+03  0.7546771E-02  0.1158399E+00
         21   -1    0    0  501  502  0.00000000000E+00  0.00000000000E+00  0.17012586745E+03  0.17012586745E+03  0.00000000000E+00 0. -1.
         21   -1    0    0  502  503 -0.00000000000E+00 -0.00000000000E+00 -0.23814435649E+03  0.23814435649E+03  0.00000000000E+00 0. -1.
         -6    2    1    2    0  503 -0.67848930589E+02  0.51419890365E+02 -0.10582836364E+03  0.21256944902E+03  0.16351955724E+03 0.  0.
          6    2    1    2  501    0  0.67848930589E+02 -0.51419890365E+02  0.37809874593E+02  0.19570077492E+03  0.17210962837E+03 0.  0.
         24    2    4    4    0    0  0.12005233071E+02 -0.10391971545E+02  0.81326434457E+02  0.11373987169E+03  0.77914381067E+02 0.  0.
          5    1    4    4  501    0  0.55843697519E+02 -0.41027918820E+02 -0.43516559864E+02  0.81960903226E+02  0.47000000000E+01 0. -1.
        -15    1    5    5    0    0 -0.28052064296E+02  0.23492395530E+01  0.81678589235E+01  0.29365096393E+02  0.17770000000E+01 0.  1.
         16    1    5    5    0    0  0.40057297367E+02 -0.12741211098E+02  0.73158575534E+02  0.84374775299E+02  0.00000000000E+00 0. -1.
         -5    1    3    3    0  503  0.47899702618E+02 -0.82318079865E+01 -0.37161640663E+02  0.61361402448E+02  0.47000000000E+01 0.  1.
         15    1    3    3    0    0 -0.81288744737E+02  0.57417949078E+02 -0.44338810061E+02  0.10896682387E+03  0.17770000000E+01 0. -1.
        -16    1    3    3    0    0 -0.34459888471E+02  0.22337492733E+01 -0.24327912911E+02  0.42241222708E+02  0.00000000000E+00 0.  1.
<mgrwt>
<rscale>  2 0.19006915E+03</rscale>
<asrwt>0</asrwt>
<pdfrwt beam="1">  1       21 0.26173210E-01 0.19201356E+03</pdfrwt>
<pdfrwt beam="2">  1       21 0.36637593E-01 0.19201356E+03</pdfrwt>
<totfact> 0.99711276E+04</totfact>
</mgrwt>
</event>
<event>
12    2  0.4090627E-002  0.1780222E+03  0.7546771E-02  0.1169731E+00
         21   -1    0    0  501  502  0.00000000000E+00  0.00000000000E+00  0.31291984562E+03  0.31291984562E+03  0.00000000000E+00 0.  1.
         21   -1    0    0  502  503 -0.00000000000E+00 -0.00000000000E+00 -0.10166117498E+03  0.10166117498E+03  0.00000000000E+00 0.  1.
         -6    2    1    2    0  503  0.33982421397E+01 -0.41074510772E+02  0.92897702776E+02  0.20080311296E+03  0.17318557534E+03 0.  0.
        -24    2    3    3    0    0 -0.15672665167E+02  0.39040584341E+02  0.64112809982E+02  0.11343728426E+03  0.83592854946E+02 0.  0.
          6    2    1    2  501    0 -0.33982421397E+01  0.41074510772E+02  0.11836096786E+03  0.21377790765E+03  0.17318490581E+03 0.  0.
         24    2    5    5    0    0  0.16813674259E+01  0.44454589231E+02  0.15350777446E+03  0.17779714365E+03  0.77898330996E+02 0.  0.
          5    1    5    5  501    0 -0.50796095656E+01 -0.33800784599E+01 -0.35146806597E+02  0.35980763996E+02  0.47000000000E+01 0. -1.
        -15    1    6    6    0    0  0.57315321814E+01  0.65469052896E+02  0.95275450767E+02  0.11575671296E+03  0.17770000000E+01 0.  1.
         16    1    6    6    0    0 -0.40501647555E+01 -0.21014463665E+02  0.58232323691E+02  0.62040430690E+02  0.00000000000E+00 0. -1.
         -5    1    3    3    0  503  0.19070907306E+02 -0.80115095112E+02  0.28784892794E+02  0.87365828695E+02  0.47000000000E+01 0.  1.
         15    1    4    4    0    0 -0.27739979663E+02 -0.16589046385E+02  0.40408486078E+02  0.51775538702E+02  0.17770000000E+01 0. -1.
        -16    1    4    4    0    0  0.12067314497E+02  0.55629630726E+02  0.23704323904E+02  0.61661745561E+02  0.00000000000E+00 0.  1.
<mgrwt>
<rscale>  2 0.17802205E+03</rscale>
<asrwt>0</asrwt>
<pdfrwt beam="1">  1       21 0.48141514E-01 0.17802221E+03</pdfrwt>
<pdfrwt beam="2">  1       21 0.15640181E-01 0.17802221E+03</pdfrwt>
<totfact> 0.15057075E+05</totfact>
</mgrwt>
</event>
<event>
12    2  0.4090627E-002  0.2043106E+03  0.7546771E-02  0.1148104E+00
         21   -1    0    0  501  502  0.00000000000E+00  0.00000000000E+00  0.57179847544E+03  0.57179847544E+03  0.00000000000E+00 0. -1.
         21   -1    0    0  502  503 -0.00000000000E+00 -0.00000000000E+00 -0.79639581944E+02  0.79639581944E+02  0.00000000000E+00 0. -1.
         -6    2    1    2    0  503  0.42635982178E+02 -0.79855949377E+02  0.12616896189E+03  0.23228242835E+03  0.17274756134E+03 0.  0.
        -24    2    3    3    0    0  0.34397398111E+02 -0.96894820540E+02  0.24224926892E+02  0.12848997357E+03  0.73150796182E+02 0.  0.
          6    2    1    2  501    0 -0.42635982178E+02  0.79855949377E+02  0.36598993161E+03  0.41915562903E+03  0.18316116314E+03 0.  0.
         24    2    5    5    0    0 -0.58104830063E+02  0.10116667394E+03  0.36619497234E+03  0.39240559580E+03  0.79199284466E+02 0.  0.
          5    1    5    5  501    0  0.15468847885E+02 -0.21310724559E+02 -0.20504072586E+00  0.26750033230E+02  0.47000000000E+01 0. -1.
        -15    1    6    6    0    0  0.19298536113E+02  0.11612802428E+02  0.55074745094E+02  0.59528782555E+02  0.17770000000E+01 0.  1.
         16    1    6    6    0    0 -0.77403366176E+02  0.89553871508E+02  0.31112022724E+03  0.33287681325E+03  0.00000000000E+00 0. -1.
         -5    1    3    3    0  503  0.82385840676E+01  0.17038871163E+02  0.10194403499E+03  0.10379245478E+03  0.47000000000E+01 0.  1.
         15    1    4    4    0    0 -0.17200253995E+02 -0.35690701348E+02 -0.10812427367E+02  0.41106461959E+02  0.17770000000E+01 0. -1.
        -16    1    4    4    0    0  0.51597652106E+02 -0.61204119192E+02  0.35037354259E+02  0.87383511616E+02  0.00000000000E+00 0.  1.
<mgrwt>
<rscale>  2 0.20194971E+03</rscale>
<asrwt>0</asrwt>
<pdfrwt beam="1">  1       21 0.87968994E-01 0.20431058E+03</pdfrwt>
<pdfrwt beam="2">  1       21 0.12252244E-01 0.20431058E+03</pdfrwt>
<totfact> 0.62262707E+04</totfact>
</mgrwt>
</event>
<event>
12    2  0.4090627E-002  0.2612717E+03  0.7546771E-02  0.1106525E+00
         21   -1    0    0  501  502  0.00000000000E+00  0.00000000000E+00  0.83567258606E+03  0.83567258606E+03  0.00000000000E+00 0.  1.
         21   -1    0    0  502  503 -0.00000000000E+00 -0.00000000000E+00 -0.10886784931E+03  0.10886784931E+03  0.00000000000E+00 0. -1.
         -6    2    1    2    0  503 -0.18728149402E+03 -0.51682095630E+02  0.12662592844E+03  0.29033946298E+03  0.17469253276E+03 0.  0.
        -24    2    3    3    0    0 -0.69633077643E+02 -0.63084389603E+02  0.11922353166E+03  0.17181500280E+03  0.80484402037E+02 0.  0.
          6    2    1    2  501    0  0.18728149402E+03  0.51682095630E+02  0.60017880831E+03  0.65420097239E+03  0.17325967020E+03 0.  0.
         24    2    5    5    0    0  0.12852971698E+03  0.95497075019E+02  0.49397058003E+03  0.52507389746E+03  0.77820847947E+02 0.  0.
          5    1    5    5  501    0  0.58751777045E+02 -0.43814979389E+02  0.10620822828E+03  0.12912707493E+03  0.47000000000E+01 0. -1.
        -15    1    6    6    0    0  0.85192013813E+02  0.15238340973E+02  0.25468021075E+03  0.26898894723E+03  0.17770000000E+01 0.  1.
         16    1    6    6    0    0  0.43337703166E+02  0.80258734047E+02  0.23929036928E+03  0.25608495024E+03  0.00000000000E+00 0. -1.
         -5    1    3    3    0  503 -0.11764841638E+03  0.11402293973E+02  0.74023967774E+01  0.11852446019E+03  0.47000000000E+01 0.  1.
         15    1    4    4    0    0  0.77237727878E+01 -0.52562447432E+01 -0.77604833665E+01  0.12274673355E+02  0.17770000000E+01 0. -1.
        -16    1    4    4    0    0 -0.77356850431E+02 -0.57828144860E+02  0.12698401503E+03  0.15954032944E+03  0.00000000000E+00 0.  1.
<mgrwt>
<rscale>  2 0.26103236E+03</rscale>
<asrwt>0</asrwt>
<pdfrwt beam="1">  1       21 0.12856501E+00 0.26127166E+03</pdfrwt>
<pdfrwt beam="2">  1       21 0.16748900E-01 0.26127166E+03</pdfrwt>
<totfact> 0.13665843E+04</totfact>
</mgrwt>
</event>
<event>
12    2  0.4090627E-002  0.1788333E+03  0.7546771E-02  0.1168970E+00
         21   -1    0    0  501  502  0.00000000000E+00  0.00000000000E+00  0.29380235661E+03  0.29380235661E+03  0.00000000000E+00 0. -1.
         21   -1    0    0  502  503 -0.00000000000E+00 -0.00000000000E+00 -0.10878342547E+03  0.10878342547E+03  0.00000000000E+00 0. -1.
         -6    2    1    2    0  503  0.28631139169E+02  0.35496479193E+02  0.94530311852E+02  0.20216236586E+03  0.17278281207E+03 0.  0.
        -24    2    3    3    0    0  0.63733791554E+02 -0.26816239360E+02  0.64562299555E+02  0.12447554035E+03  0.80899707919E+02 0.  0.
          6    2    1    2  501    0 -0.28631139169E+02 -0.35496479193E+02  0.90488619292E+02  0.20042341622E+03  0.17292082981E+03 0.  0.
         24    2    5    5    0    0  0.12668273564E+02 -0.65498012769E+02  0.10608415922E+02  0.10550940040E+03  0.81050726415E+02 0.  0.
          5    1    5    5  501    0 -0.41299412732E+02  0.30001533577E+02  0.79880203370E+02  0.94914015822E+02  0.47000000000E+01 0. -1.
        -15    1    6    6    0    0  0.21781567769E+02 -0.92979390303E+01  0.36033396390E+02  0.43156132230E+02  0.17770000000E+01 0.  1.
         16    1    6    6    0    0 -0.91132942054E+01 -0.56200073739E+02 -0.25424980468E+02  0.62353268169E+02  0.00000000000E+00 0. -1.
         -5    1    3    3    0  503 -0.35102652386E+02  0.62312718553E+02  0.29968012297E+02  0.77686825518E+02  0.47000000000E+01 0.  1.
         15    1    4    4    0    0  0.33960561045E+02 -0.44291890788E+01 -0.14378943565E+02  0.37186680000E+02  0.17770000000E+01 0. -1.
        -16    1    4    4    0    0  0.29773230509E+02 -0.22387050281E+02  0.78941243120E+02  0.87288860347E+02  0.00000000000E+00 0.  1.
<mgrwt>
<rscale>  2 0.17879995E+03</rscale>
<asrwt>0</asrwt>
<pdfrwt beam="1">  1       21 0.45200362E-01 0.17883332E+03</pdfrwt>
<pdfrwt beam="2">  1       21 0.16735912E-01 0.17883332E+03</pdfrwt>
<totfact> 0.15144160E+05</totfact>
</mgrwt>
</event>
<event>
12    2  0.4090627E-002  0.2145203E+03  0.7546771E-02  0.1138928E+00
         21   -1    0    0  503  502  0.00000000000E+00  0.00000000000E+00  0.34176758041E+03  0.34176758041E+03  0.00000000000E+00 0. -1.
         21   -1    0    0  501  503 -0.00000000000E+00 -0.00000000000E+00 -0.13495450454E+03  0.13495450454E+03  0.00000000000E+00 0.  1.
          6    2    1    2  501    0  0.79769422107E+02 -0.90466250433E+02  0.67997116558E+02  0.22503907331E+03  0.17740257462E+03 0.  0.
         24    2    3    3    0    0  0.93579857311E+01 -0.46458240844E+01 -0.18945624649E+02  0.83957372863E+02  0.81121810793E+02 0.  0.
         -6    2    1    2    0  502 -0.79769422107E+02  0.90466250433E+02  0.13881595932E+03  0.25168301165E+03  0.17183470144E+03 0.  0.
        -24    2    5    5    0    0 -0.39117228018E+02 -0.63622889570E+01  0.65718738050E+02  0.12364528017E+03  0.96946204303E+02 0.  0.
          5    1    3    3  501    0  0.70411436376E+02 -0.85820426349E+02  0.86942741207E+02  0.14108170044E+03  0.47000000000E+01 0. -1.
        -15    1    4    4    0    0  0.13165719600E+02  0.30821816472E+02 -0.31609532584E+02  0.46104672457E+02  0.17770000000E+01 0.  1.
         16    1    4    4    0    0 -0.38077338688E+01 -0.35467640556E+02  0.12663907935E+02  0.37852700406E+02  0.00000000000E+00 0. -1.
         -5    1    5    5    0  502 -0.40652194089E+02  0.96828539390E+02  0.73097221266E+02  0.12803773148E+03  0.47000000000E+01 0.  1.
         15    1    6    6    0    0  0.21234165136E+02  0.10420017679E+02 -0.96812018963E+01  0.25619327404E+02  0.17770000000E+01 0. -1.
        -16    1    6    6    0    0 -0.60351393154E+02 -0.16782306636E+02  0.75399939946E+02  0.98025952765E+02  0.00000000000E+00 0.  1.
<mgrwt>
<rscale>  2 0.21336577E+03</rscale>
<asrwt>0</asrwt>
<pdfrwt beam="1">  1       21 0.52579627E-01 0.21452034E+03</pdfrwt>
<pdfrwt beam="2">  1       21 0.20762232E-01 0.21452034E+03</pdfrwt>
<totfact> 0.73114778E+04</totfact>
</mgrwt>
</event>
<event>
12    2  0.4090627E-002  0.1862095E+03  0.7546771E-02  0.1162171E+00
         21   -1    0    0  503  502  0.00000000000E+00  0.00000000000E+00  0.68953070620E+02  0.68953070620E+02  0.00000000000E+00 0.  1.
         21   -1    0    0  501  503 -0.00000000000E+00 -0.00000000000E+00 -0.68485003133E+03  0.68485003133E+03  0.00000000000E+00 0.  1.
          6    2    1    2  501    0 -0.22641878985E+02  0.58987962205E+02 -0.50439280786E+03  0.53766725596E+03  0.17516203683E+03 0.  0.
         24    2    3    3    0    0 -0.41737427943E+02  0.80417993193E+02 -0.22312273592E+03  0.25489733255E+03  0.83545366942E+02 0.  0.
         -6    2    1    2    0  502  0.22641878985E+02 -0.58987962205E+02 -0.11150415285E+03  0.21613584598E+03  0.17403819537E+03 0.  0.
        -24    2    5    5    0    0  0.78200407077E+02 -0.61199600946E+01 -0.69055304774E+02  0.12835332840E+03  0.74519690114E+02 0.  0.
          5    1    3    3  501    0  0.19095548959E+02 -0.21430030988E+02 -0.28127007194E+03  0.28276992341E+03  0.47000000000E+01 0. -1.
        -15    1    4    4    0    0  0.25103663757E+02  0.16995382891E+02 -0.67989474832E+02  0.74463168014E+02  0.17770000000E+01 0.  1.
         16    1    4    4    0    0 -0.66841091700E+02  0.63422610302E+02 -0.15513326109E+03  0.18043416454E+03  0.00000000000E+00 0. -1.
         -5    1    5    5    0  502 -0.55558528092E+02 -0.52868002110E+02 -0.42448848075E+02  0.87782517586E+02  0.47000000000E+01 0.  1.
         15    1    6    6    0    0  0.38214509320E+02  0.19428069615E+02 -0.68584935374E+02  0.80900245369E+02  0.17770000000E+01 0. -1.
        -16    1    6    6    0    0  0.39985897757E+02 -0.25548029710E+02 -0.47036939986E+00  0.47453083028E+02  0.00000000000E+00 0.  1.
<mgrwt>
<rscale>  2 0.18594473E+03</rscale>
<asrwt>0</asrwt>
<pdfrwt beam="1">  1       21 0.10608164E-01 0.18620949E+03</pdfrwt>
<pdfrwt beam="2">  1       21 0.10536155E+00 0.18620949E+03</pdfrwt>
<totfact> 0.53132253E+04</totfact>
</mgrwt>
</event>
<event>
12    2  0.4090627E-002  0.1923205E+03  0.7546771E-02  0.1156450E+00
         21   -1    0    0  501  502  0.00000000000E+00  0.00000000000E+00  0.87260695744E+02  0.87260695744E+02  0.00000000000E+00 0.  1.
         21   -1    0    0  502  503 -0.00000000000E+00 -0.00000000000E+00 -0.51178645524E+03  0.51178645524E+03  0.00000000000E+00 0. -1.
         -6    2    1    2    0  503  0.36030691740E+02 -0.75507736098E+02 -0.33672662734E+03  0.38763321540E+03  0.17284403134E+03 0.  0.
        -24    2    3    3    0    0 -0.27444034691E+02 -0.13888889293E+02 -0.24358932118E+03  0.25909306225E+03  0.82748904662E+02 0.  0.
          6    2    1    2  501    0 -0.36030691740E+02  0.75507736098E+02 -0.87799132160E+02  0.21141393558E+03  0.17316909537E+03 0.  0.
         24    2    5    5    0    0  0.20884492559E+01  0.86567826664E+02 -0.11391834908E+03  0.16366775242E+03  0.79444274132E+02 0.  0.
          5    1    5    5  501    0 -0.38119140996E+02 -0.11060090566E+02  0.26119216920E+02  0.47746183157E+02  0.47000000000E+01 0. -1.
        -15    1    6    6    0    0  0.31291585430E+02  0.11067393221E+02 -0.16823955645E+02  0.37253908841E+02  0.17770000000E+01 0.  1.
         16    1    6    6    0    0 -0.29203136174E+02  0.75500433443E+02 -0.97094393435E+02  0.12641384358E+03  0.00000000000E+00 0. -1.
         -5    1    3    3    0  503  0.63474726431E+02 -0.61618846804E+02 -0.93137306151E+02  0.12854015316E+03  0.47000000000E+01 0.  1.
         15    1    4    4    0    0 -0.92472802574E+01 -0.48334174672E+02 -0.13045295603E+03  0.13943757062E+03  0.17770000000E+01 0. -1.
        -16    1    4    4    0    0 -0.18196754434E+02  0.34445285379E+02 -0.11313636515E+03  0.11965549163E+03  0.00000000000E+00 0.  1.
<mgrwt>
<rscale>  2 0.19224727E+03</rscale>
<asrwt>0</asrwt>
<pdfrwt beam="1">  1       21 0.13424722E-01 0.19232047E+03</pdfrwt>
<pdfrwt beam="2">  1       21 0.78736379E-01 0.19232047E+03</pdfrwt>
<totfact> 0.68401042E+04</totfact>
</mgrwt>
</event>
<event>
12    2  0.4090627E-002  0.2470609E+03  0.7546771E-02  0.1115354E+00
         21   -1    0    0  501  502  0.00000000000E+00  0.00000000000E+00  0.13230085112E+03  0.13230085112E+03  0.00000000000E+00 0. -1.
         21   -1    0    0  502  503 -0.00000000000E+00 -0.00000000000E+00 -0.48488163892E+03  0.48488163892E+03  0.00000000000E+00 0. -1.
         -6    2    1    2    0  503 -0.27226786146E+02 -0.17442212915E+03 -0.24753121008E+03  0.34972960188E+03  0.17284304282E+03 0.  0.
        -24    2    3    3    0    0 -0.76954528263E+02 -0.11876491045E+03 -0.21120081699E+03  0.26658778454E+03  0.80225671672E+02 0.  0.
          6    2    1    2  501    0  0.27226786146E+02  0.17442212915E+03 -0.10504957772E+03  0.26745288816E+03  0.17126370481E+03 0.  0.
         24    2    5    5    0    0  0.81226536712E+02  0.13697018914E+03 -0.62809112023E+02  0.18919071458E+03  0.80557798819E+02 0.  0.
          5    1    5    5  501    0 -0.53999750565E+02  0.37451940008E+02 -0.42240465695E+02  0.78262173581E+02  0.47000000000E+01 0. -1.
        -15    1    6    6    0    0  0.42839419346E+02  0.91936452919E+01 -0.25186710121E+02  0.50569428110E+02  0.17770000000E+01 0.  1.
         16    1    6    6    0    0  0.38387117365E+02  0.12777654385E+03 -0.37622401902E+02  0.13862128647E+03  0.00000000000E+00 0. -1.
         -5    1    3    3    0  503  0.49727742117E+02 -0.55657218696E+02 -0.36330393091E+02  0.83141817343E+02  0.47000000000E+01 0.  1.
         15    1    4    4    0    0 -0.19150175905E+02 -0.68084231404E+02 -0.46033830307E+02  0.84406534492E+02  0.17770000000E+01 0. -1.
        -16    1    4    4    0    0 -0.57804352358E+02 -0.50680679047E+02 -0.16516698668E+03  0.18218125005E+03  0.00000000000E+00 0.  1.
<mgrwt>
<rscale>  2 0.24678487E+03</rscale>
<asrwt>0</asrwt>
<pdfrwt beam="1">  1       21 0.20353977E-01 0.24706091E+03</pdfrwt>
<pdfrwt beam="2">  1       21 0.74597177E-01 0.24706091E+03</pdfrwt>
<totfact> 0.34992979E+04</totfact>
</mgrwt>
</event>
<event>
12    2  0.4090627E-002  0.1911417E+03  0.7546771E-02  0.1157815E+00
         21   -1    0    0  503  502  0.00000000000E+00  0.00000000000E+00  0.63806001661E+02  0.63806001661E+02  0.00000000000E+00 0.  1.
         21   -1    0    0  501  503 -0.00000000000E+00 -0.00000000000E+00 -0.99923581138E+03  0.99923581138E+03  0.00000000000E+00 0.  1.
          6    2    1    2  501    0 -0.20480049437E+02 -0.76514684527E+02 -0.81589164133E+03  0.83759886727E+03  0.17210102463E+03 0.  0.
         24    2    3    3    0    0 -0.76708518668E+02 -0.65989044275E+02 -0.62187860435E+03  0.63527344035E+03  0.81244043939E+02 0.  0.
         -6    2    1    2    0  502  0.20480049437E+02  0.76514684527E+02 -0.11953816839E+03  0.22544294577E+03  0.17395751989E+03 0.  0.
        -24    2    5    5    0    0  0.32995326502E+02 -0.22524627363E+02 -0.43348805083E+02  0.99775421965E+02  0.80498233008E+02 0.  0.
          5    1    3    3  501    0  0.56228469231E+02 -0.10525640252E+02 -0.19401303699E+03  0.20232542691E+03  0.47000000000E+01 0. -1.
        -15    1    4    4    0    0 -0.53645495581E+02 -0.45446413586E+02 -0.57403160001E+03  0.57832400196E+03  0.17770000000E+01 0.  1.
         16    1    4    4    0    0 -0.23063023087E+02 -0.20542630689E+02 -0.47847004339E+02  0.56949438397E+02  0.00000000000E+00 0. -1.
         -5    1    5    5    0  502 -0.12515277065E+02  0.99039311891E+02 -0.76189363304E+02  0.12566752381E+03  0.47000000000E+01 0.  1.
         15    1    6    6    0    0 -0.17323703308E+02  0.15078466303E+02  0.71193869846E+00  0.23046375595E+02  0.17770000000E+01 0. -1.
        -16    1    6    6    0    0  0.50319029810E+02 -0.37603093666E+02 -0.44060743781E+02  0.76729046370E+02  0.00000000000E+00 0.  1.
<mgrwt>
<rscale>  2 0.19071828E+03</rscale>
<asrwt>0</asrwt>
<pdfrwt beam="1">  1       21 0.98163081E-02 0.19114170E+03</pdfrwt>
<pdfrwt beam="2">  1       21 0.15372858E+00 0.19114170E+03</pdfrwt>
<totfact> 0.23511634E+04</totfact>
</mgrwt>
</event>
<event>
12    2  0.4090627E-002  0.2086086E+03  0.7546771E-02  0.1143095E+00
         21   -1    0    0  503  502  0.00000000000E+00  0.00000000000E+00  0.60651079251E+02  0.60651079251E+02  0.00000000000E+00 0.  1.
         21   -1    0    0  501  503 -0.00000000000E+00 -0.00000000000E+00 -0.71049967002E+03  0.71049967002E+03  0.00000000000E+00 0.  1.
          6    2    1    2  501    0  0.11123261234E+03 -0.24728512282E+02 -0.31664340514E+03  0.37803084323E+03  0.17222101801E+03 0.  0.
         24    2    3    3    0    0  0.70305493279E+02  0.53200864480E+02 -0.21055044566E+03  0.24009671805E+03  0.74442927697E+02 0.  0.
         -6    2    1    2    0  502 -0.11123261234E+03  0.24728512282E+02 -0.33320518563E+03  0.39311990605E+03  0.17473800798E+03 0.  0.
        -24    2    5    5    0    0 -0.13089627887E+03  0.91633271224E+01 -0.33385915030E+03  0.36759633967E+03  0.80295294490E+02 0.  0.
          5    1    3    3  501    0  0.40927119059E+02 -0.77929376762E+02 -0.10609295948E+03  0.13793412518E+03  0.47000000000E+01 0. -1.
        -15    1    4    4    0    0  0.42134780530E+02  0.46218497375E+02 -0.19943298722E+03  0.20901713650E+03  0.17770000000E+01 0.  1.
         16    1    4    4    0    0  0.28170712749E+02  0.69823671051E+01 -0.11117458439E+02  0.31079581550E+02  0.00000000000E+00 0. -1.
         -5    1    5    5    0  502  0.19663666536E+02  0.15565185160E+02  0.65396466451E+00  0.25523566375E+02  0.47000000000E+01 0.  1.
         15    1    6    6    0    0 -0.29696837229E+02 -0.32774662620E+02 -0.93018802369E+02  0.10301328057E+03  0.17770000000E+01 0. -1.
        -16    1    6    6    0    0 -0.10119944165E+03  0.41937989742E+02 -0.24084034793E+03  0.26458305910E+03  0.00000000000E+00 0.  1.
<mgrwt>
<rscale>  2 0.20808070E+03</rscale>
<asrwt>0</asrwt>
<pdfrwt beam="1">  1       21 0.93309355E-02 0.20860864E+03</pdfrwt>
<pdfrwt beam="2">  1       21 0.10930764E+00 0.20860864E+03</pdfrwt>
<totfact> 0.60318362E+04</totfact>
</mgrwt>
</event>
<event>
12    2  0.4090627E-002  0.1855623E+03  0.7546771E-02  0.1162610E+00
         21   -1    0    0  501  502  0.00000000000E+00  0.00000000000E+00  0.98204384598E+02  0.98204384598E+02  0.00000000000E+00 0.  1.
         21   -1    0    0  502  503 -0.00000000000E+00 -0.00000000000E+00 -0.35378737875E+03  0.35378737875E+03  0.00000000000E+00 0. -1.
         -6    2    1    2    0  503 -0.38742694535E+02  0.56531704419E+02 -0.10435849187E+03  0.21289452457E+03  0.17244290007E+03 0.  0.
        -24    2    3    3    0    0  0.22975543571E+02  0.76483009493E+02 -0.10197111824E+03  0.14781776188E+03  0.71235212003E+02 0.  0.
          6    2    1    2  501    0  0.38742694535E+02 -0.56531704419E+02 -0.15122450229E+03  0.23909723878E+03  0.17205176406E+03 0.  0.
         24    2    5    5    0    0 -0.70143469480E+00  0.30281356216E+02 -0.54320941573E+02  0.10306512159E+03  0.82183952512E+02 0.  0.
          5    1    5    5  501    0  0.39444129230E+02 -0.86813060635E+02 -0.96903560716E+02  0.13603211719E+03  0.47000000000E+01 0. -1.
        -15    1    6    6    0    0 -0.22753820176E+02 -0.24039773902E+01  0.12008608244E+02  0.25901348244E+02  0.17770000000E+01 0.  1.
         16    1    6    6    0    0  0.22052385481E+02  0.32685333607E+02 -0.66329549817E+02  0.77163773348E+02  0.00000000000E+00 0. -1.
         -5    1    3    3    0  503 -0.61718238106E+02 -0.19951305075E+02 -0.23873736263E+01  0.65076762688E+02  0.47000000000E+01 0.  1.
         15    1    4    4    0    0  0.87564278814E+01  0.30447800818E+01 -0.62560522614E+02  0.63268652852E+02  0.17770000000E+01 0. -1.
        -16    1    4    4    0    0  0.14219115690E+02  0.73438229412E+02 -0.39410595626E+02  0.84549109030E+02  0.00000000000E+00 0.  1.
<mgrwt>
<rscale>  2 0.18547142E+03</rscale>
<asrwt>0</asrwt>
<pdfrwt beam="1">  1       21 0.15108367E-01 0.18556234E+03</pdfrwt>
<pdfrwt beam="2">  1       21 0.54428829E-01 0.18556234E+03</pdfrwt>
<totfact> 0.12376877E+05</totfact>
</mgrwt>
</event>
<event>
12    2  0.4090627E-002  0.2616921E+03  0.7546771E-02  0.1106411E+00
         21   -1    0    0  501  502  0.00000000000E+00  0.00000000000E+00  0.25934316675E+03  0.25934316675E+03  0.00000000000E+00 0.  1.
         21   -1    0    0  502  503 -0.00000000000E+00 -0.00000000000E+00 -0.28623578247E+03  0.28623578247E+03  0.00000000000E+00 0. -1.
         -6    2    1    2    0  503  0.19545025123E+03  0.10346179287E+02  0.65683277924E+02  0.26799464363E+03  0.17087712510E+03 0.  0.
        -24    2    3    3    0    0  0.16449409023E+03 -0.49842868021E+02  0.66945394962E+02  0.20013679029E+03  0.77655854306E+02 0.  0.
          6    2    1    2  501    0 -0.19545025123E+03 -0.10346179287E+02 -0.92575893637E+02  0.27758430559E+03  0.17370925853E+03 0.  0.
         24    2    5    5    0    0 -0.24104452899E+02 -0.22478194814E+02 -0.12198160163E+02  0.87876007292E+02  0.80542558033E+02 0.  0.
          5    1    5    5  501    0 -0.17134579833E+03  0.12132015527E+02 -0.80377733475E+02  0.18970829830E+03  0.47000000000E+01 0. -1.
        -15    1    6    6    0    0  0.54776113359E+01 -0.47079730423E+02 -0.13706448893E+02  0.49371345059E+02  0.17770000000E+01 0.  1.
         16    1    6    6    0    0 -0.29582064235E+02  0.24601535610E+02  0.15082887304E+01  0.38504662232E+02  0.00000000000E+00 0. -1.
         -5    1    3    3    0  503  0.30956160992E+02  0.60189047309E+02 -0.12621170387E+01  0.67857853331E+02  0.47000000000E+01 0.  1.
         15    1    4    4    0    0  0.10974408356E+03 -0.60368554902E+02  0.19187575070E+02  0.12672587370E+03  0.17770000000E+01 0. -1.
        -16    1    4    4    0    0  0.54750006672E+02  0.10525686881E+02  0.47757819893E+02  0.73410916598E+02  0.00000000000E+00 0.  1.
<mgrwt>
<rscale>  2 0.26122300E+03</rscale>
<asrwt>0</asrwt>
<pdfrwt beam="1">  1       21 0.39898949E-01 0.26169209E+03</pdfrwt>
<pdfrwt beam="2">  1       21 0.44036274E-01 0.26169209E+03</pdfrwt>
<totfact> 0.28991687E+04</totfact>
</mgrwt>
</event>
<event>
12    2  0.4090627E-002  0.1930274E+03  0.7546771E-02  0.1156144E+00
         21   -1    0    0  501  502  0.00000000000E+00  0.00000000000E+00  0.22480203514E+03  0.22480203514E+03  0.00000000000E+00 0. -1.
         21   -1    0    0  502  503 -0.00000000000E+00 -0.00000000000E+00 -0.24098888585E+03  0.24098888585E+03  0.00000000000E+00 0.  1.
         -6    2    1    2    0  503  0.60246075262E+02 -0.57814628176E+02 -0.13948335441E+03  0.23674597723E+03  0.17210732338E+03 0.  0.
        -24    2    3    3    0    0  0.64985059987E+02 -0.36039686243E+02 -0.14209216557E+02  0.10941842449E+03  0.79047914436E+02 0.  0.
          6    2    1    2  501    0 -0.60246075262E+02  0.57814628176E+02  0.12329650370E+03  0.22904494375E+03  0.17403286361E+03 0.  0.
         24    2    5    5    0    0 -0.26418794770E+02 -0.29288358036E+02  0.40658899942E+02  0.10421594605E+03  0.87476034619E+02 0.  0.
          5    1    5    5  501    0 -0.33827280491E+02  0.87102986212E+02  0.82637603763E+02  0.12482899771E+03  0.47000000000E+01 0. -1.
        -15    1    6    6    0    0  0.21914009997E+02 -0.13057051396E+02 -0.14260316231E+02  0.29278401140E+02  0.17770000000E+01 0.  1.
         16    1    6    6    0    0 -0.48332804767E+02 -0.16231306640E+02  0.54919216172E+02  0.74937544908E+02  0.00000000000E+00 0. -1.
         -5    1    3    3    0  503 -0.47389847256E+01 -0.21774941933E+02 -0.12527413785E+03  0.12732755274E+03  0.47000000000E+01 0.  1.
         15    1    4    4    0    0 -0.15482778753E+02 -0.21613919077E+02 -0.54678986488E+01  0.27201720174E+02  0.17770000000E+01 0. -1.
        -16    1    4    4    0    0  0.80467838740E+02 -0.14425767166E+02 -0.87413179085E+01  0.82216704316E+02  0.00000000000E+00 0.  1.
<mgrwt>
<rscale>  2 0.19259232E+03</rscale>
<asrwt>0</asrwt>
<pdfrwt beam="1">  1       21 0.34584928E-01 0.19302735E+03</pdfrwt>
<pdfrwt beam="2">  1       21 0.37075213E-01 0.19302735E+03</pdfrwt>
<totfact> 0.56530892E+04</totfact>
</mgrwt>
</event>
<event>
12    2  0.4090627E-002  0.1929900E+03  0.7546771E-02  0.1155987E+00
         21   -1    0    0  501  502  0.00000000000E+00  0.00000000000E+00  0.22913970551E+03  0.22913970551E+03  0.00000000000E+00 0. -1.
         21   -1    0    0  502  503 -0.00000000000E+00 -0.00000000000E+00 -0.21279716307E+03  0.21279716307E+03  0.00000000000E+00 0. -1.
         -6    2    1    2    0  503  0.21469128939E+01 -0.84378964881E+02 -0.10001326826E+03  0.21658425521E+03  0.17257365623E+03 0.  0.
        -24    2    3    3    0    0 -0.47009959923E+02 -0.29526470731E+02 -0.10286472803E+03  0.14272347344E+03  0.81896817974E+02 0.  0.
          6    2    1    2  501    0 -0.21469128939E+01  0.84378964881E+02  0.11635581070E+03  0.22535261337E+03  0.17355318124E+03 0.  0.
         24    2    5    5    0    0 -0.40350389229E+02  0.10754213761E+03  0.51368600098E+02  0.14634966585E+03  0.74739724017E+02 0.  0.
          5    1    5    5  501    0  0.38203476336E+02 -0.23163172730E+02  0.64987210599E+02  0.79002947518E+02  0.47000000000E+01 0. -1.
        -15    1    6    6    0    0 -0.20411416462E+02  0.13280131517E+02 -0.15635756228E+02  0.28993489216E+02  0.17770000000E+01 0.  1.
         16    1    6    6    0    0 -0.19938972768E+02  0.94262006094E+02  0.67004356326E+02  0.11735617664E+03  0.00000000000E+00 0. -1.
         -5    1    3    3    0  503  0.49156872817E+02 -0.54852494150E+02  0.28514597637E+01  0.73860781762E+02  0.47000000000E+01 0.  1.
         15    1    4    4    0    0 -0.27669708689E+02 -0.57909231238E+02 -0.60873181996E+02  0.88474820468E+02  0.17770000000E+01 0. -1.
        -16    1    4    4    0    0 -0.19340251234E+02  0.28382760507E+02 -0.41991546029E+02  0.54248652976E+02  0.00000000000E+00 0.  1.
<mgrwt>
<rscale>  2 0.19276949E+03</rscale>
<asrwt>0</asrwt>
<pdfrwt beam="1">  1       21 0.35252262E-01 0.19298996E+03</pdfrwt>
<pdfrwt beam="2">  1       21 0.32738025E-01 0.19298996E+03</pdfrwt>
<totfact> 0.69665344E+04</totfact>
</mgrwt>
</event>
<event>
12    2  0.4090627E-002  0.1990060E+03  0.7546771E-02  0.1150697E+00
         21   -1    0    0  501  502  0.00000000000E+00  0.00000000000E+00  0.93824746096E+02  0.93824746096E+02  0.00000000000E+00 0. -1.
         21   -1    0    0  502  503 -0.00000000000E+00 -0.00000000000E+00 -0.49089001444E+03  0.49089001444E+03  0.00000000000E+00 0. -1.
         -6    2    1    2    0  503  0.26474064965E+02 -0.95058956276E+02 -0.88404714664E+02  0.21775851197E+03  0.17281867572E+03 0.  0.
        -24    2    3    3    0    0 -0.17944922785E+02 -0.11424842563E+03 -0.36755799962E+02  0.14682909215E+03  0.82662388409E+02 0.  0.
          6    2    1    2  501    0 -0.26474064965E+02  0.95058956276E+02 -0.30866055368E+03  0.36695624856E+03  0.17218730986E+03 0.  0.
         24    2    5    5    0    0  0.47993989038E+02  0.23024615811E+02 -0.16108242942E+03  0.18657933753E+03  0.77657866370E+02 0.  0.
          5    1    5    5  501    0 -0.74468054002E+02  0.72034340465E+02 -0.14757812426E+03  0.18037691103E+03  0.47000000000E+01 0. -1.
        -15    1    6    6    0    0  0.38165675554E+02  0.10445311650E+02 -0.19589197216E+02  0.44188434035E+02  0.17770000000E+01 0.  1.
         16    1    6    6    0    0  0.98283134840E+01  0.12579304161E+02 -0.14149323220E+03  0.14239090350E+03  0.00000000000E+00 0. -1.
         -5    1    3    3    0  503  0.44418987749E+02  0.19189469354E+02 -0.51648914701E+02  0.70929419824E+02  0.47000000000E+01 0.  1.
         15    1    4    4    0    0 -0.69355942263E+01 -0.74300512395E+02  0.19319973149E+02  0.77104394822E+02  0.17770000000E+01 0. -1.
        -16    1    4    4    0    0 -0.11009328558E+02 -0.39947913235E+02 -0.56075773112E+02  0.69724697326E+02  0.00000000000E+00 0.  1.
<mgrwt>
<rscale>  2 0.19886882E+03</rscale>
<asrwt>0</asrwt>
<pdfrwt beam="1">  1       21 0.14434576E-01 0.19900597E+03</pdfrwt>
<pdfrwt beam="2">  1       21 0.75521542E-01 0.19900597E+03</pdfrwt>
<totfact> 0.65661106E+04</totfact>
</mgrwt>
</event>
<event>
12    2  0.4090627E-002  0.2847914E+03  0.7546771E-02  0.1093145E+00
         21   -1    0    0  501  502  0.00000000000E+00  0.00000000000E+00  0.51492522927E+03  0.51492522927E+03  0.00000000000E+00 0. -1.
         21   -1    0    0  502  503 -0.00000000000E+00 -0.00000000000E+00 -0.15781635043E+03  0.15781635043E+03  0.00000000000E+00 0.  1.
         -6    2    1    2    0  503 -0.15281905471E+03  0.16636652044E+03  0.15969697812E+03  0.32621944603E+03  0.17287139596E+03 0.  0.
        -24    2    3    3    0    0 -0.13945914535E+03  0.10394652669E+03  0.17949753235E+03  0.25922023151E+03  0.68717033355E+02 0.  0.
          6    2    1    2  501    0  0.15281905471E+03 -0.16636652044E+03  0.19741190072E+03  0.34652213367E+03  0.17342043702E+03 0.  0.
         24    2    5    5    0    0  0.11178054215E+03 -0.24854821389E+02  0.79974966090E+02  0.15804602353E+03  0.73958762845E+02 0.  0.
          5    1    5    5  501    0  0.41038512553E+02 -0.14151169905E+03  0.11743693463E+03  0.18847611014E+03  0.47000000000E+01 0. -1.
        -15    1    6    6    0    0  0.80162449841E+01 -0.22816628800E+02 -0.39577011789E+01  0.24569897457E+02  0.17770000000E+01 0.  1.
         16    1    6    6    0    0  0.10376429717E+03 -0.20381925896E+01  0.83932667269E+02  0.13347612607E+03  0.00000000000E+00 0. -1.
         -5    1    3    3    0  503 -0.13359909362E+02  0.62419993750E+02 -0.19800554234E+02  0.66999214516E+02  0.47000000000E+01 0.  1.
         15    1    4    4    0    0 -0.11306761445E+03  0.74662820901E+02  0.93546466313E+02  0.16466001746E+03  0.17770000000E+01 0. -1.
        -16    1    4    4    0    0 -0.26391530896E+02  0.29283705789E+02  0.85951066037E+02  0.94560214048E+02  0.00000000000E+00 0.  1.
<mgrwt>
<rscale>  2 0.28470784E+03</rscale>
<asrwt>0</asrwt>
<pdfrwt beam="1">  1       21 0.79219265E-01 0.28479138E+03</pdfrwt>
<pdfrwt beam="2">  1       21 0.24279439E-01 0.28479138E+03</pdfrwt>
<totfact> 0.21491119E+04</totfact>
</mgrwt>
</event>
<event>
12    2  0.4090627E-002  0.1966270E+03  0.7546771E-02  0.1152706E+00
         21   -1    0    0  503  502  0.00000000000E+00  0.00000000000E+00  0.50895109233E+03  0.50895109233E+03  0.00000000000E+00 0. -1.
         21   -1    0    0  501  503 -0.00000000000E+00 -0.00000000000E+00 -0.78254537065E+02  0.78254537065E+02  0.00000000000E+00 0. -1.
          6    2    1    2  501    0 -0.58210667134E+02 -0.70890222878E+02  0.16360685129E+03  0.25579163451E+03  0.17392024904E+03 0.  0.
         24    2    3    3    0    0 -0.68903200670E+02 -0.10129193858E+03  0.17122275132E+03  0.22234486300E+03  0.71500347183E+02 0.  0.
         -6    2    1    2    0  502  0.58210667134E+02  0.70890222878E+02  0.26708970397E+03  0.33141399489E+03  0.17344861076E+03 0.  0.
        -24    2    5    5    0    0 -0.13682236465E+02  0.77752133683E+02  0.11068924414E+03  0.15908039619E+03  0.82594586959E+02 0.  0.
          5    1    3    3  501    0  0.10692533536E+02  0.30401715705E+02 -0.76159000235E+01  0.33446771510E+02  0.47000000000E+01 0. -1.
        -15    1    4    4    0    0 -0.51507897357E+02 -0.28012698400E+02  0.11237942357E+03  0.12676776930E+03  0.17770000000E+01 0.  1.
         16    1    4    4    0    0 -0.17395303313E+02 -0.73279240183E+02  0.58843327745E+02  0.95577093696E+02  0.00000000000E+00 0. -1.
         -5    1    5    5    0  502  0.71892903599E+02 -0.68619108050E+01  0.15640045983E+03  0.17233359871E+03  0.47000000000E+01 0.  1.
         15    1    6    6    0    0  0.31791461397E+02  0.30394620981E+02  0.67180173978E+02  0.80317267801E+02  0.17770000000E+01 0. -1.
        -16    1    6    6    0    0 -0.45473697861E+02  0.47357512701E+02  0.43509070167E+02  0.78763128387E+02  0.00000000000E+00 0.  1.
<mgrwt>
<rscale>  2 0.19652261E+03</rscale>
<asrwt>0</asrwt>
<pdfrwt beam="1">  1       21 0.78300166E-01 0.19662695E+03</pdfrwt>
<pdfrwt beam="2">  1       21 0.12039160E-01 0.19662695E+03</pdfrwt>
<totfact> 0.84077610E+04</totfact>
</mgrwt>
</event>
<event>
12    2  0.4090627E-002  0.1939375E+03  0.7546771E-02  0.1155858E+00
         21   -1    0    0  501  502  0.00000000000E+00  0.00000000000E+00  0.13376452832E+03  0.13376452832E+03  0.00000000000E+00 0. -1.
         21   -1    0    0  502  503 -0.00000000000E+00 -0.00000000000E+00 -0.27718732132E+03  0.27718732132E+03  0.00000000000E+00 0. -1.
         -6    2    1    2    0  503  0.51661374866E+02  0.68820380332E+02 -0.89297928130E+02  0.21350850708E+03  0.17380051848E+03 0.  0.
        -24    2    3    3    0    0 -0.36327292732E+02  0.56501696511E+02 -0.48924753057E+02  0.11580569820E+03  0.80654909144E+02 0.  0.
          6    2    1    2  501    0 -0.51661374866E+02 -0.68820380332E+02 -0.54124864861E+02  0.19744334256E+03  0.16926083458E+03 0.  0.
         24    2    5    5    0    0  0.17505986466E+01 -0.29981292847E+01  0.20727308831E+02  0.84260545485E+02  0.81597578513E+02 0.  0.
          5    1    5    5  501    0 -0.53411973513E+02 -0.65822251047E+02 -0.74852173692E+02  0.11318279708E+03  0.47000000000E+01 0. -1.
        -15    1    6    6    0    0 -0.31490425746E+02 -0.52556223956E+01 -0.15077577309E+02  0.35351938376E+02  0.17770000000E+01 0.  1.
         16    1    6    6    0    0  0.33241024392E+02  0.22574931109E+01  0.35804886140E+02  0.48908607109E+02  0.00000000000E+00 0. -1.
         -5    1    3    3    0  503  0.87988667598E+02  0.12318683821E+02 -0.40373175073E+02  0.97702808876E+02  0.47000000000E+01 0.  1.
         15    1    4    4    0    0 -0.25735732128E+02  0.77036399952E+02 -0.32711106957E+02  0.87579158896E+02  0.17770000000E+01 0. -1.
        -16    1    4    4    0    0 -0.10591560604E+02 -0.20534703441E+02 -0.16213646100E+02  0.28226539308E+02  0.00000000000E+00 0.  1.
<mgrwt>
<rscale>  2 0.19291506E+03</rscale>
<asrwt>0</asrwt>
<pdfrwt beam="1">  1       21 0.20579158E-01 0.19393752E+03</pdfrwt>
<pdfrwt beam="2">  1       21 0.42644203E-01 0.19393752E+03</pdfrwt>
<totfact> 0.11570486E+05</totfact>
</mgrwt>
</event>
<event>
12    2  0.4090627E-002  0.1877272E+03  0.7546771E-02  0.1160764E+00
         21   -1    0    0  503  502  0.00000000000E+00  0.00000000000E+00  0.25067954811E+02  0.25067954811E+02  0.00000000000E+00 0. -1.
         21   -1    0    0  501  503 -0.00000000000E+00 -0.00000000000E+00 -0.21833789454E+04  0.21833789454E+04  0.00000000000E+00 0. -1.
          6    2    1    2  501    0 -0.39682731028E+02  0.54643283821E+02 -0.17432601749E+04  0.17533389678E+04  0.17515961546E+03 0.  0.
         24    2    3    3    0    0  0.19639180588E+02 -0.23055965699E+02 -0.64624097549E+03  0.65196279386E+03  0.80689597890E+02 0.  0.
         -6    2    1    2    0  502  0.39682731028E+02 -0.54643283821E+02 -0.41505081571E+03  0.45510793246E+03  0.17405586161E+03 0.  0.
        -24    2    5    5    0    0  0.34574193042E+02 -0.99816581832E+02 -0.24159099184E+03  0.27572809940E+03  0.80629105336E+02 0.  0.
          5    1    3    3  501    0 -0.59321911616E+02  0.77699249520E+02 -0.10970191994E+04  0.11013761739E+04  0.47000000000E+01 0. -1.
        -15    1    4    4    0    0  0.22311808589E+02  0.63104539998E+00 -0.45130889320E+02  0.50380253280E+02  0.17770000000E+01 0.  1.
         16    1    4    4    0    0 -0.26726280010E+01 -0.23687011099E+02 -0.60111008617E+03  0.60158254058E+03  0.00000000000E+00 0. -1.
         -5    1    5    5    0  502  0.51085379866E+01  0.45173298010E+02 -0.17345982386E+03  0.17937983306E+03  0.47000000000E+01 0.  1.
         15    1    6    6    0    0 -0.15846272476E+02  0.48829459877E+01 -0.29460890390E+02  0.33853349974E+02  0.17770000000E+01 0. -1.
        -16    1    6    6    0    0  0.50420465517E+02 -0.10469952782E+03 -0.21213010146E+03  0.24187474943E+03  0.00000000000E+00 0.  1.
<mgrwt>
<rscale>  2 0.18746930E+03</rscale>
<asrwt>0</asrwt>
<pdfrwt beam="1">  1       21 0.38566078E-02 0.18772719E+03</pdfrwt>
<pdfrwt beam="2">  1       21 0.33590451E+00 0.18772719E+03</pdfrwt>
<totfact> 0.88649245E+03</totfact>
</mgrwt>
</event>
<event>
12    2  0.4090627E-002  0.2015072E+03  0.7546771E-02  0.1148539E+00
         21   -1    0    0  501  502  0.00000000000E+00  0.00000000000E+00  0.75191865146E+02  0.75191865146E+02  0.00000000000E+00 0. -1.
         21   -1    0    0  502  503 -0.00000000000E+00 -0.00000000000E+00 -0.56347955990E+03  0.56347955990E+03  0.00000000000E+00 0. -1.
         -6    2    1    2    0  503 -0.12526979805E+02  0.10254902014E+03 -0.31027206600E+03  0.36979464965E+03  0.17264443581E+03 0.  0.
        -24    2    3    3    0    0 -0.36852183741E+01  0.70568885788E+02 -0.31793790629E+03  0.33541790103E+03  0.80169243489E+02 0.  0.
          6    2    1    2  501    0  0.12526979805E+02 -0.10254902014E+03 -0.17801562875E+03  0.26887677539E+03  0.17300846659E+03 0.  0.
         24    2    5    5    0    0  0.48511316668E+01  0.98653357347E+01 -0.38909556454E+02  0.89799989065E+02  0.80182455219E+02 0.  0.
          5    1    5    5  501    0  0.76758481379E+01 -0.11241435587E+03 -0.13910607230E+03  0.17907678633E+03  0.47000000000E+01 0. -1.
        -15    1    6    6    0    0 -0.22414302166E+02  0.15971933275E+01 -0.53307290431E+02  0.57877257279E+02  0.17770000000E+01 0.  1.
         16    1    6    6    0    0  0.27265433833E+02  0.82681424073E+01  0.14397733977E+02  0.31922731785E+02  0.00000000000E+00 0. -1.
         -5    1    3    3    0  503 -0.88417614306E+01  0.31980134351E+02  0.76658402903E+01  0.34376748620E+02  0.47000000000E+01 0.  1.
         15    1    4    4    0    0 -0.41297750928E+02  0.43988574827E+02 -0.19536438467E+03  0.20447713680E+03  0.17770000000E+01 0. -1.
        -16    1    4    4    0    0  0.37612532554E+02  0.26580310961E+02 -0.12257352162E+03  0.13094076424E+03  0.00000000000E+00 0.  1.
<mgrwt>
<rscale>  2 0.20142905E+03</rscale>
<asrwt>0</asrwt>
<pdfrwt beam="1">  1       21 0.11567980E-01 0.20150721E+03</pdfrwt>
<pdfrwt beam="2">  1       21 0.86689161E-01 0.20150721E+03</pdfrwt>
<totfact> 0.71472367E+04</totfact>
</mgrwt>
</event>
<event>
12    2  0.4090627E-002  0.2364547E+03  0.7546771E-02  0.1122581E+00
         21   -1    0    0  501  502  0.00000000000E+00  0.00000000000E+00  0.32517127355E+03  0.32517127355E+03  0.00000000000E+00 0. -1.
         21   -1    0    0  502  503 -0.00000000000E+00 -0.00000000000E+00 -0.36714198748E+03  0.36714198748E+03  0.00000000000E+00 0.  1.
         -6    2    1    2    0  503  0.78352451421E+02  0.14131363411E+03 -0.27454193588E+03  0.36233149806E+03  0.17263310837E+03 0.  0.
        -24    2    3    3    0    0 -0.29137168736E+01  0.86016607083E+02 -0.21815384255E+03  0.24891342906E+03  0.83423316337E+02 0.  0.
          6    2    1    2  501    0 -0.78352451421E+02 -0.14131363411E+03  0.23257122194E+03  0.32998176297E+03  0.16938105203E+03 0.  0.
         24    2    5    5    0    0  0.13916077054E+02 -0.36327434179E+02  0.57340959147E+02  0.10578694028E+03  0.79934669966E+02 0.  0.
          5    1    5    5  501    0 -0.92268528475E+02 -0.10498619993E+03  0.17523026280E+03  0.22419482269E+03  0.47000000000E+01 0. -1.
        -15    1    6    6    0    0  0.20589660769E+02  0.10853165284E+01  0.63948329511E+02  0.67213530028E+02  0.17770000000E+01 0.  1.
         16    1    6    6    0    0 -0.66735837150E+01 -0.37412750707E+02 -0.66073703638E+01  0.38573410248E+02  0.00000000000E+00 0. -1.
         -5    1    3    3    0  503  0.81266168295E+02  0.55297027023E+02 -0.56388093325E+02  0.11341806900E+03  0.47000000000E+01 0.  1.
         15    1    4    4    0    0  0.12567890927E+02  0.80339717015E+02 -0.96758459533E+02  0.12640324059E+03  0.17770000000E+01 0. -1.
        -16    1    4    4    0    0 -0.15481607800E+02  0.56768900678E+01 -0.12139538302E+03  0.12251018847E+03  0.00000000000E+00 0.  1.
<mgrwt>
<rscale>  2 0.23586157E+03</rscale>
<asrwt>0</asrwt>
<pdfrwt beam="1">  1       21 0.50026350E-01 0.23645473E+03</pdfrwt>
<pdfrwt beam="2">  1       21 0.56483383E-01 0.23645473E+03</pdfrwt>
<totfact> 0.10914520E+04</totfact>
</mgrwt>
</event>
<event>
12    2  0.4090627E-002  0.1891711E+03  0.7546771E-02  0.1160076E+00
         21   -1    0    0  501  502  0.00000000000E+00  0.00000000000E+00  0.22277038705E+03  0.22277038705E+03  0.00000000000E+00 0. -1.
         21   -1    0    0  502  503 -0.00000000000E+00 -0.00000000000E+00 -0.21232541343E+03  0.21232541343E+03  0.00000000000E+00 0.  1.
         -6    2    1    2    0  503 -0.72619960864E+02 -0.22118732223E+02 -0.10540694024E+03  0.21326844510E+03  0.16914464104E+03 0.  0.
        -24    2    3    3    0    0 -0.47719213778E+02  0.53620252698E+02 -0.58578405826E+02  0.12068635894E+03  0.77340240114E+02 0.  0.
          6    2    1    2  501    0  0.72619960864E+02  0.22118732223E+02  0.11585191387E+03  0.22182735539E+03  0.17327092260E+03 0.  0.
         24    2    5    5    0    0  0.11344002850E+03  0.37342593098E+02  0.68813083371E+02  0.15754061153E+03  0.76293476216E+02 0.  0.
          5    1    5    5  501    0 -0.40820067632E+02 -0.15223860876E+02  0.47038830498E+02  0.64286743859E+02  0.47000000000E+01 0. -1.
        -15    1    6    6    0    0  0.60571846592E+02 -0.16587852070E+02  0.14394713796E+02  0.64455185595E+02  0.17770000000E+01 0.  1.
         16    1    6    6    0    0  0.52868181904E+02  0.53930445168E+02  0.54418369576E+02  0.93085425933E+02  0.00000000000E+00 0. -1.
         -5    1    3    3    0  503 -0.24900747085E+02 -0.75738984921E+02 -0.46828534418E+02  0.92582086161E+02  0.47000000000E+01 0.  1.
         15    1    4    4    0    0 -0.34686543028E+02  0.54034941080E+00  0.68784992819E+01  0.35410728969E+02  0.17770000000E+01 0. -1.
        -16    1    4    4    0    0 -0.13032670750E+02  0.53079903287E+02 -0.65456905108E+02  0.85275629966E+02  0.00000000000E+00 0.  1.
<mgrwt>
<rscale>  2 0.18822096E+03</rscale>
<asrwt>0</asrwt>
<pdfrwt beam="1">  1       21 0.34272367E-01 0.18917111E+03</pdfrwt>
<pdfrwt beam="2">  1       21 0.32665448E-01 0.18917111E+03</pdfrwt>
<totfact> 0.74107032E+04</totfact>
</mgrwt>
</event>
<event>
12    2  0.4090627E-002  0.1930209E+03  0.7546771E-02  0.1155835E+00
         21   -1    0    0  501  502  0.00000000000E+00  0.00000000000E+00  0.18296875453E+03  0.18296875453E+03  0.00000000000E+00 0.  1.
         21   -1    0    0  502  503 -0.00000000000E+00 -0.00000000000E+00 -0.15838390019E+04  0.15838390019E+04  0.00000000000E+00 0.  1.
         -6    2    1    2    0  503  0.14580725177E+02 -0.85921037341E+02 -0.15251249754E+04  0.15372509850E+04  0.17187023667E+03 0.  0.
        -24    2    3    3    0    0  0.58268132859E+02 -0.81476636668E+02 -0.71591231005E+03  0.72683407380E+03  0.75655254421E+02 0.  0.
          6    2    1    2  501    0 -0.14580725177E+02  0.85921037341E+02  0.12425472797E+03  0.22955677144E+03  0.17222674498E+03 0.  0.
         24    2    5    5    0    0 -0.73256626835E+02  0.30486708594E+02  0.64777688864E+02  0.12918030796E+03  0.78711055227E+02 0.  0.
          5    1    5    5  501    0  0.58675901658E+02  0.55434328746E+02  0.59477039111E+02  0.10037646348E+03  0.47000000000E+01 0. -1.
        -15    1    6    6    0    0  0.16987373087E+02  0.41884476121E+01  0.12963106966E+02  0.21847512650E+02  0.17770000000E+01 0.  1.
         16    1    6    6    0    0 -0.90243999922E+02  0.26298260982E+02  0.51814581897E+02  0.10733279531E+03  0.00000000000E+00 0. -1.
         -5    1    3    3    0  503 -0.43687407682E+02 -0.44444006732E+01 -0.80921266533E+03  0.81041691124E+03  0.47000000000E+01 0.  1.
         15    1    4    4    0    0  0.10983722531E+02 -0.72037689919E+02 -0.33212825228E+03  0.34003294638E+03  0.17770000000E+01 0. -1.
        -16    1    4    4    0    0  0.47284410328E+02 -0.94389467491E+01 -0.38378405777E+03  0.38680112742E+03  0.00000000000E+00 0.  1.
<mgrwt>
<rscale>  2 0.19294136E+03</rscale>
<asrwt>0</asrwt>
<pdfrwt beam="1">  1       21 0.28149039E-01 0.19302092E+03</pdfrwt>
<pdfrwt beam="2">  1       21 0.24366754E+00 0.19302092E+03</pdfrwt>
<totfact> 0.87348264E+02</totfact>
</mgrwt>
</event>
<event>
12    2  0.4090627E-002  0.2635418E+03  0.7546771E-02  0.1105098E+00
         21   -1    0    0  501  502  0.00000000000E+00  0.00000000000E+00  0.49106590072E+02  0.49106590072E+02  0.00000000000E+00 0. -1.
         21   -1    0    0  502  503 -0.00000000000E+00 -0.00000000000E+00 -0.14636632138E+04  0.14636632138E+04  0.00000000000E+00 0.  1.
         -6    2    1    2    0  503  0.10187231084E+03 -0.17088758335E+03 -0.56577826735E+03  0.62414688574E+03  0.17284025375E+03 0.  0.
        -24    2    3    3    0    0  0.56466734963E+02 -0.18118984344E+03 -0.37337746359E+03  0.42613688051E+03  0.78508974589E+02 0.  0.
          6    2    1    2  501    0 -0.10187231084E+03  0.17088758335E+03 -0.84877835642E+03  0.88862291817E+03  0.17217856578E+03 0.  0.
         24    2    5    5    0    0 -0.44476168937E+02  0.14972574515E+03 -0.76359366325E+03  0.78364357520E+03  0.81400503800E+02 0.  0.
          5    1    5    5  501    0 -0.57396141907E+02  0.21161838196E+02 -0.85184693162E+02  0.10497934297E+03  0.47000000000E+01 0. -1.
        -15    1    6    6    0    0 -0.55276913709E+02  0.93844280267E+02 -0.61401687107E+03  0.62360417078E+03  0.17770000000E+01 0.  1.
         16    1    6    6    0    0  0.10800744772E+02  0.55881464885E+02 -0.14957679219E+03  0.16003940442E+03  0.00000000000E+00 0. -1.
         -5    1    3    3    0  503  0.45405575881E+02  0.10302260094E+02 -0.19240080376E+03  0.19801000523E+03  0.47000000000E+01 0.  1.
         15    1    4    4    0    0  0.73282190769E+02 -0.12780270056E+03 -0.24182489705E+03  0.28317176469E+03  0.17770000000E+01 0. -1.
        -16    1    4    4    0    0 -0.16815455806E+02 -0.53387142880E+02 -0.13155256654E+03  0.14296511582E+03  0.00000000000E+00 0.  1.
<mgrwt>
<rscale>  2 0.26343337E+03</rscale>
<asrwt>0</asrwt>
<pdfrwt beam="1">  1       21 0.75548615E-02 0.26354181E+03</pdfrwt>
<pdfrwt beam="2">  1       21 0.22517891E+00 0.26354181E+03</pdfrwt>
<totfact> 0.11745333E+04</totfact>
</mgrwt>
</event>
<event>
12    2  0.4090627E-002  0.1901943E+03  0.7546771E-02  0.1158322E+00
         21   -1    0    0  503  502  0.00000000000E+00  0.00000000000E+00  0.12237541563E+04  0.12237541563E+04  0.00000000000E+00 0. -1.
         21   -1    0    0  501  503 -0.00000000000E+00 -0.00000000000E+00 -0.31135028485E+02  0.31135028485E+02  0.00000000000E+00 0.  1.
          6    2    1    2  501    0  0.66055558017E+02  0.45899385346E+02  0.73831143592E+03  0.76237587987E+03  0.17217176157E+03 0.  0.
         24    2    3    3    0    0  0.62522080446E+02  0.76495064877E+02  0.33745976995E+03  0.36031527600E+03  0.78660640066E+02 0.  0.
         -6    2    1    2    0  502 -0.66055558017E+02 -0.45899385346E+02  0.45430769195E+03  0.49251330496E+03  0.17234786417E+03 0.  0.
        -24    2    5    5    0    0 -0.10765750691E+03 -0.15101276687E+02  0.36947523428E+03  0.39302520757E+03  0.78349714050E+02 0.  0.
          5    1    3    3  501    0  0.35334775715E+01 -0.30595679531E+02  0.40085166597E+03  0.40206060386E+03  0.47000000000E+01 0. -1.
        -15    1    4    4    0    0 -0.47728340827E+01  0.53375074402E+02  0.17310449030E+03  0.18121810286E+03  0.17770000000E+01 0.  1.
         16    1    4    4    0    0  0.67294914529E+02  0.23119990475E+02  0.16435527965E+03  0.17909717314E+03  0.00000000000E+00 0. -1.
         -5    1    5    5    0  502  0.41601948891E+02 -0.30798108659E+02  0.84832457670E+02  0.99488097393E+02  0.47000000000E+01 0.  1.
         15    1    6    6    0    0 -0.21887094143E+02 -0.11724198847E+02  0.21387917726E+03  0.21532292475E+03  0.17770000000E+01 0. -1.
        -16    1    6    6    0    0 -0.85770412766E+02 -0.33770778395E+01  0.15559605701E+03  0.17770228282E+03  0.00000000000E+00 0.  1.
<mgrwt>
<rscale>  2 0.19015441E+03</rscale>
<asrwt>0</asrwt>
<pdfrwt beam="1">  1       21 0.18826983E+00 0.19019431E+03</pdfrwt>
<pdfrwt beam="2">  1       21 0.47900053E-02 0.19019431E+03</pdfrwt>
<totfact> 0.46392179E+04</totfact>
</mgrwt>
</event>
<event>
12    2  0.4090627E-002  0.2293253E+03  0.7546771E-02  0.1128168E+00
         21   -1    0    0  503  502  0.00000000000E+00  0.00000000000E+00  0.13624479358E+03  0.13624479358E+03  0.00000000000E+00 0.  1.
         21   -1    0    0  501  503 -0.00000000000E+00 -0.00000000000E+00 -0.17531668178E+04  0.17531668178E+04  0.00000000000E+00 0. -1.
          6    2    1    2  501    0 -0.59683911373E+02  0.13865966610E+03 -0.16434374923E+04  0.16585584751E+04  0.16474450495E+03 0.  0.
         24    2    3    3    0    0 -0.13779313466E+01  0.12896635708E+03 -0.13896922362E+04  0.13979777917E+04  0.80393873293E+02 0.  0.
         -6    2    1    2    0  502  0.59683911373E+02 -0.13865966610E+03  0.26515468026E+02  0.23085313634E+03  0.17263090174E+03 0.  0.
        -24    2    5    5    0    0  0.85677002622E+02 -0.75111039410E+02  0.62721676021E+02  0.15309036733E+03  0.80749209948E+02 0.  0.
          5    1    3    3  501    0 -0.58305980027E+02  0.96933090206E+01 -0.25374525612E+03  0.26058068337E+03  0.47000000000E+01 0. -1.
        -15    1    4    4    0    0  0.20385623347E+02  0.22796477619E+02 -0.12696958239E+03  0.13061273143E+03  0.17770000000E+01 0.  1.
         16    1    4    4    0    0 -0.21763554693E+02  0.10616987946E+03 -0.12627226538E+04  0.12673650603E+04  0.00000000000E+00 0. -1.
         -5    1    5    5    0  502 -0.25993091248E+02 -0.63548626692E+02 -0.36206207995E+02  0.77762769013E+02  0.47000000000E+01 0.  1.
         15    1    6    6    0    0  0.63550510214E+00 -0.41761348093E+01 -0.16373448113E+02  0.17002690987E+02  0.17770000000E+01 0. -1.
        -16    1    6    6    0    0  0.85041497520E+02 -0.70934904600E+02  0.79095124134E+02  0.13608767634E+03  0.00000000000E+00 0.  1.
<mgrwt>
<rscale>  2 0.22784189E+03</rscale>
<asrwt>0</asrwt>
<pdfrwt beam="1">  1       21 0.20960738E-01 0.22932532E+03</pdfrwt>
<pdfrwt beam="2">  1       21 0.26971796E+00 0.22932532E+03</pdfrwt>
<totfact> 0.10328702E+03</totfact>
</mgrwt>
</event>
<event>
12    2  0.4090627E-002  0.1791532E+03  0.7546771E-02  0.1169611E+00
         21   -1    0    0  501  502  0.00000000000E+00  0.00000000000E+00  0.11680881930E+03  0.11680881930E+03  0.00000000000E+00 0. -1.
         21   -1    0    0  502  503 -0.00000000000E+00 -0.00000000000E+00 -0.42464582235E+03  0.42464582235E+03  0.00000000000E+00 0. -1.
         -6    2    1    2    0  503  0.26201952974E+01 -0.28440061660E+02 -0.31688875411E+03  0.36207291731E+03  0.17280802191E+03 0.  0.
        -24    2    3    3    0    0  0.59253964732E+02 -0.37915255485E+02 -0.26006673646E+03  0.28115323597E+03  0.80397983480E+02 0.  0.
          6    2    1    2  501    0 -0.26201952974E+01  0.28440061660E+02  0.90517510586E+01  0.17938172433E+03  0.17686199789E+03 0.  0.
         24    2    5    5    0    0 -0.22737646878E+02 -0.47636584083E+02 -0.11592540524E+02  0.97891573637E+02  0.81621862664E+02 0.  0.
          5    1    5    5  501    0  0.20117451581E+02  0.76076645743E+02  0.20644291583E+02  0.81490150696E+02  0.47000000000E+01 0. -1.
        -15    1    6    6    0    0  0.22890719734E+02 -0.12204683002E+02 -0.27625916065E+02  0.37937953353E+02  0.17770000000E+01 0.  1.
         16    1    6    6    0    0 -0.45628366613E+02 -0.35431901081E+02  0.16033375541E+02  0.59953620284E+02  0.00000000000E+00 0. -1.
         -5    1    3    3    0  503 -0.56633769435E+02  0.94751938256E+01 -0.56822017651E+02  0.80919681341E+02  0.47000000000E+01 0.  1.
         15    1    4    4    0    0  0.77663274193E+02 -0.36619364815E+02 -0.18677734512E+03  0.20557601129E+03  0.17770000000E+01 0. -1.
        -16    1    4    4    0    0 -0.18409309461E+02 -0.12958906705E+01 -0.73289391344E+02  0.75577224684E+02  0.00000000000E+00 0.  1.
<mgrwt>
<rscale>  2 0.17814448E+03</rscale>
<asrwt>0</asrwt>
<pdfrwt beam="1">  1       21 0.17970587E-01 0.17915320E+03</pdfrwt>
<pdfrwt beam="2">  1       21 0.65330127E-01 0.17915320E+03</pdfrwt>
<totfact> 0.61073217E+04</totfact>
</mgrwt>
</event>
<event>
12    2  0.4090627E-002  0.1821110E+03  0.7546771E-02  0.1165911E+00
         21   -1    0    0  503  502  0.00000000000E+00  0.00000000000E+00  0.24763430108E+02  0.24763430108E+02  0.00000000000E+00 0.  1.
         21   -1    0    0  501  503 -0.00000000000E+00 -0.00000000000E+00 -0.14377307793E+04  0.14377307793E+04  0.00000000000E+00 0. -1.
          6    2    1    2  501    0 -0.53258821970E+02  0.16537682977E+02 -0.90085575423E+03  0.91896620841E+03  0.17276517355E+03 0.  0.
         24    2    3    3    0    0  0.31235180168E+02  0.86532702938E+01 -0.30576111817E+03  0.31783301499E+03  0.80482597295E+02 0.  0.
         -6    2    1    2    0  502  0.53258821970E+02 -0.16537682977E+02 -0.51211159492E+03  0.54352800095E+03  0.17336206360E+03 0.  0.
        -24    2    5    5    0    0  0.61110571449E+02  0.58129896311E+01 -0.50984046184E+03  0.51927000060E+03  0.77043781032E+02 0.  0.
          5    1    3    3  501    0 -0.84494002138E+02  0.78844126837E+01 -0.59509463607E+03  0.60113319342E+03  0.47000000000E+01 0. -1.
        -15    1    4    4    0    0  0.62988939096E+01  0.43429824509E+02 -0.16030305016E+03  0.16621086409E+03  0.17770000000E+01 0.  1.
         16    1    4    4    0    0  0.24936286258E+02 -0.34776554215E+02 -0.14545806801E+03  0.15162215090E+03  0.00000000000E+00 0. -1.
         -5    1    5    5    0  502 -0.78517494790E+01 -0.22350672609E+02 -0.22711330758E+01  0.24258000358E+02  0.47000000000E+01 0.  1.
         15    1    6    6    0    0 -0.51635468032E+01  0.23316373321E+02 -0.22621141740E+03  0.22747544609E+03  0.17770000000E+01 0. -1.
        -16    1    6    6    0    0  0.66274118253E+02 -0.17503383690E+02 -0.28362904444E+03  0.29179455451E+03  0.00000000000E+00 0.  1.
<mgrwt>
<rscale>  2 0.18196876E+03</rscale>
<asrwt>0</asrwt>
<pdfrwt beam="1">  1       21 0.38097586E-02 0.18211096E+03</pdfrwt>
<pdfrwt beam="2">  1       21 0.22118934E+00 0.18211096E+03</pdfrwt>
<totfact> 0.42382486E+04</totfact>
</mgrwt>
</event>
<event>
12    2  0.4090627E-002  0.2493635E+03  0.7546771E-02  0.1114538E+00
         21   -1    0    0  501  502  0.00000000000E+00  0.00000000000E+00  0.55147930816E+03  0.55147930816E+03  0.00000000000E+00 0. -1.
         21   -1    0    0  502  503 -0.00000000000E+00 -0.00000000000E+00 -0.76801718746E+03  0.76801718746E+03  0.00000000000E+00 0.  1.
         -6    2    1    2    0  503  0.17461110308E+03 -0.41897228121E+02 -0.71890687759E+03  0.76092657883E+03  0.17302527181E+03 0.  0.
        -24    2    3    3    0    0  0.43299842207E+02 -0.31260147140E+01 -0.45225285026E+03  0.46113946351E+03  0.78945018437E+02 0.  0.
          6    2    1    2  501    0 -0.17461110308E+03  0.41897228121E+02  0.50236899829E+03  0.55856991679E+03  0.16547303846E+03 0.  0.
         24    2    5    5    0    0 -0.52020564589E+02 -0.15428403757E+02  0.28653637810E+03  0.30377494404E+03  0.85040848264E+02 0.  0.
          5    1    5    5  501    0 -0.12259053849E+03  0.57325631878E+02  0.21583262020E+03  0.25479497275E+03  0.47000000000E+01 0. -1.
        -15    1    6    6    0    0  0.25175917337E+01  0.17747490377E+02  0.16955759931E+03  0.17051172657E+03  0.17770000000E+01 0.  1.
         16    1    6    6    0    0 -0.54538156323E+02 -0.33175894134E+02  0.11697877878E+03  0.13326321748E+03  0.00000000000E+00 0. -1.
         -5    1    3    3    0  503  0.13131126087E+03 -0.38771213407E+02 -0.26665402733E+03  0.29978711532E+03  0.47000000000E+01 0.  1.
         15    1    4    4    0    0  0.42095555133E+02  0.33014526492E+02 -0.29098495541E+03  0.29586719441E+03  0.17770000000E+01 0. -1.
        -16    1    4    4    0    0  0.12042870745E+01 -0.36140541206E+02 -0.16126789484E+03  0.16527226910E+03  0.00000000000E+00 0.  1.
<mgrwt>
<rscale>  2 0.24805838E+03</rscale>
<asrwt>0</asrwt>
<pdfrwt beam="1">  1       21 0.84842971E-01 0.24936351E+03</pdfrwt>
<pdfrwt beam="2">  1       21 0.11815649E+00 0.24936351E+03</pdfrwt>
<totfact> 0.62515081E+02</totfact>
</mgrwt>
</event>
<event>
11    2  0.4090627E-002  0.2340103E+03  0.7546771E-02  0.1124021E+00
         21   -1    0    0  503  502  0.00000000000E+00  0.00000000000E+00  0.44704301444E+03  0.44704301444E+03  0.00000000000E+00 0.  1.
         21   -1    0    0  501  503 -0.00000000000E+00 -0.00000000000E+00 -0.13198063265E+03  0.13198063265E+03  0.00000000000E+00 0.  1.
          6    2    1    2  501    0  0.15513733608E+03 -0.22280956289E+02  0.78124734087E+02  0.24670693476E+03  0.17377227490E+03 0.  0.
         -6    2    1    2    0  502 -0.15513733608E+03  0.22280956289E+02  0.23693764771E+03  0.33231671233E+03  0.17242654765E+03 0.  0.
        -24    2    4    4    0    0 -0.36181644457E+02  0.27401819411E-03  0.10170362074E+02  0.75232334733E+02  0.65171746401E+02 0.  0.
          5    1    3    3  501    0 -0.17482037002E+02  0.89277564289E+01  0.14122537609E+02  0.24634579784E+02  0.47000000000E+01 0. -1.
        -15    1    3    3    0    0  0.15541405027E+03 -0.69601535978E+02  0.55823101478E+02  0.17921293821E+03  0.17770000000E+01 0.  1.
         16    1    3    3    0    0  0.17205322809E+02  0.38392823260E+02  0.81790949999E+01  0.42859416770E+02  0.00000000000E+00 0. -1.
         -5    1    4    4    0  502 -0.11895569162E+03  0.22280682271E+02  0.22676728564E+03  0.25708437760E+03  0.47000000000E+01 0.  1.
         15    1    5    5    0    0  0.12814787295E+02 -0.15781563671E+02 -0.60108574920E+01  0.21273567216E+02  0.17770000000E+01 0. -1.
        -16    1    5    5    0    0 -0.48996431752E+02  0.15781837689E+02  0.16181219566E+02  0.53958767517E+02  0.00000000000E+00 0.  1.
<mgrwt>
<rscale>  2 0.23376054E+03</rscale>
<asrwt>0</asrwt>
<pdfrwt beam="1">  1       21 0.68775847E-01 0.23401034E+03</pdfrwt>
<pdfrwt beam="2">  1       21 0.20304713E-01 0.23401034E+03</pdfrwt>
<totfact> 0.42367615E+04</totfact>
</mgrwt>
</event>
<event>
12    2  0.4090627E-002  0.1931264E+03  0.7546771E-02  0.1155730E+00
         21   -1    0    0  503  502  0.00000000000E+00  0.00000000000E+00  0.40082346915E+03  0.40082346915E+03  0.00000000000E+00 0.  1.
         21   -1    0    0  501  503 -0.00000000000E+00 -0.00000000000E+00 -0.11432117954E+03  0.11432117954E+03  0.00000000000E+00 0. -1.
          6    2    1    2  501    0 -0.78497605318E+02  0.31303722316E+02  0.31901937289E+02  0.19574356821E+03  0.17365486984E+03 0.  0.
         24    2    3    3    0    0 -0.11781289544E+03  0.47174633247E+02  0.31309967961E+02  0.15308189596E+03  0.79677025692E+02 0.  0.
         -6    2    1    2    0  502  0.78497605318E+02 -0.31303722316E+02  0.25460035231E+03  0.31940108048E+03  0.17336064646E+03 0.  0.
        -24    2    5    5    0    0  0.10484125828E+02  0.42643949152E+02  0.10693808768E+03  0.14073847694E+03  0.80269178397E+02 0.  0.
          5    1    3    3  501    0  0.39315290123E+02 -0.15870910931E+02  0.59196932819E+00  0.42661672247E+02  0.47000000000E+01 0. -1.
        -15    1    4    4    0    0 -0.11532097140E+03  0.27063936979E+02  0.47003171362E+02  0.12745132003E+03  0.17770000000E+01 0.  1.
         16    1    4    4    0    0 -0.24919240419E+01  0.20110696267E+02 -0.15693203401E+02  0.25630575935E+02  0.00000000000E+00 0. -1.
         -5    1    5    5    0  502  0.68013479490E+02 -0.73947671468E+02  0.14766226464E+03  0.17866260355E+03  0.47000000000E+01 0.  1.
         15    1    6    6    0    0  0.29629089222E+02 -0.12613541644E+02  0.29570248276E+02  0.43755475920E+02  0.17770000000E+01 0. -1.
        -16    1    6    6    0    0 -0.19144963394E+02  0.55257490796E+02  0.77367839401E+02  0.96983001016E+02  0.00000000000E+00 0.  1.
<mgrwt>
<rscale>  2 0.19306025E+03</rscale>
<asrwt>0</asrwt>
<pdfrwt beam="1">  1       21 0.61665149E-01 0.19312641E+03</pdfrwt>
<pdfrwt beam="2">  1       21 0.17587874E-01 0.19312641E+03</pdfrwt>
<totfact> 0.71575949E+04</totfact>
</mgrwt>
</event>
<event>
12    2  0.4090627E-002  0.1749154E+03  0.7546771E-02  0.1174062E+00
         21   -1    0    0  501  502  0.00000000000E+00  0.00000000000E+00  0.15259695175E+03  0.15259695175E+03  0.00000000000E+00 0.  1.
         21   -1    0    0  502  503 -0.00000000000E+00 -0.00000000000E+00 -0.28582218784E+03  0.28582218784E+03  0.00000000000E+00 0.  1.
         -6    2    1    2    0  503  0.28452086614E+02 -0.34762689934E+02 -0.19085503439E+03  0.25888421110E+03  0.16904858698E+03 0.  0.
        -24    2    3    3    0    0  0.16464819519E+02 -0.78164567287E+02 -0.79820048167E+02  0.13897476320E+03  0.81005893961E+02 0.  0.
          6    2    1    2  501    0 -0.28452086614E+02  0.34762689934E+02  0.57629798303E+02  0.17953492849E+03  0.16399277743E+03 0.  0.
         24    2    5    5    0    0  0.12597531799E+02  0.64856680968E+02  0.71214575266E+02  0.12664489508E+03  0.81254703539E+02 0.  0.
          5    1    5    5  501    0 -0.41049618414E+02 -0.30093991034E+02 -0.13584776962E+02  0.52890033403E+02  0.47000000000E+01 0. -1.
        -15    1    6    6    0    0  0.41984632939E+02  0.62121909635E+02  0.54663464535E+02  0.92806751606E+02  0.17770000000E+01 0.  1.
         16    1    6    6    0    0 -0.29387101140E+02  0.27347713331E+01  0.16551110731E+02  0.33838143479E+02  0.00000000000E+00 0. -1.
         -5    1    3    3    0  503  0.11987267095E+02  0.43401877352E+02 -0.11103498622E+03  0.11990944790E+03  0.47000000000E+01 0.  1.
         15    1    4    4    0    0  0.92953037353E+01  0.13755695197E+02  0.48837948380E+00  0.16703833854E+02  0.17770000000E+01 0. -1.
        -16    1    4    4    0    0  0.71695157836E+01 -0.91920262484E+02 -0.80308427650E+02  0.12227092935E+03  0.00000000000E+00 0.  1.
<mgrwt>
<rscale>  2 0.17368208E+03</rscale>
<asrwt>0</asrwt>
<pdfrwt beam="1">  1       21 0.23476454E-01 0.17491538E+03</pdfrwt>
<pdfrwt beam="2">  1       21 0.43972644E-01 0.17491538E+03</pdfrwt>
<totfact> 0.85428729E+04</totfact>
</mgrwt>
</event>
<event>
12    2  0.4090627E-002  0.2016080E+03  0.7546771E-02  0.1149536E+00
         21   -1    0    0  503  502  0.00000000000E+00  0.00000000000E+00  0.14293557796E+03  0.14293557796E+03  0.00000000000E+00 0. -1.
         21   -1    0    0  501  503 -0.00000000000E+00 -0.00000000000E+00 -0.62011716363E+03  0.62011716363E+03  0.00000000000E+00 0. -1.
          6    2    1    2  501    0  0.34891708658E+02 -0.87377361208E+02 -0.52391744072E+03  0.56136911048E+03  0.17830748422E+03 0.  0.
         24    2    3    3    0    0  0.62168577744E+02 -0.10882483115E+03 -0.30310106206E+03  0.33779365423E+03  0.80786899197E+02 0.  0.
         -6    2    1    2    0  502 -0.34891708658E+02  0.87377361208E+02  0.46735855053E+02  0.20168363111E+03  0.17216216869E+03 0.  0.
        -24    2    5    5    0    0 -0.18405217516E+02  0.12729371476E+03  0.48398921008E+02  0.15820978312E+03  0.78392844523E+02 0.  0.
          5    1    3    3  501    0 -0.27276869086E+02  0.21447469942E+02 -0.22081637866E+03  0.22357545626E+03  0.47000000000E+01 0. -1.
        -15    1    4    4    0    0  0.33363436291E+02  0.14103444621E+00 -0.44064394771E+02  0.55298891376E+02  0.17770000000E+01 0.  1.
         16    1    4    4    0    0  0.28805141453E+02 -0.10896586560E+03 -0.25903666729E+03  0.28249476285E+03  0.00000000000E+00 0. -1.
         -5    1    5    5    0  502 -0.16486491142E+02 -0.39916353549E+02 -0.16630659545E+01  0.43473847991E+02  0.47000000000E+01 0.  1.
         15    1    6    6    0    0 -0.18225247459E+00  0.65416338493E+02  0.64331662705E+02  0.91766285275E+02  0.17770000000E+01 0. -1.
        -16    1    6    6    0    0 -0.18222965041E+02  0.61877376263E+02 -0.15932741697E+02  0.66443497847E+02  0.00000000000E+00 0.  1.
<mgrwt>
<rscale>  2 0.20024064E+03</rscale>
<asrwt>0</asrwt>
<pdfrwt beam="1">  1       21 0.21990089E-01 0.20160802E+03</pdfrwt>
<pdfrwt beam="2">  1       21 0.95402641E-01 0.20160802E+03</pdfrwt>
<totfact> 0.17619784E+04</totfact>
</mgrwt>
</event>
<event>
12    2  0.4090627E-002  0.1818842E+03  0.7546771E-02  0.1166421E+00
         21   -1    0    0  501  502  0.00000000000E+00  0.00000000000E+00  0.14724438311E+03  0.14724438311E+03  0.00000000000E+00 0.  1.
         21   -1    0    0  502  503 -0.00000000000E+00 -0.00000000000E+00 -0.30475530331E+03  0.30475530331E+03  0.00000000000E+00 0.  1.
         -6    2    1    2    0  503 -0.46819095352E+02  0.28545033437E+02 -0.19590596352E+03  0.26610710712E+03  0.17154299547E+03 0.  0.
        -24    2    3    3    0    0 -0.21067653970E+02  0.18240778622E+02 -0.21616868854E+03  0.23143748892E+03  0.77832109849E+02 0.  0.
          6    2    1    2  501    0  0.46819095352E+02 -0.28545033437E+02  0.38395043324E+02  0.18589257930E+03  0.17342152422E+03 0.  0.
         24    2    5    5    0    0  0.48239481924E+02 -0.23142122466E+02 -0.41504681629E+02  0.10566001114E+03  0.81109764572E+02 0.  0.
          5    1    5    5  501    0 -0.14203865726E+01 -0.54029109705E+01  0.79899724952E+02  0.80232568153E+02  0.47000000000E+01 0. -1.
        -15    1    6    6    0    0 -0.75929971271E+01 -0.18559248258E+02  0.15748246776E+02  0.25559035717E+02  0.17770000000E+01 0.  1.
         16    1    6    6    0    0  0.55832479052E+02 -0.45828742080E+01 -0.57252928405E+02  0.80100975425E+02  0.00000000000E+00 0. -1.
         -5    1    3    3    0  503 -0.25751441382E+02  0.10304254815E+02  0.20262725025E+02  0.34669618198E+02  0.47000000000E+01 0.  1.
         15    1    4    4    0    0  0.19980120663E+02 -0.18002172914E+02 -0.88708919287E+02  0.92713071039E+02  0.17770000000E+01 0. -1.
        -16    1    4    4    0    0 -0.41047774632E+02  0.36242951536E+02 -0.12745976926E+03  0.13872441788E+03  0.00000000000E+00 0.  1.
<mgrwt>
<rscale>  2 0.18143501E+03</rscale>
<asrwt>0</asrwt>
<pdfrwt beam="1">  1       21 0.22652982E-01 0.18188423E+03</pdfrwt>
<pdfrwt beam="2">  1       21 0.46885431E-01 0.18188423E+03</pdfrwt>
<totfact> 0.79890178E+04</totfact>
</mgrwt>
</event>
<event>
12    2  0.4090627E-002  0.2763693E+03  0.7546771E-02  0.1098466E+00
         21   -1    0    0  501  502  0.00000000000E+00  0.00000000000E+00  0.11558044176E+03  0.11558044176E+03  0.00000000000E+00 0. -1.
         21   -1    0    0  502  503 -0.00000000000E+00 -0.00000000000E+00 -0.11124754556E+04  0.11124754556E+04  0.00000000000E+00 0.  1.
         -6    2    1    2    0  503  0.20153617648E+03  0.75681429963E+02 -0.89827750582E+03  0.93983108390E+03  0.17330747108E+03 0.  0.
        -24    2    3    3    0    0  0.21030533495E+03  0.31336677101E+02 -0.67804600737E+03  0.71495921337E+03  0.78803346577E+02 0.  0.
          6    2    1    2  501    0 -0.20153617648E+03 -0.75681429963E+02 -0.98617508051E+02  0.28822481349E+03  0.16432778507E+03 0.  0.
         24    2    5    5    0    0 -0.85420957737E+02 -0.80568825214E+02 -0.10146772484E+03  0.17187686812E+03  0.73877486379E+02 0.  0.
          5    1    5    5  501    0 -0.11611521875E+03  0.48873952516E+01  0.28502167885E+01  0.11634794537E+03  0.47000000000E+01 0. -1.
        -15    1    6    6    0    0  0.35106229425E+01 -0.41170022803E+02 -0.27257164951E+02  0.49531868743E+02  0.17770000000E+01 0.  1.
         16    1    6    6    0    0 -0.88931580679E+02 -0.39398802411E+02 -0.74210559889E+02  0.12234499938E+03  0.00000000000E+00 0. -1.
         -5    1    3    3    0  503 -0.87691584661E+01  0.44344752861E+02 -0.22023149846E+03  0.22487187054E+03  0.47000000000E+01 0.  1.
         15    1    4    4    0    0  0.59504506535E+02  0.26434599934E+02 -0.11624488153E+03  0.13325015791E+03  0.17770000000E+01 0. -1.
        -16    1    4    4    0    0  0.15080082841E+03  0.49020771676E+01 -0.56180112583E+03  0.58170905546E+03  0.00000000000E+00 0.  1.
<mgrwt>
<rscale>  2 0.27497359E+03</rscale>
<asrwt>0</asrwt>
<pdfrwt beam="1">  1       21 0.17781607E-01 0.27636930E+03</pdfrwt>
<pdfrwt beam="2">  1       21 0.17115007E+00 0.27636930E+03</pdfrwt>
<totfact> 0.56581444E+03</totfact>
</mgrwt>
</event>
<event>
12    2  0.4090627E-002  0.2450622E+03  0.7546771E-02  0.1116499E+00
         21   -1    0    0  501  502  0.00000000000E+00  0.00000000000E+00  0.18414287776E+04  0.18414287776E+04  0.00000000000E+00 0.  1.
         21   -1    0    0  502  503 -0.00000000000E+00 -0.00000000000E+00 -0.87880496372E+03  0.87880496372E+03  0.00000000000E+00 0.  1.
         -6    2    1    2    0  503  0.99096307181E+01 -0.17322011543E+03 -0.85334271426E+03  0.88783404261E+03  0.17306672139E+03 0.  0.
        -24    2    3    3    0    0  0.32384423949E+02 -0.53769012526E+02 -0.19883507796E+03  0.22211937527E+03  0.76562203626E+02 0.  0.
          6    2    1    2  501    0 -0.99096307181E+01  0.17322011543E+03  0.18159665282E+04  0.18323996987E+04  0.17277388501E+03 0.  0.
         24    2    5    5    0    0 -0.29336871275E+02  0.10139075548E+03  0.61774522110E+03  0.63186095911E+03  0.80612506156E+02 0.  0.
          5    1    5    5  501    0  0.19427240557E+02  0.71829359948E+02  0.11982213071E+04  0.12005387396E+04  0.47000000000E+01 0. -1.
        -15    1    6    6    0    0 -0.26002650702E+02  0.56019943982E+02  0.52432117561E+03  0.52794907414E+03  0.17770000000E+01 0.  1.
         16    1    6    6    0    0 -0.33342205737E+01  0.45370811495E+02  0.93424045494E+02  0.10391188497E+03  0.00000000000E+00 0. -1.
         -5    1    3    3    0  503 -0.22474793231E+02 -0.11945110290E+03 -0.65450763631E+03  0.66571466733E+03  0.47000000000E+01 0.  1.
         15    1    4    4    0    0 -0.57889416909E+01  0.30713912683E-01 -0.11631666848E+03  0.11647419407E+03  0.17770000000E+01 0. -1.
        -16    1    4    4    0    0  0.38173365640E+02 -0.53799726438E+02 -0.82518409478E+02  0.10564518121E+03  0.00000000000E+00 0.  1.
<mgrwt>
<rscale>  2 0.24501054E+03</rscale>
<asrwt>0</asrwt>
<pdfrwt beam="1">  1       21 0.28329674E+00 0.24506224E+03</pdfrwt>
<pdfrwt beam="2">  1       21 0.13520076E+00 0.24506224E+03</pdfrwt>
<totfact> 0.15268330E+01</totfact>
</mgrwt>
</event>
<event>
12    2  0.4090627E-002  0.2534392E+03  0.7546771E-02  0.1111287E+00
         21   -1    0    0  501  502  0.00000000000E+00  0.00000000000E+00  0.20749907187E+03  0.20749907187E+03  0.00000000000E+00 0.  1.
         21   -1    0    0  502  503 -0.00000000000E+00 -0.00000000000E+00 -0.31150737731E+03  0.31150737731E+03  0.00000000000E+00 0. -1.
         -6    2    1    2    0  503 -0.86242108340E+02 -0.16378975893E+03 -0.26503784315E+02  0.25482121943E+03  0.17310868524E+03 0.  0.
        -24    2    3    3    0    0  0.12665874844E+02 -0.94499312892E+02 -0.46851410177E+02  0.13226482046E+03  0.78793296502E+02 0.  0.
          6    2    1    2  501    0  0.86242108340E+02  0.16378975893E+03 -0.77504521123E+02  0.26418522976E+03  0.17181995939E+03 0.  0.
         24    2    5    5    0    0 -0.88331941213E+01  0.55544753418E+02 -0.67946440699E+02  0.11972159676E+03  0.80952436505E+02 0.  0.
          5    1    5    5  501    0  0.95075302461E+02  0.10824500552E+03 -0.95580804242E+01  0.14446363300E+03  0.47000000000E+01 0. -1.
        -15    1    6    6    0    0 -0.28438278861E+01  0.74329214294E+02 -0.66768002262E+02  0.99970212112E+02  0.17770000000E+01 0.  1.
         16    1    6    6    0    0 -0.59893662352E+01 -0.18784460876E+02 -0.11784384367E+01  0.19751384646E+02  0.00000000000E+00 0. -1.
         -5    1    3    3    0  503 -0.98907983184E+02 -0.69290446043E+02  0.20347625862E+02  0.12255639897E+03  0.47000000000E+01 0.  1.
         15    1    4    4    0    0  0.47799069277E+01 -0.46300353918E+02 -0.65167680118E+02  0.80103399079E+02  0.17770000000E+01 0. -1.
        -16    1    4    4    0    0  0.78859679161E+01 -0.48198958974E+02  0.18316269940E+02  0.52161421383E+02  0.00000000000E+00 0.  1.
<mgrwt>
<rscale>  2 0.25321924E+03</rscale>
<asrwt>0</asrwt>
<pdfrwt beam="1">  1       21 0.31922934E-01 0.25343915E+03</pdfrwt>
<pdfrwt beam="2">  1       21 0.47924212E-01 0.25343915E+03</pdfrwt>
<totfact> 0.38164391E+04</totfact>
</mgrwt>
</event>
<event>
12    2  0.4090627E-002  0.2391948E+03  0.7546771E-02  0.1120426E+00
         21   -1    0    0  503  502  0.00000000000E+00  0.00000000000E+00  0.14984308321E+04  0.14984308321E+04  0.00000000000E+00 0.  1.
         21   -1    0    0  501  503 -0.00000000000E+00 -0.00000000000E+00 -0.40895312946E+02  0.40895312946E+02  0.00000000000E+00 0.  1.
          6    2    1    2  501    0 -0.14893025869E+03 -0.72143221224E+02  0.52643315021E+03  0.57799073068E+03  0.17192020470E+03 0.  0.
         24    2    3    3    0    0 -0.86870512845E+02  0.14805427603E+02  0.36665499814E+03  0.38573405987E+03  0.81173829529E+02 0.  0.
         -6    2    1    2    0  502  0.14893025869E+03  0.72143221224E+02  0.93110236894E+03  0.96133541437E+03  0.17271158372E+03 0.  0.
        -24    2    5    5    0    0  0.14886169615E+03  0.29623646818E+02  0.51521513011E+03  0.54325383820E+03  0.81490719689E+02 0.  0.
          5    1    3    3  501    0 -0.62059745842E+02 -0.86948648827E+02  0.15977815208E+03  0.19225667080E+03  0.47000000000E+01 0. -1.
        -15    1    4    4    0    0 -0.63639421719E+02 -0.26746530953E+02  0.25852435407E+03  0.26758802718E+03  0.17770000000E+01 0.  1.
         16    1    4    4    0    0 -0.23231091126E+02  0.41551958557E+02  0.10813064407E+03  0.11814603270E+03  0.00000000000E+00 0. -1.
         -5    1    5    5    0  502  0.68562538573E-01  0.42519574406E+02  0.41588723883E+03  0.41808157617E+03  0.47000000000E+01 0.  1.
         15    1    6    6    0    0  0.23207188353E+02  0.89219963729E+01  0.20093036410E+02  0.32016612121E+02  0.17770000000E+01 0. -1.
        -16    1    6    6    0    0  0.12565450780E+03  0.20701650445E+02  0.49512209370E+03  0.51123722608E+03  0.00000000000E+00 0.  1.
<mgrwt>
<rscale>  2 0.23905199E+03</rscale>
<asrwt>0</asrwt>
<pdfrwt beam="1">  1       21 0.23052778E+00 0.23919481E+03</pdfrwt>
<pdfrwt beam="2">  1       21 0.62915877E-02 0.23919481E+03</pdfrwt>
<totfact> 0.15210669E+04</totfact>
</mgrwt>
</event>
<event>
12    2  0.4090627E-002  0.2165344E+03  0.7546771E-02  0.1136575E+00
         21   -1    0    0  503  502  0.00000000000E+00  0.00000000000E+00  0.10894347325E+03  0.10894347325E+03  0.00000000000E+00 0.  1.
         21   -1    0    0  501  503 -0.00000000000E+00 -0.00000000000E+00 -0.44743869531E+03  0.44743869531E+03  0.00000000000E+00 0. -1.
          6    2    1    2  501    0 -0.12230643596E+03  0.50032552949E+02 -0.22505773849E+03  0.31231093050E+03  0.17153720013E+03 0.  0.
         24    2    3    3    0    0 -0.11741441882E+03 -0.17606222042E+02 -0.12042686430E+03  0.18753655193E+03  0.81062962354E+02 0.  0.
         -6    2    1    2    0  502  0.12230643596E+03 -0.50032552949E+02 -0.11343748357E+03  0.24407123806E+03  0.17099878929E+03 0.  0.
        -24    2    5    5    0    0  0.94048835576E+02 -0.97291550982E+02 -0.61891223844E+02  0.16850000169E+03  0.79062618316E+02 0.  0.
          5    1    3    3  501    0 -0.48920171366E+01  0.67638774991E+02 -0.10463087419E+03  0.12477437857E+03  0.47000000000E+01 0. -1.
        -15    1    4    4    0    0 -0.14707026144E+02 -0.20178386352E+02  0.48717694344E+01  0.25502073645E+02  0.17770000000E+01 0.  1.
         16    1    4    4    0    0 -0.10270739268E+03  0.25721643098E+01 -0.12529863373E+03  0.16203447829E+03  0.00000000000E+00 0. -1.
         -5    1    5    5    0  502  0.28257600381E+02  0.47258998033E+02 -0.51546259729E+02  0.75571236370E+02  0.47000000000E+01 0.  1.
         15    1    6    6    0    0  0.70462790040E+02 -0.78821668624E+02 -0.80797078759E+02  0.13307586517E+03  0.17770000000E+01 0. -1.
        -16    1    6    6    0    0  0.23586045537E+02 -0.18469882358E+02  0.18905854915E+02  0.35424136524E+02  0.00000000000E+00 0.  1.
<mgrwt>
<rscale>  2 0.21642772E+03</rscale>
<asrwt>0</asrwt>
<pdfrwt beam="1">  1       21 0.16760535E-01 0.21653437E+03</pdfrwt>
<pdfrwt beam="2">  1       21 0.68836722E-01 0.21653437E+03</pdfrwt>
<totfact> 0.60888886E+04</totfact>
</mgrwt>
</event>
<event>
12    2  0.4090627E-002  0.2304801E+03  0.7546771E-02  0.1126405E+00
         21   -1    0    0  501  502  0.00000000000E+00  0.00000000000E+00  0.27032395436E+03  0.27032395436E+03  0.00000000000E+00 0. -1.
         21   -1    0    0  502  503 -0.00000000000E+00 -0.00000000000E+00 -0.20261976397E+03  0.20261976397E+03  0.00000000000E+00 0.  1.
         -6    2    1    2    0  503  0.14695183806E+01 -0.15218952384E+03 -0.89017881390E+01  0.23006606490E+03  0.17230015014E+03 0.  0.
        -24    2    3    3    0    0  0.51571889357E+02 -0.81192781700E+02 -0.50454082131E+02  0.13363231507E+03  0.77846346440E+02 0.  0.
          6    2    1    2  501    0 -0.14695183806E+01  0.15218952384E+03  0.76605978525E+02  0.24287765343E+03  0.17308167996E+03 0.  0.
         24    2    5    5    0    0 -0.57912655854E+02  0.91849558901E+02  0.98827166971E+01  0.13657232522E+03  0.82244238388E+02 0.  0.
          5    1    5    5  501    0  0.56443137473E+02  0.60339964940E+02  0.66723261828E+02  0.10630532821E+03  0.47000000000E+01 0. -1.
        -15    1    6    6    0    0 -0.21202343144E+02  0.59383781563E+02 -0.33232687418E+02  0.71298962892E+02  0.17770000000E+01 0.  1.
         16    1    6    6    0    0 -0.36710312710E+02  0.32465777339E+02  0.43115404115E+02  0.65273362327E+02  0.00000000000E+00 0. -1.
         -5    1    3    3    0  503 -0.50102370976E+02 -0.70996742140E+02  0.41552293992E+02  0.96433749839E+02  0.47000000000E+01 0.  1.
         15    1    4    4    0    0  0.29693156105E+01 -0.54899744532E+02  0.51385354061E+01  0.55248176983E+02  0.17770000000E+01 0. -1.
        -16    1    4    4    0    0  0.48602573746E+02 -0.26293037168E+02 -0.55592617537E+02  0.78384138082E+02  0.00000000000E+00 0.  1.
<mgrwt>
<rscale>  2 0.23033338E+03</rscale>
<asrwt>0</asrwt>
<pdfrwt beam="1">  1       21 0.41588301E-01 0.23048010E+03</pdfrwt>
<pdfrwt beam="2">  1       21 0.31172271E-01 0.23048010E+03</pdfrwt>
<totfact> 0.54102687E+04</totfact>
</mgrwt>
</event>
<event>
12    2  0.4090627E-002  0.1869397E+03  0.7546771E-02  0.1162343E+00
         21   -1    0    0  501  502  0.00000000000E+00  0.00000000000E+00  0.53636907390E+03  0.53636907390E+03  0.00000000000E+00 0. -1.
         21   -1    0    0  502  503 -0.00000000000E+00 -0.00000000000E+00 -0.12879514237E+03  0.12879514237E+03  0.00000000000E+00 0. -1.
         -6    2    1    2    0  503 -0.23146792993E+02 -0.52905245418E+02 -0.31674063361E+02  0.18960408831E+03  0.17779686442E+03 0.  0.
        -24    2    3    3    0    0 -0.47478503251E+02  0.78160233192E+01 -0.66580909681E+02  0.11530952242E+03  0.80919527530E+02 0.  0.
          6    2    1    2  501    0  0.23146792993E+02  0.52905245418E+02  0.43924799489E+03  0.47556012796E+03  0.17286959035E+03 0.  0.
         24    2    5    5    0    0 -0.53080582047E+02  0.15482963119E+02  0.22775459163E+03  0.24760708556E+03  0.79873928597E+02 0.  0.
          5    1    5    5  501    0  0.76227375040E+02  0.37422282299E+02  0.21149340326E+03  0.22795304240E+03  0.47000000000E+01 0. -1.
        -15    1    6    6    0    0 -0.49018648779E+02 -0.23256950651E+02  0.16545185998E+03  0.17412980613E+03  0.17770000000E+01 0.  1.
         16    1    6    6    0    0 -0.40619332682E+01  0.38739913770E+02  0.62302731653E+02  0.73477279428E+02  0.00000000000E+00 0. -1.
         -5    1    3    3    0  503  0.24331710258E+02 -0.60721268737E+02  0.34906846320E+02  0.74294565893E+02  0.47000000000E+01 0.  1.
         15    1    4    4    0    0 -0.34281912539E+02 -0.68004758633E+01 -0.82739705395E+02  0.89836031620E+02  0.17770000000E+01 0. -1.
        -16    1    4    4    0    0 -0.13196590712E+02  0.14616499183E+02  0.16158795713E+02  0.25473490803E+02  0.00000000000E+00 0.  1.
<mgrwt>
<rscale>  2 0.18575860E+03</rscale>
<asrwt>0</asrwt>
<pdfrwt beam="1">  1       21 0.82518318E-01 0.18693973E+03</pdfrwt>
<pdfrwt beam="2">  1       21 0.19814638E-01 0.18693973E+03</pdfrwt>
<totfact> 0.30206740E+04</totfact>
</mgrwt>
</event>
<event>
12    2  0.4090627E-002  0.3236832E+03  0.7546771E-02  0.1074077E+00
         21   -1    0    0  503  502  0.00000000000E+00  0.00000000000E+00  0.23771597349E+03  0.23771597349E+03  0.00000000000E+00 0. -1.
         21   -1    0    0  501  503 -0.00000000000E+00 -0.00000000000E+00 -0.12201254580E+04  0.12201254580E+04  0.00000000000E+00 0.  1.
          6    2    1    2  501    0  0.24185113506E+03 -0.12355225231E+03 -0.10740115761E+04  0.11214462361E+04  0.17430910609E+03 0.  0.
         24    2    3    3    0    0  0.22183363072E+03 -0.13789040071E+03 -0.10556530358E+04  0.10903752049E+04  0.79314772975E+02 0.  0.
         -6    2    1    2    0  502 -0.24185113506E+03  0.12355225231E+03  0.91602091546E+02  0.33639519535E+03  0.17610693824E+03 0.  0.
        -24    2    5    5    0    0 -0.22212659302E+03  0.81431313467E+02  0.18899768916E+02  0.24996054510E+03  0.78433351978E+02 0.  0.
          5    1    3    3  501    0  0.20017504343E+02  0.14338148400E+02 -0.18358540245E+02  0.31071031196E+02  0.47000000000E+01 0. -1.
        -15    1    4    4    0    0  0.84604514420E+02 -0.22135145736E+02 -0.24692980954E+03  0.26196445771E+03  0.17770000000E+01 0.  1.
         16    1    4    4    0    0  0.13722911630E+03 -0.11575525497E+03 -0.80872322628E+03  0.82841074724E+03  0.00000000000E+00 0. -1.
         -5    1    5    5    0  502 -0.19724542041E+02  0.42120938844E+02  0.72702322630E+02  0.86434650249E+02  0.47000000000E+01 0.  1.
         15    1    6    6    0    0 -0.13821261151E+03  0.87620585352E+02 -0.29874301883E+00  0.16365616375E+03  0.17770000000E+01 0. -1.
        -16    1    6    6    0    0 -0.83913981514E+02 -0.61892718853E+01  0.19198511935E+02  0.86304381352E+02  0.00000000000E+00 0.  1.
<mgrwt>
<rscale>  2 0.32343922E+03</rscale>
<asrwt>0</asrwt>
<pdfrwt beam="1">  1       21 0.36571688E-01 0.32368315E+03</pdfrwt>
<pdfrwt beam="2">  1       21 0.18771161E+00 0.32368315E+03</pdfrwt>
<totfact> 0.10430473E+03</totfact>
</mgrwt>
</event>
<event>
12    2  0.4090627E-002  0.2023012E+03  0.7546771E-02  0.1147926E+00
         21   -1    0    0  503  502  0.00000000000E+00  0.00000000000E+00  0.30206690704E+04  0.30206690704E+04  0.00000000000E+00 0. -1.
         21   -1    0    0  501  503 -0.00000000000E+00 -0.00000000000E+00 -0.13902275974E+02  0.13902275974E+02  0.00000000000E+00 0. -1.
          6    2    1    2  501    0  0.97297936737E+02 -0.38555753516E+02  0.17556299951E+04  0.17671846356E+04  0.17248600532E+03 0.  0.
         24    2    3    3    0    0 -0.13846602195E+02 -0.56059985933E+01  0.90733302119E+03  0.91099035811E+03  0.80168981637E+02 0.  0.
         -6    2    1    2    0  502 -0.97297936737E+02  0.38555753516E+02  0.12511367993E+04  0.12673867108E+04  0.17312524183E+03 0.  0.
        -24    2    5    5    0    0 -0.10381051771E+03  0.76926268804E+02  0.11304620876E+04  0.11405041422E+04  0.78172197445E+02 0.  0.
          5    1    3    3  501    0  0.11114453893E+03 -0.32949754923E+02  0.84829697387E+03  0.85619427746E+03  0.47000000000E+01 0. -1.
        -15    1    4    4    0    0  0.64358733186E+01  0.34863828998E+02  0.46237172013E+03  0.46373232833E+03  0.17770000000E+01 0.  1.
         16    1    4    4    0    0 -0.20282475514E+02 -0.40469827591E+02  0.44496130106E+03  0.44725802978E+03  0.00000000000E+00 0. -1.
         -5    1    5    5    0  502  0.65125809692E+01 -0.38370515288E+02  0.12067471173E+03  0.12688256856E+03  0.47000000000E+01 0.  1.
         15    1    6    6    0    0 -0.59085572373E+02  0.74166040824E+02  0.94315961559E+03  0.94791609580E+03  0.17770000000E+01 0. -1.
        -16    1    6    6    0    0 -0.44724945333E+02  0.27602279799E+01  0.18730247203E+03  0.19258804641E+03  0.00000000000E+00 0.  1.
<mgrwt>
<rscale>  2 0.20216439E+03</rscale>
<asrwt>0</asrwt>
<pdfrwt beam="1">  1       21 0.46471780E+00 0.20230122E+03</pdfrwt>
<pdfrwt beam="2">  1       21 0.21388141E-02 0.20230122E+03</pdfrwt>
<totfact> 0.36098707E+03</totfact>
</mgrwt>
</event>
<event>
12    2  0.4090627E-002  0.1965083E+03  0.7546771E-02  0.1152992E+00
         21   -1    0    0  501  502  0.00000000000E+00  0.00000000000E+00  0.39694212747E+03  0.39694212747E+03  0.00000000000E+00 0. -1.
         21   -1    0    0  502  503 -0.00000000000E+00 -0.00000000000E+00 -0.10516134762E+03  0.10516134762E+03  0.00000000000E+00 0. -1.
         -6    2    1    2    0  503 -0.79493123756E-01 -0.93389105710E+02  0.74075635877E+02  0.20882709291E+03  0.17146435058E+03 0.  0.
        -24    2    3    3    0    0 -0.66335750858E+02 -0.58788943478E+02  0.58200882098E+02  0.13226887505E+03  0.79064156934E+02 0.  0.
          6    2    1    2  501    0  0.79493123756E-01  0.93389105710E+02  0.21770514397E+03  0.29327638218E+03  0.17289874275E+03 0.  0.
         24    2    5    5    0    0  0.19478879318E+02  0.26118506245E+02  0.28333185877E+02  0.91322183776E+02  0.80469675778E+02 0.  0.
          5    1    5    5  501    0 -0.19399386195E+02  0.67270599465E+02  0.18937195810E+03  0.20195419840E+03  0.47000000000E+01 0. -1.
        -15    1    6    6    0    0 -0.94428154097E+01  0.48121169747E+02  0.81178137452E+01  0.49738017348E+02  0.17770000000E+01 0.  1.
         16    1    6    6    0    0  0.28921694728E+02 -0.22002663502E+02  0.20215372131E+02  0.41584166429E+02  0.00000000000E+00 0. -1.
         -5    1    3    3    0  503  0.66256257734E+02 -0.34600162231E+02  0.15874753779E+02  0.76558217866E+02  0.47000000000E+01 0.  1.
         15    1    4    4    0    0 -0.23691312692E+01 -0.47737194654E+02  0.45347836186E+01  0.48043464986E+02  0.17770000000E+01 0. -1.
        -16    1    4    4    0    0 -0.63966619589E+02 -0.11051748824E+02  0.53666098479E+02  0.84225410059E+02  0.00000000000E+00 0.  1.
<mgrwt>
<rscale>  2 0.19619231E+03</rscale>
<asrwt>0</asrwt>
<pdfrwt beam="1">  1       21 0.61068019E-01 0.19650829E+03</pdfrwt>
<pdfrwt beam="2">  1       21 0.16178669E-01 0.19650829E+03</pdfrwt>
<totfact> 0.85097213E+04</totfact>
</mgrwt>
</event>
<event>
12    2  0.4090627E-002  0.2818677E+03  0.7546771E-02  0.1094705E+00
         21   -1    0    0  501  502  0.00000000000E+00  0.00000000000E+00  0.52415410471E+03  0.52415410471E+03  0.00000000000E+00 0.  1.
         21   -1    0    0  502  503 -0.00000000000E+00 -0.00000000000E+00 -0.16461963385E+03  0.16461963385E+03  0.00000000000E+00 0.  1.
         -6    2    1    2    0  503 -0.92043531281E+02 -0.20275198184E+03  0.82425985050E+02  0.29367235162E+03  0.17282658737E+03 0.  0.
        -24    2    3    3    0    0 -0.50876892275E+02 -0.18615536838E+03  0.11436713164E+03  0.23878640996E+03  0.81834158148E+02 0.  0.
          6    2    1    2  501    0  0.92043531281E+02  0.20275198184E+03  0.27710848581E+03  0.39510138695E+03  0.17244017880E+03 0.  0.
         24    2    5    5    0    0  0.49336748933E+02  0.15784555158E+03  0.10469636100E+03  0.21182976470E+03  0.81001162082E+02 0.  0.
          5    1    5    5  501    0  0.42706782348E+02  0.44906430265E+02  0.17241212482E+03  0.18327162225E+03  0.47000000000E+01 0. -1.
        -15    1    6    6    0    0  0.57321262023E+01 -0.92419348521E+01  0.10026918285E+02  0.14898572076E+02  0.17770000000E+01 0.  1.
         16    1    6    6    0    0  0.43604622730E+02  0.16708748643E+03  0.94669442712E+02  0.19693119262E+03  0.00000000000E+00 0. -1.
         -5    1    3    3    0  503 -0.41166639006E+02 -0.16596613463E+02 -0.31941146592E+02  0.54885941653E+02  0.47000000000E+01 0.  1.
         15    1    4    4    0    0 -0.43078071993E+02 -0.16707476228E+03  0.63431526382E+02  0.18383800680E+03  0.17770000000E+01 0. -1.
        -16    1    4    4    0    0 -0.77988202820E+01 -0.19080606102E+02  0.50935605260E+02  0.54948403164E+02  0.00000000000E+00 0.  1.
<mgrwt>
<rscale>  2 0.28180850E+03</rscale>
<asrwt>0</asrwt>
<pdfrwt beam="1">  1       21 0.80639092E-01 0.28186771E+03</pdfrwt>
<pdfrwt beam="2">  1       21 0.25326098E-01 0.28186771E+03</pdfrwt>
<totfact> 0.19050220E+04</totfact>
</mgrwt>
</event>
<event>
12    2  0.4090627E-002  0.1821206E+03  0.7546771E-02  0.1168256E+00
         21   -1    0    0  501  502  0.00000000000E+00  0.00000000000E+00  0.18850205938E+04  0.18850205938E+04  0.00000000000E+00 0. -1.
         21   -1    0    0  502  503 -0.00000000000E+00 -0.00000000000E+00 -0.26555612741E+02  0.26555612741E+02  0.00000000000E+00 0. -1.
         -6    2    1    2    0  503 -0.41336229780E+02  0.32367998356E+02  0.36170548210E+03  0.40496761668E+03  0.17438905806E+03 0.  0.
        -24    2    3    3    0    0  0.19748387225E+02 -0.28764386643E+02  0.24293405987E+03  0.25800762326E+03  0.79583839287E+02 0.  0.
          6    2    1    2  501    0  0.41336229780E+02 -0.32367998356E+02  0.14967594990E+04  0.15066085899E+04  0.16378056691E+03 0.  0.
         24    2    5    5    0    0 -0.12679708361E+02  0.21430700943E+02  0.48850032760E+03  0.49546039683E+03  0.78920116703E+02 0.  0.
          5    1    5    5  501    0  0.54015938141E+02 -0.53798699299E+02  0.10082591714E+04  0.10111481930E+04  0.47000000000E+01 0. -1.
        -15    1    6    6    0    0 -0.41950122801E+02  0.16298884947E+02  0.18069147871E+03  0.18622039271E+03  0.17770000000E+01 0.  1.
         16    1    6    6    0    0  0.29270414441E+02  0.51318159961E+01  0.30780884889E+03  0.30924000412E+03  0.00000000000E+00 0. -1.
         -5    1    3    3    0  503 -0.61084617005E+02  0.61132384999E+02  0.11877142223E+03  0.14695999343E+03  0.47000000000E+01 0.  1.
         15    1    4    4    0    0  0.37017526473E+02  0.13065204082E+02  0.83656674419E+02  0.92426152834E+02  0.17770000000E+01 0. -1.
        -16    1    4    4    0    0 -0.17269139248E+02 -0.41829590725E+02  0.15927738545E+03  0.16558147042E+03  0.00000000000E+00 0.  1.
<mgrwt>
<rscale>  2 0.17953325E+03</rscale>
<asrwt>0</asrwt>
<pdfrwt beam="1">  1       21 0.29000306E+00 0.18212061E+03</pdfrwt>
<pdfrwt beam="2">  1       21 0.40854804E-02 0.18212061E+03</pdfrwt>
<totfact> 0.14900085E+04</totfact>
</mgrwt>
</event>
<event>
12    2  0.4090627E-002  0.1957872E+03  0.7546771E-02  0.1153721E+00
         21   -1    0    0  503  502  0.00000000000E+00  0.00000000000E+00  0.23144136894E+03  0.23144136894E+03  0.00000000000E+00 0. -1.
         21   -1    0    0  501  503 -0.00000000000E+00 -0.00000000000E+00 -0.23168088204E+03  0.23168088204E+03  0.00000000000E+00 0. -1.
          6    2    1    2  501    0  0.92245036751E+02  0.42123641848E+01  0.12488919272E+03  0.23076511783E+03  0.17067026201E+03 0.  0.
         24    2    3    3    0    0  0.48891346519E+02 -0.40468466503E+02  0.14198975062E+02  0.10368115593E+03  0.80747202162E+02 0.  0.
         -6    2    1    2    0  502 -0.92245036751E+02 -0.42123641848E+01 -0.12512870583E+03  0.23235713314E+03  0.17264342873E+03 0.  0.
        -24    2    5    5    0    0 -0.66062133241E+02 -0.24855620419E+00 -0.15832222835E+03  0.18963528689E+03  0.80816748365E+02 0.  0.
          5    1    3    3  501    0  0.43353690232E+02  0.44680830687E+02  0.11069021766E+03  0.12708396190E+03  0.47000000000E+01 0. -1.
        -15    1    4    4    0    0  0.56464196807E+02 -0.10628572197E+02 -0.16905362355E+02  0.59917619056E+02  0.17770000000E+01 0.  1.
         16    1    4    4    0    0 -0.75728502883E+01 -0.29839894306E+02  0.31104337417E+02  0.43763536875E+02  0.00000000000E+00 0. -1.
         -5    1    5    5    0  502 -0.26182903510E+02 -0.39638079806E+01  0.33193522521E+02  0.42721846253E+02  0.47000000000E+01 0.  1.
         15    1    6    6    0    0 -0.75627995954E+02 -0.21847151602E+02 -0.10439039580E+03  0.13075704290E+03  0.17770000000E+01 0. -1.
        -16    1    6    6    0    0  0.95658627137E+01  0.21598595398E+02 -0.53931832552E+02  0.58878243987E+02  0.00000000000E+00 0.  1.
<mgrwt>
<rscale>  2 0.19535137E+03</rscale>
<asrwt>0</asrwt>
<pdfrwt beam="1">  1       21 0.35606365E-01 0.19578724E+03</pdfrwt>
<pdfrwt beam="2">  1       21 0.35643213E-01 0.19578724E+03</pdfrwt>
<totfact> 0.57639521E+04</totfact>
</mgrwt>
</event>
<event>
12    2  0.4090627E-002  0.2915116E+03  0.7546771E-02  0.1089673E+00
         21   -1    0    0  501  502  0.00000000000E+00  0.00000000000E+00  0.13381354716E+03  0.13381354716E+03  0.00000000000E+00 0. -1.
         21   -1    0    0  502  503 -0.00000000000E+00 -0.00000000000E+00 -0.89842336270E+03  0.89842336270E+03  0.00000000000E+00 0. -1.
         -6    2    1    2    0  503 -0.15799544221E+03  0.17303182277E+03 -0.10227466898E+03  0.30893227135E+03  0.17342568702E+03 0.  0.
        -24    2    3    3    0    0 -0.17488708771E+03  0.10247079995E+03 -0.85710490735E+02  0.23436252125E+03  0.80583775382E+02 0.  0.
          6    2    1    2  501    0  0.15799544221E+03 -0.17303182277E+03 -0.66233514657E+03  0.72330463851E+03  0.17198599438E+03 0.  0.
         24    2    5    5    0    0  0.12139267083E+03 -0.18822513741E+03 -0.46894849153E+03  0.52584302697E+03  0.80207969837E+02 0.  0.
          5    1    5    5  501    0  0.36602771381E+02  0.15193314648E+02 -0.19338665504E+03  0.19746161154E+03  0.47000000000E+01 0. -1.
        -15    1    6    6    0    0  0.14211328103E+02 -0.67647852726E+02 -0.86362865700E+02  0.11063406404E+03  0.17770000000E+01 0.  1.
         16    1    6    6    0    0  0.10718134273E+03 -0.12057728469E+03 -0.38258562583E+03  0.41520896293E+03  0.00000000000E+00 0. -1.
         -5    1    3    3    0  503  0.16891645504E+02  0.70561022815E+02 -0.16564178248E+02  0.74569750097E+02  0.47000000000E+01 0.  1.
         15    1    4    4    0    0 -0.57218505083E+02  0.72166851697E+02 -0.13725376852E+02  0.93131925281E+02  0.17770000000E+01 0. -1.
        -16    1    4    4    0    0 -0.11766858263E+03  0.30303948254E+02 -0.71985113883E+02  0.14123059597E+03  0.00000000000E+00 0.  1.
<mgrwt>
<rscale>  2 0.29129786E+03</rscale>
<asrwt>0</asrwt>
<pdfrwt beam="1">  1       21 0.20586700E-01 0.29151165E+03</pdfrwt>
<pdfrwt beam="2">  1       21 0.13821898E+00 0.29151165E+03</pdfrwt>
<totfact> 0.75906109E+03</totfact>
</mgrwt>
</event>
<event>
12    2  0.4090627E-002  0.2044643E+03  0.7546771E-02  0.1146070E+00
         21   -1    0    0  501  502  0.00000000000E+00  0.00000000000E+00  0.18890497198E+04  0.18890497198E+04  0.00000000000E+00 0.  1.
         21   -1    0    0  502  503 -0.00000000000E+00 -0.00000000000E+00 -0.35627275858E+02  0.35627275858E+02  0.00000000000E+00 0. -1.
         -6    2    1    2    0  503 -0.10776164143E+03 -0.47108745515E+01  0.33359527074E+03  0.39115807926E+03  0.17344761343E+03 0.  0.
        -24    2    3    3    0    0 -0.14441711046E+03  0.73024123218E+01  0.26241416444E+03  0.31006071576E+03  0.79792397773E+02 0.  0.
          6    2    1    2  501    0  0.10776164143E+03  0.47108745515E+01  0.15198271732E+04  0.15335189164E+04  0.17369763057E+03 0.  0.
         24    2    5    5    0    0  0.94323071677E+02  0.57805440286E+02  0.12842737128E+04  0.12916364020E+04  0.82020209722E+02 0.  0.
          5    1    5    5  501    0  0.13438569751E+02 -0.53094565735E+02  0.23555346039E+03  0.24188251439E+03  0.47000000000E+01 0. -1.
        -15    1    6    6    0    0  0.77970776080E+02  0.68814265377E+02  0.77095735438E+03  0.77794167201E+03  0.17770000000E+01 0.  1.
         16    1    6    6    0    0  0.16352295597E+02 -0.11008825091E+02  0.51331635840E+03  0.51369472997E+03  0.00000000000E+00 0. -1.
         -5    1    3    3    0  503  0.36655469028E+02 -0.12013286873E+02  0.71181106304E+02  0.81097363495E+02  0.47000000000E+01 0.  1.
         15    1    4    4    0    0 -0.79320756324E+02 -0.28169902439E+02  0.94831281264E+02  0.12681267848E+03  0.17770000000E+01 0. -1.
        -16    1    4    4    0    0 -0.65096354133E+02  0.35472314760E+02  0.16758288318E+03  0.18324803729E+03  0.00000000000E+00 0.  1.
<mgrwt>
<rscale>  2 0.20441114E+03</rscale>
<asrwt>0</asrwt>
<pdfrwt beam="1">  1       21 0.29062296E+00 0.20446425E+03</pdfrwt>
<pdfrwt beam="2">  1       21 0.54811208E-02 0.20446425E+03</pdfrwt>
<totfact> 0.87850566E+03</totfact>
</mgrwt>
</event>
<event>
12    2  0.4090627E-002  0.1865996E+03  0.7546771E-02  0.1161596E+00
         21   -1    0    0  503  502  0.00000000000E+00  0.00000000000E+00  0.64533371831E+03  0.64533371831E+03  0.00000000000E+00 0.  1.
         21   -1    0    0  501  503 -0.00000000000E+00 -0.00000000000E+00 -0.55939448785E+02  0.55939448785E+02  0.00000000000E+00 0.  1.
          6    2    1    2  501    0 -0.59617951084E+02  0.32752599347E+02  0.36127698946E+03  0.40655823021E+03  0.17361307146E+03 0.  0.
         24    2    3    3    0    0 -0.47127939377E+02  0.88238272641E+02  0.23262358530E+03  0.26581573935E+03  0.80853196699E+02 0.  0.
         -6    2    1    2    0  502  0.59617951084E+02 -0.32752599347E+02  0.22811728006E+03  0.29471493688E+03  0.17375951112E+03 0.  0.
        -24    2    5    5    0    0  0.32867738593E+01  0.40319983782E+02  0.15091984060E+03  0.17432250110E+03  0.77298332004E+02 0.  0.
          5    1    3    3  501    0 -0.12490011707E+02 -0.55485673294E+02  0.12865340416E+03  0.14074249086E+03  0.47000000000E+01 0. -1.
        -15    1    4    4    0    0 -0.57157685526E+02  0.59370467584E+02  0.21562801449E+03  0.23084724776E+03  0.17770000000E+01 0.  1.
         16    1    4    4    0    0  0.10029746149E+02  0.28867805057E+02  0.16995570811E+02  0.34968491587E+02  0.00000000000E+00 0. -1.
         -5    1    5    5    0  502  0.56331177225E+02 -0.73072583130E+02  0.77197439466E+02  0.12039243578E+03  0.47000000000E+01 0.  1.
         15    1    6    6    0    0 -0.22337319316E+02 -0.11084772250E+02  0.75437043459E+02  0.79471587784E+02  0.17770000000E+01 0. -1.
        -16    1    6    6    0    0  0.25624093175E+02  0.51404756033E+02  0.75482797139E+02  0.94850913320E+02  0.00000000000E+00 0.  1.
<mgrwt>
<rscale>  2 0.18656547E+03</rscale>
<asrwt>0</asrwt>
<pdfrwt beam="1">  1       21 0.99282105E-01 0.18659957E+03</pdfrwt>
<pdfrwt beam="2">  1       21 0.86060695E-02 0.18659957E+03</pdfrwt>
<totfact> 0.88451103E+04</totfact>
</mgrwt>
</event>
<event>
12    2  0.4090627E-002  0.1833537E+03  0.7546771E-02  0.1166598E+00
         21   -1    0    0  503  502  0.00000000000E+00  0.00000000000E+00  0.45391212931E+02  0.45391212931E+02  0.00000000000E+00 0.  1.
         21   -1    0    0  501  503 -0.00000000000E+00 -0.00000000000E+00 -0.71653321495E+03  0.71653321495E+03  0.00000000000E+00 0.  1.
          6    2    1    2  501    0  0.63939061393E+02  0.43659165399E+01 -0.28545606708E+03  0.33487383482E+03  0.16293573647E+03 0.  0.
         24    2    3    3    0    0  0.36217737338E+02  0.58529971240E+02 -0.16662852350E+03  0.20129130700E+03  0.89530125638E+02 0.  0.
         -6    2    1    2    0  502 -0.63939061393E+02 -0.43659165399E+01 -0.38568593495E+03  0.42705059306E+03  0.17178854391E+03 0.  0.
        -24    2    5    5    0    0 -0.92084994848E+02  0.32274027578E+02 -0.20836114159E+03  0.24374524285E+03  0.80474337257E+02 0.  0.
          5    1    3    3  501    0  0.27721324055E+02 -0.54164054700E+02 -0.11882754357E+03  0.13358252783E+03  0.47000000000E+01 0. -1.
        -15    1    4    4    0    0  0.61399118899E+02  0.39226855227E+02 -0.76131685912E+02  0.10539349743E+03  0.17770000000E+01 0.  1.
         16    1    4    4    0    0 -0.25181381561E+02  0.19303116013E+02 -0.90496837589E+02  0.95897809562E+02  0.00000000000E+00 0. -1.
         -5    1    5    5    0  502  0.28145933455E+02 -0.36639944118E+02 -0.17732479336E+03  0.18330535021E+03  0.47000000000E+01 0.  1.
         15    1    6    6    0    0 -0.20855686099E+02 -0.23240263982E+02 -0.27739540578E+02  0.41805613895E+02  0.17770000000E+01 0. -1.
        -16    1    6    6    0    0 -0.71229308749E+02  0.55514291560E+02 -0.18062160101E+03  0.20193962896E+03  0.00000000000E+00 0.  1.
<mgrwt>
<rscale>  2 0.18125101E+03</rscale>
<asrwt>0</asrwt>
<pdfrwt beam="1">  1       21 0.69832635E-02 0.18335367E+03</pdfrwt>
<pdfrwt beam="2">  1       21 0.11023588E+00 0.18335367E+03</pdfrwt>
<totfact> 0.99076181E+04</totfact>
</mgrwt>
</event>
<event>
12    2  0.4090627E-002  0.3031361E+03  0.7546771E-02  0.1083879E+00
         21   -1    0    0  503  502  0.00000000000E+00  0.00000000000E+00  0.12176779869E+03  0.12176779869E+03  0.00000000000E+00 0.  1.
         21   -1    0    0  501  503 -0.00000000000E+00 -0.00000000000E+00 -0.75436523360E+03  0.75436523360E+03  0.00000000000E+00 0. -1.
          6    2    1    2  501    0  0.16299879962E+03 -0.18627148980E+03 -0.28500822286E+03  0.41492836301E+03  0.17225034902E+03 0.  0.
         24    2    3    3    0    0  0.15714942787E+03 -0.13555922882E+03 -0.28774523186E+03  0.36359095187E+03  0.79553847346E+02 0.  0.
         -6    2    1    2    0  502 -0.16299879962E+03  0.18627148980E+03 -0.34758921205E+03  0.46120466928E+03  0.17500231440E+03 0.  0.
        -24    2    5    5    0    0 -0.12555312299E+03  0.21159621524E+03 -0.30073384650E+03  0.39592806016E+03  0.76037079136E+02 0.  0.
          5    1    3    3  501    0  0.58493717532E+01 -0.50712260987E+02  0.27370089955E+01  0.51337411140E+02  0.47000000000E+01 0. -1.
        -15    1    4    4    0    0  0.11214935236E+03 -0.45404480403E+02 -0.16904719943E+03  0.20789217744E+03  0.17770000000E+01 0.  1.
         16    1    4    4    0    0  0.45000075505E+02 -0.90154748413E+02 -0.11869803243E+03  0.15569877443E+03  0.00000000000E+00 0. -1.
         -5    1    5    5    0  502 -0.37445676634E+02 -0.25324725434E+02 -0.46855365553E+02  0.65276609119E+02  0.47000000000E+01 0.  1.
         15    1    6    6    0    0 -0.10303579877E+03  0.14735638087E+03 -0.26150540670E+03  0.31736180343E+03  0.17770000000E+01 0. -1.
        -16    1    6    6    0    0 -0.22517324219E+02  0.64239834363E+02 -0.39228439795E+02  0.78566256737E+02  0.00000000000E+00 0.  1.
<mgrwt>
<rscale>  2 0.30274022E+03</rscale>
<asrwt>0</asrwt>
<pdfrwt beam="1">  1       21 0.18733507E-01 0.30313609E+03</pdfrwt>
<pdfrwt beam="2">  1       21 0.11605619E+00 0.30313609E+03</pdfrwt>
<totfact> 0.14066476E+04</totfact>
</mgrwt>
</event>
<event>
11    2  0.4090627E-002  0.1765236E+03  0.7546771E-02  0.1171625E+00
         21   -1    0    0  503  502  0.00000000000E+00  0.00000000000E+00  0.32231298103E+04  0.32231298103E+04  0.00000000000E+00 0.  1.
         21   -1    0    0  501  503 -0.00000000000E+00 -0.00000000000E+00 -0.12830261575E+02  0.12830261575E+02  0.00000000000E+00 0.  1.
          6    2    1    2  501    0  0.92379018959E+01  0.34087218387E+02  0.79609226381E+03  0.81542839262E+03  0.17295460013E+03 0.  0.
         24    2    3    3    0    0  0.70376410656E+02  0.91895449386E+01  0.43641596795E+03  0.44971410633E+03  0.82137649306E+02 0.  0.
         -6    2    1    2    0  502 -0.92379018959E+01 -0.34087218387E+02  0.24142072849E+04  0.24205316793E+04  0.17125863030E+03 0.  0.
          5    1    3    3  501    0 -0.61138508760E+02  0.24897673449E+02  0.35967629585E+03  0.36571428629E+03  0.47000000000E+01 0. -1.
        -15    1    4    4    0    0  0.61736666824E+02  0.17078194377E+02  0.43272848048E+03  0.43744734118E+03  0.17770000000E+01 0.  1.
         16    1    4    4    0    0  0.86397438320E+01 -0.78886494385E+01  0.36874874719E+01  0.12266765152E+02  0.00000000000E+00 0. -1.
         -5    1    5    5    0  502  0.33247215208E+02 -0.20431228643E+02  0.27326923831E+03  0.27608147173E+03  0.47000000000E+01 0.  1.
         15    1    5    5    0    0  0.15989624022E+02  0.39438472042E+02  0.61864467456E+03  0.62010922606E+03  0.17770000000E+01 0. -1.
        -16    1    5    5    0    0 -0.58474741126E+02 -0.53094461786E+02  0.15222933720E+04  0.15243409815E+04  0.00000000000E+00 0.  1.
<mgrwt>
<rscale>  2 0.17610676E+03</rscale>
<asrwt>0</asrwt>
<pdfrwt beam="1">  1       21 0.49586548E+00 0.17652357E+03</pdfrwt>
<pdfrwt beam="2">  1       21 0.19738890E-02 0.17652357E+03</pdfrwt>
<totfact> 0.26115331E+03</totfact>
</mgrwt>
</event>
<event>
12    2  0.4090627E-002  0.1757816E+03  0.7546771E-02  0.1172073E+00
         21   -1    0    0  503  502  0.00000000000E+00  0.00000000000E+00  0.40017590866E+03  0.40017590866E+03  0.00000000000E+00 0.  1.
         21   -1    0    0  501  503 -0.00000000000E+00 -0.00000000000E+00 -0.15726889989E+03  0.15726889989E+03  0.00000000000E+00 0.  1.
          6    2    1    2  501    0 -0.10679281917E+02 -0.35938254165E+02 -0.77758136562E+02  0.19176011235E+03  0.17123086086E+03 0.  0.
         24    2    3    3    0    0  0.16732367177E+02 -0.47113737464E+02 -0.11177615688E+03  0.14642132499E+03  0.80284611202E+02 0.  0.
         -6    2    1    2    0  502  0.10679281917E+02  0.35938254165E+02  0.32066514533E+03  0.36568469620E+03  0.17173688138E+03 0.  0.
        -24    2    5    5    0    0 -0.13718516741E+02  0.55502929398E+02  0.96141495436E+02  0.13894478251E+03  0.82423859219E+02 0.  0.
          5    1    3    3  501    0 -0.27411649094E+02  0.11175483298E+02  0.34018020317E+02  0.45338787361E+02  0.47000000000E+01 0. -1.
        -15    1    4    4    0    0  0.45816827629E+02 -0.46760440577E+02 -0.76822140914E+02  0.10094810330E+03  0.17770000000E+01 0.  1.
         16    1    4    4    0    0 -0.29084460452E+02 -0.35329688671E+00 -0.34954015966E+02  0.45473221687E+02  0.00000000000E+00 0. -1.
         -5    1    5    5    0  502  0.24397798658E+02 -0.19564675233E+02  0.22452364989E+03  0.22673991369E+03  0.47000000000E+01 0.  1.
         15    1    6    6    0    0 -0.90653081371E+01  0.64056172723E+02  0.10656673093E+03  0.12467958512E+03  0.17770000000E+01 0. -1.
        -16    1    6    6    0    0 -0.46532086035E+01 -0.85532433248E+01 -0.10425235489E+02  0.14265197394E+02  0.00000000000E+00 0.  1.
<mgrwt>
<rscale>  2 0.17565786E+03</rscale>
<asrwt>0</asrwt>
<pdfrwt beam="1">  1       21 0.61565524E-01 0.17578157E+03</pdfrwt>
<pdfrwt beam="2">  1       21 0.24195216E-01 0.17578157E+03</pdfrwt>
<totfact> 0.39862827E+04</totfact>
</mgrwt>
</event>
<event>
12    2  0.4090627E-002  0.3017302E+03  0.7546771E-02  0.1084721E+00
         21   -1    0    0  503  502  0.00000000000E+00  0.00000000000E+00  0.49185804395E+03  0.49185804395E+03  0.00000000000E+00 0. -1.
         21   -1    0    0  501  503 -0.00000000000E+00 -0.00000000000E+00 -0.29552120729E+03  0.29552120729E+03  0.00000000000E+00 0. -1.
          6    2    1    2  501    0  0.10558101847E+03  0.21976619030E+03 -0.14402868759E+03  0.33434319339E+03  0.17775426368E+03 0.  0.
         24    2    3    3    0    0 -0.17829309803E+02  0.78462664873E+02 -0.47324239905E+02  0.12322560619E+03  0.80440613322E+02 0.  0.
         -6    2    1    2    0  502 -0.10558101847E+03 -0.21976619030E+03  0.34036552425E+03  0.45303605785E+03  0.17305620404E+03 0.  0.
        -24    2    5    5    0    0 -0.33690030174E+02 -0.20304795632E+03  0.22226181590E+03  0.31368617636E+03  0.81456809012E+02 0.  0.
          5    1    3    3  501    0  0.12341032828E+03  0.14130352542E+03 -0.96704447685E+02  0.21111758720E+03  0.47000000000E+01 0. -1.
        -15    1    4    4    0    0  0.12905853559E+01 -0.10159306853E+02  0.11228206327E+02  0.15300570990E+02  0.17770000000E+01 0.  1.
         16    1    4    4    0    0 -0.19119895159E+02  0.88621971726E+02 -0.58552446233E+02  0.10792503520E+03  0.00000000000E+00 0. -1.
         -5    1    5    5    0  502 -0.71890988300E+02 -0.16718233981E+02  0.11810370835E+03  0.13934988149E+03  0.47000000000E+01 0.  1.
         15    1    6    6    0    0  0.22977774345E+02 -0.10994933930E+03  0.11534241249E+03  0.16100889781E+03  0.17770000000E+01 0. -1.
        -16    1    6    6    0    0 -0.56667804519E+02 -0.93098617014E+02  0.10691940341E+03  0.15267727855E+03  0.00000000000E+00 0.  1.
<mgrwt>
<rscale>  2 0.30104194E+03</rscale>
<asrwt>0</asrwt>
<pdfrwt beam="1">  1       21 0.75670468E-01 0.30173019E+03</pdfrwt>
<pdfrwt beam="2">  1       21 0.45464801E-01 0.30173019E+03</pdfrwt>
<totfact> 0.67720326E+03</totfact>
</mgrwt>
</event>
<event>
12    2  0.4090627E-002  0.1953376E+03  0.7546771E-02  0.1153828E+00
         21   -1    0    0  501  502  0.00000000000E+00  0.00000000000E+00  0.55393161352E+02  0.55393161352E+02  0.00000000000E+00 0.  1.
         21   -1    0    0  502  503 -0.00000000000E+00 -0.00000000000E+00 -0.15916526933E+04  0.15916526933E+04  0.00000000000E+00 0.  1.
         -6    2    1    2    0  503 -0.60606460494E+02 -0.65046004095E+02 -0.13892520252E+04  0.14029176597E+04  0.17393287417E+03 0.  0.
        -24    2    3    3    0    0 -0.45103280716E+02 -0.43889054585E+02 -0.37524282778E+03  0.38855840011E+03  0.78802889870E+02 0.  0.
          6    2    1    2  501    0  0.60606460494E+02  0.65046004095E+02 -0.14700750676E+03  0.24412819495E+03  0.17344521562E+03 0.  0.
         24    2    5    5    0    0 -0.42481121231E+01  0.54440671765E+02 -0.14871250939E+03  0.17822230980E+03  0.81645257439E+02 0.  0.
          5    1    5    5  501    0  0.64854572617E+02  0.10605332329E+02  0.17050026315E+01  0.65905885148E+02  0.47000000000E+01 0. -1.
        -15    1    6    6    0    0 -0.39397769551E+02  0.16149479937E+02 -0.91419836243E+02  0.10086493016E+03  0.17770000000E+01 0.  1.
         16    1    6    6    0    0  0.35149657427E+02  0.38291191828E+02 -0.57292673149E+02  0.77357379644E+02  0.00000000000E+00 0. -1.
         -5    1    3    3    0  503 -0.15503179778E+02 -0.21156949510E+02 -0.10140091974E+04  0.10143592596E+04  0.47000000000E+01 0.  1.
         15    1    4    4    0    0  0.22461964180E+02 -0.15506494229E+02 -0.91145137369E+02  0.95160837497E+02  0.17770000000E+01 0. -1.
        -16    1    4    4    0    0 -0.67565244897E+02 -0.28382560356E+02 -0.28409769041E+03  0.29339756261E+03  0.00000000000E+00 0.  1.
<mgrwt>
<rscale>  2 0.19522897E+03</rscale>
<asrwt>0</asrwt>
<pdfrwt beam="1">  1       21 0.85220252E-02 0.19533758E+03</pdfrwt>
<pdfrwt beam="2">  1       21 0.24486963E+00 0.19533758E+03</pdfrwt>
<totfact> 0.76418877E+03</totfact>
</mgrwt>
</event>
<event>
12    2  0.4090627E-002  0.1904409E+03  0.7546771E-02  0.1160786E+00
         21   -1    0    0  501  502  0.00000000000E+00  0.00000000000E+00  0.39375842391E+03  0.39375842391E+03  0.00000000000E+00 0.  1.
         21   -1    0    0  502  503 -0.00000000000E+00 -0.00000000000E+00 -0.86537429085E+02  0.86537429085E+02  0.00000000000E+00 0.  1.
         -6    2    1    2    0  503 -0.51175549567E+02  0.56369848300E+02  0.16008865373E+03  0.24878926557E+03  0.17456008977E+03 0.  0.
        -24    2    3    3    0    0  0.22323118210E+02  0.75952067849E+02  0.81248701268E+02  0.13913824829E+03  0.80567130154E+02 0.  0.
          6    2    1    2  501    0  0.51175549567E+02 -0.56369848300E+02  0.14713234109E+03  0.23150658742E+03  0.16171232963E+03 0.  0.
         24    2    5    5    0    0  0.69201993636E+02 -0.57724996556E+02  0.16597876168E+03  0.20497233255E+03  0.79646824358E+02 0.  0.
          5    1    5    5  501    0 -0.18026444070E+02  0.13551482555E+01 -0.18846420591E+02  0.26534254873E+02  0.47000000000E+01 0. -1.
        -15    1    6    6    0    0  0.12449513403E+02  0.19971034703E+02  0.40152847488E+02  0.46575116763E+02  0.17770000000E+01 0.  1.
         16    1    6    6    0    0  0.56752480233E+02 -0.77696031259E+02  0.12582591420E+03  0.15839721579E+03  0.00000000000E+00 0. -1.
         -5    1    3    3    0  503 -0.73498667777E+02 -0.19582219549E+02  0.78839952463E+02  0.10965101729E+03  0.47000000000E+01 0.  1.
         15    1    4    4    0    0  0.44526298396E+02  0.15500502846E+02  0.45186481352E+02  0.65328651167E+02  0.17770000000E+01 0. -1.
        -16    1    4    4    0    0 -0.22203180185E+02  0.60451565003E+02  0.36062219916E+02  0.73809597119E+02  0.00000000000E+00 0.  1.
<mgrwt>
<rscale>  2 0.18744528E+03</rscale>
<asrwt>0</asrwt>
<pdfrwt beam="1">  1       21 0.60578218E-01 0.19044086E+03</pdfrwt>
<pdfrwt beam="2">  1       21 0.13313451E-01 0.19044086E+03</pdfrwt>
<totfact> 0.12370404E+05</totfact>
</mgrwt>
</event>
<event>
12    2  0.4090627E-002  0.1901292E+03  0.7546771E-02  0.1158345E+00
         21   -1    0    0  503  502  0.00000000000E+00  0.00000000000E+00  0.51610794771E+02  0.51610794771E+02  0.00000000000E+00 0. -1.
         21   -1    0    0  501  503 -0.00000000000E+00 -0.00000000000E+00 -0.11612194941E+04  0.11612194941E+04  0.00000000000E+00 0. -1.
          6    2    1    2  501    0 -0.77700417660E+02 -0.23028210808E+02 -0.93681197467E+03  0.95591039832E+03  0.17198941920E+03 0.  0.
         24    2    3    3    0    0 -0.24564539269E+02 -0.32849120931E+02 -0.23093600020E+03  0.24795358241E+03  0.80418042169E+02 0.  0.
         -6    2    1    2    0  502  0.77700417660E+02  0.23028210808E+02 -0.17279672464E+03  0.25691989054E+03  0.17199264144E+03 0.  0.
        -24    2    5    5    0    0  0.31043037568E+02  0.47455682633E+02 -0.17763278142E+03  0.20382478773E+03  0.82312982350E+02 0.  0.
          5    1    3    3  501    0 -0.53135878391E+02  0.98209101234E+01 -0.70587597447E+03  0.70795681590E+03  0.47000000000E+01 0. -1.
        -15    1    4    4    0    0 -0.14828681644E+02 -0.58853115680E+02 -0.13391212517E+03  0.14703466945E+03  0.17770000000E+01 0.  1.
         16    1    4    4    0    0 -0.97358576257E+01  0.26003994749E+02 -0.97023875038E+02  0.10091891296E+03  0.00000000000E+00 0. -1.
         -5    1    5    5    0  502  0.46657380093E+02 -0.24427471825E+02  0.48360567810E+01  0.53095102807E+02  0.47000000000E+01 0.  1.
         15    1    6    6    0    0  0.47977272709E+02 -0.67078861840E+00 -0.72368141759E+02  0.86847995513E+02  0.17770000000E+01 0. -1.
        -16    1    6    6    0    0 -0.16934235141E+02  0.48126471251E+02 -0.10526463966E+03  0.11697679222E+03  0.00000000000E+00 0.  1.
<mgrwt>
<rscale>  2 0.19012850E+03</rscale>
<asrwt>0</asrwt>
<pdfrwt beam="1">  1       21 0.79401224E-02 0.19012922E+03</pdfrwt>
<pdfrwt beam="2">  1       21 0.17864915E+00 0.19012922E+03</pdfrwt>
<totfact> 0.22637786E+04</totfact>
</mgrwt>
</event>
<event>
12    2  0.4090627E-002  0.1840745E+03  0.7546771E-02  0.1164024E+00
         21   -1    0    0  501  502  0.00000000000E+00  0.00000000000E+00  0.14034050430E+03  0.14034050430E+03  0.00000000000E+00 0. -1.
         21   -1    0    0  502  503 -0.00000000000E+00 -0.00000000000E+00 -0.26842087626E+03  0.26842087626E+03  0.00000000000E+00 0. -1.
         -6    2    1    2    0  503  0.59015647423E+02  0.18771761468E+02 -0.12948381391E+03  0.22468151833E+03  0.17285977249E+03 0.  0.
        -24    2    3    3    0    0  0.35830653530E+02  0.70821203726E+02 -0.12222830234E+03  0.16704974906E+03  0.81647915701E+02 0.  0.
          6    2    1    2  501    0 -0.59015647423E+02 -0.18771761468E+02  0.14034419504E+01  0.18407986223E+03  0.17334416737E+03 0.  0.
         24    2    5    5    0    0 -0.98511429198E+02 -0.38068942819E+02 -0.19680309183E+02  0.13510116740E+03  0.81922309369E+02 0.  0.
          5    1    5    5  501    0  0.39495781774E+02  0.19297181350E+02  0.21083751133E+02  0.48978694836E+02  0.47000000000E+01 0. -1.
        -15    1    6    6    0    0 -0.92213644717E+01 -0.63720862127E+01 -0.37070991397E+02  0.38769229778E+02  0.17770000000E+01 0.  1.
         16    1    6    6    0    0 -0.89290064726E+02 -0.31696856606E+02  0.17390682214E+02  0.96331937618E+02  0.00000000000E+00 0. -1.
         -5    1    3    3    0  503  0.23184993893E+02 -0.52049442257E+02 -0.72555115674E+01  0.57631769270E+02  0.47000000000E+01 0.  1.
         15    1    4    4    0    0  0.28801657260E+02  0.59367723967E+01 -0.89129693103E+02  0.93872470134E+02  0.17770000000E+01 0. -1.
        -16    1    4    4    0    0  0.70289962709E+01  0.64884431329E+02 -0.33098609236E+02  0.73177278925E+02  0.00000000000E+00 0.  1.
<mgrwt>
<rscale>  2 0.18396038E+03</rscale>
<asrwt>0</asrwt>
<pdfrwt beam="1">  1       21 0.21590847E-01 0.18407451E+03</pdfrwt>
<pdfrwt beam="2">  1       21 0.41295519E-01 0.18407451E+03</pdfrwt>
<totfact> 0.11327511E+05</totfact>
</mgrwt>
</event>
<event>
12    2  0.4090627E-002  0.1816576E+03  0.7546771E-02  0.1166686E+00
         21   -1    0    0  501  502  0.00000000000E+00  0.00000000000E+00  0.62432211422E+03  0.62432211422E+03  0.00000000000E+00 0. -1.
         21   -1    0    0  502  503 -0.00000000000E+00 -0.00000000000E+00 -0.52514776807E+02  0.52514776807E+02  0.00000000000E+00 0. -1.
         -6    2    1    2    0  503  0.55073719254E+02 -0.25248364691E+01  0.26172720558E+03  0.31746359122E+03  0.17100442175E+03 0.  0.
        -24    2    3    3    0    0 -0.17216149121E+02 -0.44076810258E+02  0.10387373825E+03  0.13887972088E+03  0.79111708247E+02 0.  0.
          6    2    1    2  501    0 -0.55073719254E+02  0.25248364691E+01  0.31008013183E+03  0.35937329981E+03  0.17308954650E+03 0.  0.
         24    2    5    5    0    0 -0.68404415152E+02 -0.56902676291E+02  0.18137182534E+03  0.21690486511E+03  0.78961401324E+02 0.  0.
          5    1    5    5  501    0  0.13330695898E+02  0.59427512760E+02  0.12870830649E+03  0.14246843470E+03  0.47000000000E+01 0. -1.
        -15    1    6    6    0    0  0.10074275870E+02  0.40991117473E+01  0.11383474746E+01  0.11079138748E+02  0.17770000000E+01 0.  1.
         16    1    6    6    0    0 -0.78478691021E+02 -0.61001788039E+02  0.18023347787E+03  0.20582572636E+03  0.00000000000E+00 0. -1.
         -5    1    3    3    0  503  0.72289868374E+02  0.41551973789E+02  0.15785346734E+03  0.17858387034E+03  0.47000000000E+01 0.  1.
         15    1    4    4    0    0 -0.37978565761E+02 -0.37399342108E+02  0.10421377245E+03  0.11706728982E+03  0.17770000000E+01 0. -1.
        -16    1    4    4    0    0  0.20762416640E+02 -0.66774681496E+01 -0.34003420648E+00  0.21812431064E+02  0.00000000000E+00 0.  1.
<mgrwt>
<rscale>  2 0.18115913E+03</rscale>
<asrwt>0</asrwt>
<pdfrwt beam="1">  1       21 0.96049551E-01 0.18165759E+03</pdfrwt>
<pdfrwt beam="2">  1       21 0.80791969E-02 0.18165759E+03</pdfrwt>
<totfact> 0.10696202E+05</totfact>
</mgrwt>
</event>
<event>
12    2  0.4090627E-002  0.2053718E+03  0.7546771E-02  0.1145490E+00
         21   -1    0    0  501  502  0.00000000000E+00  0.00000000000E+00  0.55775591413E+03  0.55775591413E+03  0.00000000000E+00 0. -1.
         21   -1    0    0  502  503 -0.00000000000E+00 -0.00000000000E+00 -0.24544708588E+03  0.24544708588E+03  0.00000000000E+00 0.  1.
         -6    2    1    2    0  503  0.20707714904E+02 -0.10618196061E+03 -0.17838313980E+03  0.27126674333E+03  0.17338305355E+03 0.  0.
        -24    2    3    3    0    0 -0.54538437594E+02 -0.45741278887E+02 -0.10068774967E+03  0.14727592463E+03  0.80532411329E+02 0.  0.
          6    2    1    2  501    0 -0.20707714904E+02  0.10618196061E+03  0.49069196805E+03  0.53193625668E+03  0.17456848355E+03 0.  0.
         24    2    5    5    0    0 -0.63826903719E+01 -0.52862390404E+01  0.12329262179E+03  0.14770359865E+03  0.80911058628E+02 0.  0.
          5    1    5    5  501    0 -0.14325024532E+02  0.11146819965E+03  0.36739934626E+03  0.38423265802E+03  0.47000000000E+01 0. -1.
        -15    1    6    6    0    0 -0.14334962397E+02  0.31649912128E+01 -0.73731129345E+01  0.16523584346E+02  0.17770000000E+01 0.  1.
         16    1    6    6    0    0  0.79522720255E+01 -0.84512302532E+01  0.13066573472E+03  0.13118001431E+03  0.00000000000E+00 0. -1.
         -5    1    3    3    0  503  0.75246152498E+02 -0.60440681723E+02 -0.77695390131E+02  0.12399081870E+03  0.47000000000E+01 0.  1.
         15    1    4    4    0    0 -0.92725924123E+01 -0.11070662050E+02 -0.87567308789E+02  0.88767853561E+02  0.17770000000E+01 0. -1.
        -16    1    4    4    0    0 -0.45265845182E+02 -0.34670616838E+02 -0.13120440878E+02  0.58508071074E+02  0.00000000000E+00 0.  1.
<mgrwt>
<rscale>  2 0.20511966E+03</rscale>
<asrwt>0</asrwt>
<pdfrwt beam="1">  1       21 0.85808602E-01 0.20537179E+03</pdfrwt>
<pdfrwt beam="2">  1       21 0.37761090E-01 0.20537179E+03</pdfrwt>
<totfact> 0.78580344E+03</totfact>
</mgrwt>
</event>
<event>
12    2  0.4090627E-002  0.1996799E+03  0.7546771E-02  0.1151740E+00
         21   -1    0    0  503  502  0.00000000000E+00  0.00000000000E+00  0.17274288504E+04  0.17274288504E+04  0.00000000000E+00 0.  1.
         21   -1    0    0  501  503 -0.00000000000E+00 -0.00000000000E+00 -0.36058423532E+02  0.36058423532E+02  0.00000000000E+00 0.  1.
          6    2    1    2  501    0 -0.86747885453E+02  0.68156858990E+01  0.13822971055E+04  0.13955220996E+04  0.17077761399E+03 0.  0.
         24    2    3    3    0    0 -0.35024501530E+02  0.51918807786E+02  0.11148674924E+04  0.11193875527E+04  0.78591915474E+02 0.  0.
         -6    2    1    2    0  502  0.86747885453E+02 -0.68156858990E+01  0.30907332136E+03  0.36796517431E+03  0.17972312684E+03 0.  0.
        -24    2    5    5    0    0  0.51834272697E+02  0.32288156142E+02  0.29816823918E+03  0.31421499630E+03  0.78086158783E+02 0.  0.
          5    1    3    3  501    0 -0.51723383923E+02 -0.45103121887E+02  0.26742961309E+03  0.27613454693E+03  0.47000000000E+01 0. -1.
        -15    1    4    4    0    0 -0.36641925734E+02  0.57175891664E+02  0.51108541408E+03  0.51558042198E+03  0.17770000000E+01 0.  1.
         16    1    4    4    0    0  0.16174242041E+01 -0.52570838780E+01  0.60378207830E+03  0.60380713068E+03  0.00000000000E+00 0. -1.
         -5    1    5    5    0  502  0.34913612755E+02 -0.39103842041E+02  0.10905082181E+02  0.53750178003E+02  0.47000000000E+01 0.  1.
         15    1    6    6    0    0  0.61302279467E+02  0.21905181759E+02  0.29145527149E+03  0.29864215955E+03  0.17770000000E+01 0. -1.
        -16    1    6    6    0    0 -0.94680067698E+01  0.10382974383E+02  0.67129676932E+01  0.15572836752E+02  0.00000000000E+00 0.  1.
<mgrwt>
<rscale>  2 0.19764606E+03</rscale>
<asrwt>0</asrwt>
<pdfrwt beam="1">  1       21 0.26575822E+00 0.19967987E+03</pdfrwt>
<pdfrwt beam="2">  1       21 0.55474511E-02 0.19967987E+03</pdfrwt>
<totfact> 0.12046317E+04</totfact>
</mgrwt>
</event>
<event>
12    2  0.4090627E-002  0.1808978E+03  0.7546771E-02  0.1167489E+00
         21   -1    0    0  503  502  0.00000000000E+00  0.00000000000E+00  0.44839189000E+03  0.44839189000E+03  0.00000000000E+00 0. -1.
         21   -1    0    0  501  503 -0.00000000000E+00 -0.00000000000E+00 -0.98377478783E+02  0.98377478783E+02  0.00000000000E+00 0. -1.
          6    2    1    2  501    0 -0.22469287831E+01  0.52043575809E+02  0.34433532554E+02  0.18414584419E+03  0.17323521956E+03 0.  0.
         24    2    3    3    0    0 -0.32062450915E+02 -0.29142556375E+02  0.23643078437E+01  0.91784171444E+02  0.80879260786E+02 0.  0.
         -6    2    1    2    0  502  0.22469287831E+01 -0.52043575809E+02  0.31558087867E+03  0.36262352459E+03  0.17085358392E+03 0.  0.
        -24    2    5    5    0    0 -0.30332506435E+02 -0.53928557818E+02  0.31363896753E+03  0.32959575181E+03  0.80222237322E+02 0.  0.
          5    1    3    3  501    0  0.29815522132E+02  0.81186132185E+02  0.32069224710E+02  0.92361672747E+02  0.47000000000E+01 0. -1.
        -15    1    4    4    0    0  0.11255998344E+02 -0.40180642868E+02 -0.14197062638E+02  0.44112309808E+02  0.17770000000E+01 0.  1.
         16    1    4    4    0    0 -0.43318449259E+02  0.11038086493E+02  0.16561370481E+02  0.47671861636E+02  0.00000000000E+00 0. -1.
         -5    1    5    5    0  502  0.32579435218E+02  0.18849820085E+01  0.19419111323E+01  0.33027772785E+02  0.47000000000E+01 0.  1.
         15    1    6    6    0    0 -0.54516181723E+02 -0.52957214430E+02  0.25683494786E+03  0.26785038510E+03  0.17770000000E+01 0. -1.
        -16    1    6    6    0    0  0.24183675289E+02 -0.97134338765E+00  0.56804019675E+02  0.61745366706E+02  0.00000000000E+00 0.  1.
<mgrwt>
<rscale>  2 0.18032526E+03</rscale>
<asrwt>0</asrwt>
<pdfrwt beam="1">  1       21 0.68983366E-01 0.18089783E+03</pdfrwt>
<pdfrwt beam="2">  1       21 0.15134997E-01 0.18089783E+03</pdfrwt>
<totfact> 0.74221430E+04</totfact>
</mgrwt>
</event>
<event>
12    2  0.4090627E-002  0.2679225E+03  0.7546771E-02  0.1102669E+00
         21   -1    0    0  503  502  0.00000000000E+00  0.00000000000E+00  0.25719973424E+03  0.25719973424E+03  0.00000000000E+00 0. -1.
         21   -1    0    0  501  503 -0.00000000000E+00 -0.00000000000E+00 -0.43973555326E+03  0.43973555326E+03  0.00000000000E+00 0.  1.
          6    2    1    2  501    0  0.19137023209E+03 -0.71241094497E+02 -0.30265439001E+03  0.40331828173E+03  0.17137122660E+03 0.  0.
         24    2    3    3    0    0  0.41534953406E+02 -0.20484293113E+02 -0.18559236714E+03  0.20646180908E+03  0.77699377401E+02 0.  0.
         -6    2    1    2    0  502 -0.19137023209E+03  0.71241094497E+02  0.12011857099E+03  0.29361700577E+03  0.17344917327E+03 0.  0.
        -24    2    5    5    0    0 -0.14864037385E+03  0.18358684184E+02  0.14286828571E+03  0.22176973982E+03  0.79620778785E+02 0.  0.
          5    1    3    3  501    0  0.14983527868E+03 -0.50756801384E+02 -0.11706202287E+03  0.19685647265E+03  0.47000000000E+01 0. -1.
        -15    1    4    4    0    0  0.11551562200E+02 -0.37616668806E+02 -0.15627361684E+03  0.16116157548E+03  0.17770000000E+01 0.  1.
         16    1    4    4    0    0  0.29983391206E+02  0.17132375693E+02 -0.29318750302E+02  0.45300233602E+02  0.00000000000E+00 0. -1.
         -5    1    5    5    0  502 -0.42729858243E+02  0.52882410313E+02 -0.22749714718E+02  0.71847265958E+02  0.47000000000E+01 0.  1.
         15    1    6    6    0    0 -0.24578498324E+02 -0.27691337131E+02  0.26721806752E+02  0.45696010954E+02  0.17770000000E+01 0. -1.
        -16    1    6    6    0    0 -0.12406187552E+03  0.46050021315E+02  0.11614647896E+03  0.17607372886E+03  0.00000000000E+00 0.  1.
<mgrwt>
<rscale>  2 0.26758675E+03</rscale>
<asrwt>0</asrwt>
<pdfrwt beam="1">  1       21 0.39569191E-01 0.26792252E+03</pdfrwt>
<pdfrwt beam="2">  1       21 0.67651622E-01 0.26792252E+03</pdfrwt>
<totfact> 0.11768096E+04</totfact>
</mgrwt>
</event>
<event>
12    2  0.4090627E-002  0.1940623E+03  0.7546771E-02  0.1157014E+00
         21   -1    0    0  501  502  0.00000000000E+00  0.00000000000E+00  0.11383154643E+03  0.11383154643E+03  0.00000000000E+00 0.  1.
         21   -1    0    0  502  503 -0.00000000000E+00 -0.00000000000E+00 -0.96108020658E+03  0.96108020658E+03  0.00000000000E+00 0.  1.
         -6    2    1    2    0  503  0.62668528811E+02 -0.22847151824E+02 -0.86787886903E+03  0.88931091965E+03  0.18223842525E+03 0.  0.
        -24    2    3    3    0    0  0.70576124550E+02 -0.79941846079E+02 -0.54706443458E+03  0.56332575812E+03  0.81760174088E+02 0.  0.
          6    2    1    2  501    0 -0.62668528811E+02  0.22847151824E+02  0.20630208889E+02  0.18560083336E+03  0.17196722646E+03 0.  0.
         24    2    5    5    0    0 -0.39696699382E+02  0.42478335729E+02  0.74107642600E+02  0.12399714642E+03  0.80641879197E+02 0.  0.
          5    1    5    5  501    0 -0.22971829429E+02 -0.19631183905E+02 -0.53477433711E+02  0.61603686944E+02  0.47000000000E+01 0. -1.
        -15    1    6    6    0    0 -0.45015792295E+02  0.15310088894E+02  0.29830327332E+01  0.47674695502E+02  0.17770000000E+01 0.  1.
         16    1    6    6    0    0  0.53190929126E+01  0.27168246835E+02  0.71124609867E+02  0.76322450918E+02  0.00000000000E+00 0. -1.
         -5    1    3    3    0  503 -0.79075957386E+01  0.57094694254E+02 -0.32081443446E+03  0.32598516153E+03  0.47000000000E+01 0.  1.
         15    1    4    4    0    0  0.28488156064E+02  0.12552017570E+02 -0.95230713993E+02  0.10020566250E+03  0.17770000000E+01 0. -1.
        -16    1    4    4    0    0  0.42087968485E+02 -0.92493863648E+02 -0.45183372058E+03  0.46312009561E+03  0.00000000000E+00 0.  1.
<mgrwt>
<rscale>  2 0.19161345E+03</rscale>
<asrwt>0</asrwt>
<pdfrwt beam="1">  1       21 0.17512546E-01 0.19406231E+03</pdfrwt>
<pdfrwt beam="2">  1       21 0.14785849E+00 0.19406231E+03</pdfrwt>
<totfact> 0.91586244E+03</totfact>
</mgrwt>
</event>
<event>
12    2  0.4090627E-002  0.2510451E+03  0.7546771E-02  0.1112993E+00
         21   -1    0    0  503  502  0.00000000000E+00  0.00000000000E+00  0.80198584452E+03  0.80198584452E+03  0.00000000000E+00 0.  1.
         21   -1    0    0  501  503 -0.00000000000E+00 -0.00000000000E+00 -0.86146053883E+02  0.86146053883E+02  0.00000000000E+00 0.  1.
          6    2    1    2  501    0  0.17304948041E+03 -0.50574431737E+02  0.22194543784E+03  0.33508719240E+03  0.17469903641E+03 0.  0.
         24    2    3    3    0    0  0.18160991340E+03 -0.80281754629E+02  0.21369270248E+03  0.30274521214E+03  0.81010935136E+02 0.  0.
         -6    2    1    2    0  502 -0.17304948041E+03  0.50574431737E+02  0.49389435280E+03  0.55304470599E+03  0.17153110298E+03 0.  0.
        -24    2    5    5    0    0 -0.72064971288E+02 -0.16867738795E+02  0.34003221264E+03  0.35697847835E+03  0.79585474028E+02 0.  0.
          5    1    3    3  501    0 -0.85604329922E+01  0.29707322892E+02  0.82527353600E+01  0.32341980263E+02  0.47000000000E+01 0. -1.
        -15    1    4    4    0    0  0.10018194399E+03 -0.72496513583E+02  0.84326602847E+02  0.14968734102E+03  0.17770000000E+01 0.  1.
         16    1    4    4    0    0  0.81427969405E+02 -0.77852410453E+01  0.12936609963E+03  0.15305787112E+03  0.00000000000E+00 0. -1.
         -5    1    5    5    0  502 -0.10098450912E+03  0.67442170532E+02  0.15386214016E+03  0.19606622764E+03  0.47000000000E+01 0.  1.
         15    1    6    6    0    0  0.16720752246E+02  0.37365335636E+01  0.64611036549E+02  0.66867697820E+02  0.17770000000E+01 0. -1.
        -16    1    6    6    0    0 -0.88785723534E+02 -0.20604272359E+02  0.27542117609E+03  0.29011078053E+03  0.00000000000E+00 0.  1.
<mgrwt>
<rscale>  2 0.25049478E+03</rscale>
<asrwt>0</asrwt>
<pdfrwt beam="1">  1       21 0.12338243E+00 0.25104511E+03</pdfrwt>
<pdfrwt beam="2">  1       21 0.13253240E-01 0.25104511E+03</pdfrwt>
<totfact> 0.23409587E+04</totfact>
</mgrwt>
</event>
<event>
12    2  0.4090627E-002  0.3677528E+03  0.7546771E-02  0.1055580E+00
         21   -1    0    0  503  502  0.00000000000E+00  0.00000000000E+00  0.31024193919E+03  0.31024193919E+03  0.00000000000E+00 0. -1.
         21   -1    0    0  501  503 -0.00000000000E+00 -0.00000000000E+00 -0.48564833097E+03  0.48564833097E+03  0.00000000000E+00 0.  1.
          6    2    1    2  501    0  0.19984568616E+03  0.25587107823E+03 -0.21539681353E+03  0.42596950582E+03  0.17217992233E+03 0.  0.
         24    2    3    3    0    0  0.21673534462E+03  0.25518801286E+03 -0.18481497554E+03  0.39071236532E+03  0.80027780908E+02 0.  0.
         -6    2    1    2    0  502 -0.19984568616E+03 -0.25587107823E+03  0.39990421754E+02  0.36992076434E+03  0.17272472638E+03 0.  0.
        -24    2    5    5    0    0 -0.12688566734E+03 -0.16650212505E+03 -0.42328354895E+02  0.22811651501E+03  0.80140654904E+02 0.  0.
          5    1    3    3  501    0 -0.16889658454E+02  0.68306537327E+00 -0.30581837997E+02  0.35257140500E+02  0.47000000000E+01 0. -1.
        -15    1    4    4    0    0  0.23541225438E+02  0.79956086837E+02 -0.47425244318E+02  0.95913902251E+02  0.17770000000E+01 0.  1.
         16    1    4    4    0    0  0.19319411918E+03  0.17523192602E+03 -0.13738973122E+03  0.29479846307E+03  0.00000000000E+00 0. -1.
         -5    1    5    5    0  502 -0.72960018819E+02 -0.89368953188E+02  0.82318776649E+02  0.14180424933E+03  0.47000000000E+01 0.  1.
         15    1    6    6    0    0 -0.77897424396E+02 -0.14085253876E+03 -0.43366153016E+01  0.16102611703E+03  0.17770000000E+01 0. -1.
        -16    1    6    6    0    0 -0.48988242948E+02 -0.25649586281E+02 -0.37991739593E+02  0.67090397978E+02  0.00000000000E+00 0.  1.
<mgrwt>
<rscale>  2 0.36768891E+03</rscale>
<asrwt>0</asrwt>
<pdfrwt beam="1">  1       21 0.47729529E-01 0.36775282E+03</pdfrwt>
<pdfrwt beam="2">  1       21 0.74715128E-01 0.36775282E+03</pdfrwt>
<totfact> 0.61176440E+03</totfact>
</mgrwt>
</event>
<event>
12    2  0.4090627E-002  0.1894269E+03  0.7546771E-02  0.1159936E+00
         21   -1    0    0  503  502  0.00000000000E+00  0.00000000000E+00  0.10305259582E+04  0.10305259582E+04  0.00000000000E+00 0.  1.
         21   -1    0    0  501  503 -0.00000000000E+00 -0.00000000000E+00 -0.10386522492E+03  0.10386522492E+03  0.00000000000E+00 0.  1.
          6    2    1    2  501    0  0.56914758182E+02  0.47128508715E+02  0.32962358196E-01  0.18942691048E+03  0.17441951524E+03 0.  0.
         24    2    3    3    0    0  0.96281916577E+02  0.64619194016E+02  0.26630912594E+02  0.13858167286E+03  0.71062133741E+02 0.  0.
         -6    2    1    2    0  502 -0.56914758182E+02 -0.47128508715E+02  0.92662777096E+03  0.94496427268E+03  0.16987661611E+03 0.  0.
        -24    2    5    5    0    0 -0.10186048349E+03 -0.45868822152E+02  0.75894729369E+03  0.77129637844E+03  0.80109936022E+02 0.  0.
          5    1    3    3  501    0 -0.39367158396E+02 -0.17490685301E+02 -0.26597950236E+02  0.50845237625E+02  0.47000000000E+01 0. -1.
        -15    1    4    4    0    0  0.34385799743E+02  0.62316725189E+02  0.91357460616E-01  0.71196373064E+02  0.17770000000E+01 0.  1.
         16    1    4    4    0    0  0.61896116834E+02  0.23024688269E+01  0.26539555133E+02  0.67385299795E+02  0.00000000000E+00 0. -1.
         -5    1    5    5    0  502  0.44945725310E+02 -0.12596865630E+01  0.16768047727E+03  0.17366789424E+03  0.47000000000E+01 0.  1.
         15    1    6    6    0    0  0.11764177204E+02 -0.27182202166E+01  0.13982826155E+03  0.14035984128E+03  0.17770000000E+01 0. -1.
        -16    1    6    6    0    0 -0.11362466070E+03 -0.43150601935E+02  0.61911903214E+03  0.63093653716E+03  0.00000000000E+00 0.  1.
<mgrwt>
<rscale>  2 0.18837454E+03</rscale>
<asrwt>0</asrwt>
<pdfrwt beam="1">  1       21 0.15854245E+00 0.18942691E+03</pdfrwt>
<pdfrwt beam="2">  1       21 0.15979266E-01 0.18942691E+03</pdfrwt>
<totfact> 0.90394454E+03</totfact>
</mgrwt>
</event>
<event>
12    2  0.4090627E-002  0.2100260E+03  0.7546771E-02  0.1142202E+00
         21   -1    0    0  503  502  0.00000000000E+00  0.00000000000E+00  0.27124587410E+03  0.27124587410E+03  0.00000000000E+00 0. -1.
         21   -1    0    0  501  503 -0.00000000000E+00 -0.00000000000E+00 -0.51133961890E+03  0.51133961890E+03  0.00000000000E+00 0.  1.
          6    2    1    2  501    0  0.63700478187E+02 -0.96606107493E+02 -0.44405406288E+03  0.48982157346E+03  0.17132037865E+03 0.  0.
         24    2    3    3    0    0  0.44685064706E+02 -0.11094877111E+03 -0.22986351996E+03  0.27425957165E+03  0.89859278944E+02 0.  0.
         -6    2    1    2    0  502 -0.63700478187E+02  0.96606107493E+02  0.20396031807E+03  0.29276391954E+03  0.17527238890E+03 0.  0.
        -24    2    5    5    0    0 -0.67435975328E+01  0.12365658552E+03  0.13901690440E+03  0.20212423951E+03  0.78689778499E+02 0.  0.
          5    1    3    3  501    0  0.19015413481E+02  0.14342663618E+02 -0.21419054292E+03  0.21556200181E+03  0.47000000000E+01 0. -1.
        -15    1    4    4    0    0  0.11905442082E+02 -0.10163904472E+03 -0.21283544246E+03  0.23616587022E+03  0.17770000000E+01 0.  1.
         16    1    4    4    0    0  0.32779622623E+02 -0.93097263873E+01 -0.17028077506E+02  0.38093701425E+02  0.00000000000E+00 0. -1.
         -5    1    5    5    0  502 -0.56956880654E+02 -0.27050478028E+02  0.64943413674E+02  0.90639680025E+02  0.47000000000E+01 0.  1.
         15    1    6    6    0    0 -0.12588173462E+02  0.53323670758E+02  0.11530412258E+03  0.12767174467E+03  0.17770000000E+01 0. -1.
        -16    1    6    6    0    0  0.58445759287E+01  0.70332914762E+02  0.23712781817E+02  0.74452494842E+02  0.00000000000E+00 0.  1.
<mgrwt>
<rscale>  2 0.20919944E+03</rscale>
<asrwt>0</asrwt>
<pdfrwt beam="1">  1       21 0.41730135E-01 0.21002595E+03</pdfrwt>
<pdfrwt beam="2">  1       21 0.78667633E-01 0.21002595E+03</pdfrwt>
<totfact> 0.77994253E+03</totfact>
</mgrwt>
</event>
<event>
12    2  0.4090627E-002  0.1903845E+03  0.7546771E-02  0.1158482E+00
         21   -1    0    0  501  502  0.00000000000E+00  0.00000000000E+00  0.36900972629E+03  0.36900972629E+03  0.00000000000E+00 0. -1.
         21   -1    0    0  502  503 -0.00000000000E+00 -0.00000000000E+00 -0.16839259827E+03  0.16839259827E+03  0.00000000000E+00 0. -1.
         -6    2    1    2    0  503 -0.74063106922E+02  0.23694043514E+01 -0.73922774353E+02  0.20423234267E+03  0.17537193431E+03 0.  0.
        -24    2    3    3    0    0 -0.99416517569E+02 -0.20731799712E+02 -0.13145395517E+02  0.13428635752E+03  0.86871013053E+02 0.  0.
          6    2    1    2  501    0  0.74063106922E+02 -0.23694043514E+01  0.27453990238E+03  0.33316998188E+03  0.17360622381E+03 0.  0.
         24    2    5    5    0    0  0.55995107171E+02  0.43076691059E+02  0.26202730478E+03  0.28247032408E+03  0.78358931817E+02 0.  0.
          5    1    5    5  501    0  0.18067999751E+02 -0.45446095410E+02  0.12512597605E+02  0.50699657808E+02  0.47000000000E+01 0. -1.
        -15    1    6    6    0    0  0.40419607747E+02  0.44080577401E+02  0.80642264385E+02  0.10041501147E+03  0.17770000000E+01 0.  1.
         16    1    6    6    0    0  0.15575499423E+02 -0.10038863427E+01  0.18138504039E+03  0.18205531261E+03  0.00000000000E+00 0. -1.
         -5    1    3    3    0  503  0.25353410647E+02  0.23101204063E+02 -0.60777378836E+02  0.69945985151E+02  0.47000000000E+01 0.  1.
         15    1    4    4    0    0 -0.92901004194E+02  0.10375571056E+02  0.11319685011E+02  0.94178246176E+02  0.17770000000E+01 0. -1.
        -16    1    4    4    0    0 -0.65155133749E+01 -0.31107370768E+02 -0.24465080529E+02  0.40108111348E+02  0.00000000000E+00 0.  1.
<mgrwt>
<rscale>  2 0.18997693E+03</rscale>
<asrwt>0</asrwt>
<pdfrwt beam="1">  1       21 0.56770727E-01 0.19038454E+03</pdfrwt>
<pdfrwt beam="2">  1       21 0.25906554E-01 0.19038454E+03</pdfrwt>
<totfact> 0.41312887E+04</totfact>
</mgrwt>
</event>
<event>
12    2  0.4090627E-002  0.1942649E+03  0.7546771E-02  0.1154684E+00
         21   -1    0    0  503  502  0.00000000000E+00  0.00000000000E+00  0.10036201967E+04  0.10036201967E+04  0.00000000000E+00 0.  1.
         21   -1    0    0  501  503 -0.00000000000E+00 -0.00000000000E+00 -0.37605479042E+02  0.37605479042E+02  0.00000000000E+00 0.  1.
          6    2    1    2  501    0  0.63571469742E+00 -0.88371094433E+02  0.47248419821E+03  0.51083788473E+03  0.17292822920E+03 0.  0.
         24    2    3    3    0    0  0.65510818873E+02 -0.58601131967E+02  0.34074765095E+03  0.36093245557E+03  0.80234131148E+02 0.  0.
         -6    2    1    2    0  502 -0.63571469742E+00  0.88371094433E+02  0.49353051941E+03  0.53038779098E+03  0.17299994440E+03 0.  0.
        -24    2    5    5    0    0 -0.46718070311E+02  0.90690308914E+02  0.23923039490E+03  0.27189290596E+03  0.79292245779E+02 0.  0.
          5    1    3    3  501    0 -0.64875104176E+02 -0.29769962465E+02  0.13173654726E+03  0.14990542916E+03  0.47000000000E+01 0. -1.
        -15    1    4    4    0    0  0.25427932421E+02 -0.71528316220E+02  0.24032211055E+03  0.25203324050E+03  0.17770000000E+01 0.  1.
         16    1    4    4    0    0  0.40082886452E+02  0.12927184253E+02  0.10042554040E+03  0.10889921507E+03  0.00000000000E+00 0. -1.
         -5    1    5    5    0  502  0.46082355614E+02 -0.23192144809E+01  0.25430012451E+03  0.25849488502E+03  0.47000000000E+01 0.  1.
         15    1    6    6    0    0 -0.37106781134E+02  0.19138033211E+02  0.32561933096E+02  0.52977492742E+02  0.17770000000E+01 0. -1.
        -16    1    6    6    0    0 -0.96112891771E+01  0.71552275703E+02  0.20666846181E+03  0.21891541322E+03  0.00000000000E+00 0.  1.
<mgrwt>
<rscale>  2 0.19424889E+03</rscale>
<asrwt>0</asrwt>
<pdfrwt beam="1">  1       21 0.15440309E+00 0.19426486E+03</pdfrwt>
<pdfrwt beam="2">  1       21 0.57854591E-02 0.19426486E+03</pdfrwt>
<totfact> 0.58055645E+04</totfact>
</mgrwt>
</event>
<event>
12    2  0.4090627E-002  0.2205858E+03  0.7546771E-02  0.1134615E+00
         21   -1    0    0  503  502  0.00000000000E+00  0.00000000000E+00  0.46025247752E+03  0.46025247752E+03  0.00000000000E+00 0. -1.
         21   -1    0    0  501  503 -0.00000000000E+00 -0.00000000000E+00 -0.18739220002E+03  0.18739220002E+03  0.00000000000E+00 0. -1.
          6    2    1    2  501    0 -0.13768176348E+02 -0.13618919017E+03 -0.80095382872E+02  0.23467714423E+03  0.17297697381E+03 0.  0.
         24    2    3    3    0    0 -0.40480409204E+02 -0.15535301540E+03 -0.88533763349E+02  0.20041212057E+03  0.80954109798E+02 0.  0.
         -6    2    1    2    0  502  0.13768176348E+02  0.13618919017E+03  0.35295566037E+03  0.41296753331E+03  0.16500735492E+03 0.  0.
        -24    2    5    5    0    0 -0.54639986673E+02  0.85801981723E+02  0.16675218794E+03  0.20824242324E+03  0.72187993777E+02 0.  0.
          5    1    3    3  501    0  0.26712232857E+02  0.19163825235E+02  0.84383804776E+01  0.34265023667E+02  0.47000000000E+01 0. -1.
        -15    1    4    4    0    0  0.17358812494E+02 -0.78204008008E+02 -0.21448319672E+02  0.82948076442E+02  0.17770000000E+01 0.  1.
         16    1    4    4    0    0 -0.57839221698E+02 -0.77149007395E+02 -0.67085443678E+02  0.11746404412E+03  0.00000000000E+00 0. -1.
         -5    1    5    5    0  502  0.68408163021E+02  0.50387208445E+02  0.18620347244E+03  0.20472511006E+03  0.47000000000E+01 0.  1.
         15    1    6    6    0    0 -0.11005056059E+02  0.33321721786E+02  0.12118991001E+03  0.12618082429E+03  0.17770000000E+01 0. -1.
        -16    1    6    6    0    0 -0.43634930614E+02  0.52480259937E+02  0.45562277926E+02  0.82061598952E+02  0.00000000000E+00 0.  1.
<mgrwt>
<rscale>  2 0.21902110E+03</rscale>
<asrwt>0</asrwt>
<pdfrwt beam="1">  1       21 0.70808073E-01 0.22058579E+03</pdfrwt>
<pdfrwt beam="2">  1       21 0.28829569E-01 0.22058579E+03</pdfrwt>
<totfact> 0.20463781E+04</totfact>
</mgrwt>
</event>
<event>
12    2  0.4090627E-002  0.2106615E+03  0.7546771E-02  0.1141207E+00
         21   -1    0    0  501  502  0.00000000000E+00  0.00000000000E+00  0.18198330393E+03  0.18198330393E+03  0.00000000000E+00 0.  1.
         21   -1    0    0  502  503 -0.00000000000E+00 -0.00000000000E+00 -0.27327369109E+03  0.27327369109E+03  0.00000000000E+00 0.  1.
         -6    2    1    2    0  503  0.45289815186E+02 -0.10991113517E+03 -0.12145096342E+03  0.24244736272E+03  0.17291258538E+03 0.  0.
        -24    2    3    3    0    0  0.72501817038E+01 -0.24122695377E+02 -0.12212880360E+03  0.14848343568E+03  0.80606553308E+02 0.  0.
          6    2    1    2  501    0 -0.45289815186E+02  0.10991113517E+03  0.30160576258E+02  0.21280963231E+03  0.17391565268E+03 0.  0.
         24    2    5    5    0    0 -0.83537838736E+02  0.32161288116E+02  0.11424036796E+02  0.12403408424E+03  0.85094221211E+02 0.  0.
          5    1    5    5  501    0  0.38248023550E+02  0.77749847055E+02  0.18736539463E+02  0.88775548062E+02  0.47000000000E+01 0. -1.
        -15    1    6    6    0    0 -0.23961903196E+02  0.53087609258E+02 -0.58629887461E+01  0.58566196970E+02  0.17770000000E+01 0.  1.
         16    1    6    6    0    0 -0.59575935540E+02 -0.20926321142E+02  0.17287025542E+02  0.65467887274E+02  0.00000000000E+00 0. -1.
         -5    1    3    3    0  503  0.38039633482E+02 -0.85788439795E+02  0.67784018042E+00  0.93963927042E+02  0.47000000000E+01 0.  1.
         15    1    4    4    0    0 -0.35457812470E+02 -0.80227048108E+01 -0.72078541282E+02  0.80747099638E+02  0.17770000000E+01 0. -1.
        -16    1    4    4    0    0  0.42707994174E+02 -0.16099990566E+02 -0.50050262315E+02  0.67736336042E+02  0.00000000000E+00 0.  1.
<mgrwt>
<rscale>  2 0.21045439E+03</rscale>
<asrwt>0</asrwt>
<pdfrwt beam="1">  1       21 0.27997431E-01 0.21066153E+03</pdfrwt>
<pdfrwt beam="2">  1       21 0.42042106E-01 0.21066153E+03</pdfrwt>
<totfact> 0.65817877E+04</totfact>
</mgrwt>
</event>
<event>
12    2  0.4090627E-002  0.2073849E+03  0.7546771E-02  0.1143749E+00
         21   -1    0    0  503  502  0.00000000000E+00  0.00000000000E+00  0.98875135461E+03  0.98875135461E+03  0.00000000000E+00 0. -1.
         21   -1    0    0  501  503 -0.00000000000E+00 -0.00000000000E+00 -0.26382592400E+03  0.26382592400E+03  0.00000000000E+00 0. -1.
          6    2    1    2  501    0 -0.92740438367E+02 -0.65637663238E+02 -0.20993375857E+03  0.29509436571E+03  0.17349181520E+03 0.  0.
         24    2    3    3    0    0 -0.28520995179E+02 -0.76156046174E+02 -0.63326687121E+02  0.13462475281E+03  0.86604643256E+02 0.  0.
         -6    2    1    2    0  502  0.92740438367E+02  0.65637663238E+02  0.93485918917E+03  0.95748291290E+03  0.17292406766E+03 0.  0.
        -24    2    5    5    0    0  0.52114597923E+02  0.86671720891E+02  0.85892247399E+03  0.86870585952E+03  0.81695382588E+02 0.  0.
          5    1    3    3  501    0 -0.64219443188E+02  0.10518382936E+02 -0.14660707145E+03  0.16046961289E+03  0.47000000000E+01 0. -1.
        -15    1    4    4    0    0 -0.30198394361E+02  0.47280670486E+01  0.19390596675E+01  0.30679232738E+02  0.17770000000E+01 0.  1.
         16    1    4    4    0    0  0.16773991822E+01 -0.80884113223E+02 -0.65265746789E+02  0.10394552008E+03  0.00000000000E+00 0. -1.
         -5    1    5    5    0  502  0.40625840443E+02 -0.21034057653E+02  0.75936715188E+02  0.88777053379E+02  0.47000000000E+01 0.  1.
         15    1    6    6    0    0  0.26666325064E+02  0.53082220710E+02  0.20537054203E+03  0.21379670791E+03  0.17770000000E+01 0. -1.
        -16    1    6    6    0    0  0.25448272860E+02  0.33589500181E+02  0.65355193195E+03  0.65490915162E+03  0.00000000000E+00 0.  1.
<mgrwt>
<rscale>  2 0.20726613E+03</rscale>
<asrwt>0</asrwt>
<pdfrwt beam="1">  1       21 0.15211559E+00 0.20738491E+03</pdfrwt>
<pdfrwt beam="2">  1       21 0.40588604E-01 0.20738491E+03</pdfrwt>
<totfact> 0.16608050E+03</totfact>
</mgrwt>
</event>
<event>
12    2  0.4090627E-002  0.1976982E+03  0.7546771E-02  0.1152149E+00
         21   -1    0    0  503  502  0.00000000000E+00  0.00000000000E+00  0.43373802807E+02  0.43373802807E+02  0.00000000000E+00 0. -1.
         21   -1    0    0  501  503 -0.00000000000E+00 -0.00000000000E+00 -0.14719127186E+04  0.14719127186E+04  0.00000000000E+00 0. -1.
          6    2    1    2  501    0  0.93692785251E+02  0.14489865808E+02 -0.11876967140E+04  0.12036945810E+04  0.17108145902E+03 0.  0.
         24    2    3    3    0    0  0.21570859857E+02  0.41256907301E+01 -0.25355732435E+03  0.26670606582E+03  0.79740112209E+02 0.  0.
         -6    2    1    2    0  502 -0.93692785251E+02 -0.14489865808E+02 -0.24084220172E+03  0.31159194036E+03  0.17348278573E+03 0.  0.
        -24    2    5    5    0    0 -0.79070186141E+01  0.13550934353E+02 -0.40288506748E+02  0.91616126232E+02  0.80772532736E+02 0.  0.
          5    1    3    3  501    0  0.72121925394E+02  0.10364175077E+02 -0.93413938968E+03  0.93698851519E+03  0.47000000000E+01 0. -1.
        -15    1    4    4    0    0 -0.23766438019E+02  0.95845547230E+01 -0.16580581365E+03  0.16778388729E+03  0.17770000000E+01 0.  1.
         16    1    4    4    0    0  0.45337297876E+02 -0.54588639929E+01 -0.87751510691E+02  0.98922178521E+02  0.00000000000E+00 0. -1.
         -5    1    5    5    0  502 -0.85785766637E+02 -0.28040800161E+02 -0.20055369497E+03  0.21997581412E+03  0.47000000000E+01 0.  1.
         15    1    6    6    0    0 -0.43127297335E+02  0.53228147793E+01 -0.10451998635E+02  0.44729164278E+02  0.17770000000E+01 0. -1.
        -16    1    6    6    0    0  0.35220278721E+02  0.82281195737E+01 -0.29836508113E+02  0.46886961954E+02  0.00000000000E+00 0.  1.
<mgrwt>
<rscale>  2 0.19717012E+03</rscale>
<asrwt>0</asrwt>
<pdfrwt beam="1">  1       21 0.66728928E-02 0.19769818E+03</pdfrwt>
<pdfrwt beam="2">  1       21 0.22644811E+00 0.19769818E+03</pdfrwt>
<totfact> 0.15031076E+04</totfact>
</mgrwt>
</event>
