<event>
12    2  0.4097182E-002  0.1804368E+03  0.7546771E-02  0.1167460E+00
         21   -1    0    0  501  502  0.00000000000E+00  0.00000000000E+00  0.10110386810E+04  0.10110386810E+04  0.00000000000E+00 0.  1.
         21   -1    0    0  502  503 -0.00000000000E+00 -0.00000000000E+00 -0.33906770234E+02  0.33906770234E+02  0.00000000000E+00 0.  1.
         -6    2    1    2    0  503  0.25470591095E+02  0.45655542481E+02  0.36984968017E+03  0.41151698582E+03  0.17269702988E+03 0.  0.
        -24    2    3    3    0    0 -0.28006679779E+02 -0.81761221049E+00  0.94093539539E+02  0.12676602146E+03  0.80193437467E+02 0.  0.
          6    2    1    2  501    0 -0.25470591095E+02 -0.45655542481E+02  0.60728223064E+03  0.63342846545E+03  0.17235641453E+03 0.  0.
         24    2    5    5    0    0 -0.16161350841E+01 -0.67219775322E+00  0.12641238628E+03  0.14984762052E+03  0.80443484683E+02 0.  0.
          5    1    5    5  501    0 -0.23854456011E+02 -0.44983344728E+02  0.48086984436E+03  0.48358084493E+03  0.47000000000E+01 0. -1.
        -15    1    6    6    0    0  0.24047107149E+02 -0.28351950038E+02  0.90038591847E+02  0.97427933284E+02  0.17770000000E+01 0.  1.
         16    1    6    6    0    0 -0.25663242233E+02  0.27679752285E+02  0.36373794434E+02  0.52419687237E+02  0.00000000000E+00 0. -1.
         -5    1    3    3    0  503  0.53477270874E+02  0.46473154692E+02  0.27575614063E+03  0.28475096435E+03  0.47000000000E+01 0.  1.
         15    1    4    4    0    0  0.52969863072E+01  0.35303951648E+02  0.42222388028E+02  0.55320112488E+02  0.17770000000E+01 0. -1.
        -16    1    4    4    0    0 -0.33303666086E+02 -0.36121563858E+02  0.51871151511E+02  0.71445908976E+02  0.00000000000E+00 0.  1.
<mgrwt>
<rscale>  2 0.18035526E+03</rscale>
<asrwt>0</asrwt>
<pdfrwt beam="1">  1       21 0.15554439E+00 0.18043681E+03</pdfrwt>
<pdfrwt beam="2">  1       21 0.52164270E-02 0.18043681E+03</pdfrwt>
<totfact> 0.68412199E+04</totfact>
</mgrwt>
</event>
<event>
12    2  0.4097182E-002  0.2413600E+03  0.7546771E-02  0.1118933E+00
         21   -1    0    0  501  502  0.00000000000E+00  0.00000000000E+00  0.10300558964E+03  0.10300558964E+03  0.00000000000E+00 0. -1.
         21   -1    0    0  502  503 -0.00000000000E+00 -0.00000000000E+00 -0.71841717488E+03  0.71841717488E+03  0.00000000000E+00 0.  1.
         -6    2    1    2    0  503  0.85145901752E+02 -0.14468079027E+03 -0.49740512649E+03  0.55275911476E+03  0.17305612800E+03 0.  0.
        -24    2    3    3    0    0 -0.10732405530E+02 -0.22686729870E+02 -0.13531884034E+03  0.15880001892E+03  0.79223640522E+02 0.  0.
          6    2    1    2  501    0 -0.85145901752E+02  0.14468079027E+03 -0.11800645874E+03  0.26866364976E+03  0.17341360021E+03 0.  0.
         24    2    5    5    0    0 -0.11800120296E+03  0.12879387678E+03 -0.62345749802E+02  0.20193982075E+03  0.79878358072E+02 0.  0.
          5    1    5    5  501    0  0.32855301211E+02  0.15886913490E+02 -0.55660708942E+02  0.66723829011E+02  0.47000000000E+01 0. -1.
        -15    1    6    6    0    0 -0.49417536135E+02  0.55216205157E+02 -0.68822167870E+02  0.10114628371E+03  0.17770000000E+01 0.  1.
         16    1    6    6    0    0 -0.68583666829E+02  0.73577671620E+02  0.64764180671E+01  0.10079353703E+03  0.00000000000E+00 0. -1.
         -5    1    3    3    0  503  0.95878307282E+02 -0.12199406040E+03 -0.36208628615E+03  0.39395909584E+03  0.47000000000E+01 0.  1.
         15    1    4    4    0    0 -0.39298972160E+02 -0.44749248448E+01 -0.10879086179E+03  0.11577151422E+03  0.17770000000E+01 0. -1.
        -16    1    4    4    0    0  0.28566566630E+02 -0.18211805026E+02 -0.26527978545E+02  0.43028504703E+02  0.00000000000E+00 0.  1.
<mgrwt>
<rscale>  2 0.24129576E+03</rscale>
<asrwt>0</asrwt>
<pdfrwt beam="1">  1       21 0.15847014E-01 0.24135996E+03</pdfrwt>
<pdfrwt beam="2">  1       21 0.11052571E+00 0.24135996E+03</pdfrwt>
<totfact> 0.22281895E+04</totfact>
</mgrwt>
</event>
<event>
12    2  0.4097182E-002  0.1820451E+03  0.7546771E-02  0.1166117E+00
         21   -1    0    0  503  502  0.00000000000E+00  0.00000000000E+00  0.43960769243E+02  0.43960769243E+02  0.00000000000E+00 0. -1.
         21   -1    0    0  501  503 -0.00000000000E+00 -0.00000000000E+00 -0.16613150190E+04  0.16613150190E+04  0.00000000000E+00 0. -1.
          6    2    1    2  501    0  0.10923190232E+02  0.53594520767E+02 -0.14416722282E+04  0.14531205139E+04  0.17363388376E+03 0.  0.
         24    2    3    3    0    0  0.20371055878E+02 -0.33087395675E+02 -0.62126114918E+03  0.62807539671E+03  0.83687112540E+02 0.  0.
         -6    2    1    2    0  502 -0.10923190232E+02 -0.53594520767E+02 -0.17568202158E+03  0.25215527437E+03  0.17241351730E+03 0.  0.
        -24    2    5    5    0    0  0.43437757501E+02 -0.83503106729E+02 -0.11890703720E+03  0.16792270939E+03  0.72107872124E+02 0.  0.
          5    1    3    3  501    0 -0.94478656460E+01  0.86681916441E+02 -0.82041107901E+03  0.82504511717E+03  0.47000000000E+01 0. -1.
        -15    1    4    4    0    0  0.15876450404E+02  0.80784987468E+01 -0.27137838075E+02  0.32510672153E+02  0.17770000000E+01 0.  1.
         16    1    4    4    0    0  0.44946054740E+01 -0.41165894421E+02 -0.59412331110E+03  0.59556472456E+03  0.00000000000E+00 0. -1.
         -5    1    5    5    0  502 -0.54360947733E+02  0.29908585962E+02 -0.56774984372E+02  0.84232564980E+02  0.47000000000E+01 0.  1.
         15    1    6    6    0    0  0.20781571943E+02 -0.79545460913E+02 -0.52299998018E+02  0.97456665273E+02  0.17770000000E+01 0. -1.
        -16    1    6    6    0    0  0.22656185558E+02 -0.39576458153E+01 -0.66607039187E+02  0.70466044118E+02  0.00000000000E+00 0.  1.
<mgrwt>
<rscale>  2 0.18175349E+03</rscale>
<asrwt>0</asrwt>
<pdfrwt beam="1">  1       21 0.67631953E-02 0.18204509E+03</pdfrwt>
<pdfrwt beam="2">  1       21 0.25558693E+00 0.18204509E+03</pdfrwt>
<totfact> 0.10002312E+04</totfact>
</mgrwt>
</event>
<event>
12    2  0.4097182E-002  0.1821044E+03  0.7546771E-02  0.1166174E+00
         21   -1    0    0  503  502  0.00000000000E+00  0.00000000000E+00  0.59389998846E+03  0.59389998846E+03  0.00000000000E+00 0.  1.
         21   -1    0    0  501  503 -0.00000000000E+00 -0.00000000000E+00 -0.27759790340E+03  0.27759790340E+03  0.00000000000E+00 0.  1.
          6    2    1    2  501    0  0.35184767483E+02 -0.43689599709E+02 -0.23189704176E+03  0.29384377550E+03  0.17152602554E+03 0.  0.
         24    2    3    3    0    0  0.67432174409E+02 -0.78124723223E+02 -0.18610163242E+03  0.22792729425E+03  0.81648413009E+02 0.  0.
         -6    2    1    2    0  502 -0.35184767483E+02  0.43689599709E+02  0.54819912683E+03  0.57765411636E+03  0.17324908803E+03 0.  0.
        -24    2    5    5    0    0 -0.64291663019E+02  0.67977857810E+02  0.25849704463E+03  0.28544440181E+03  0.76833439026E+02 0.  0.
          5    1    3    3  501    0 -0.32247406926E+02  0.34435123513E+02 -0.45795409339E+02  0.65916481258E+02  0.47000000000E+01 0. -1.
        -15    1    4    4    0    0 -0.36281928421E+01  0.43124299149E+01 -0.64351321945E+02  0.64622064344E+02  0.17770000000E+01 0.  1.
         16    1    4    4    0    0  0.71060367251E+02 -0.82437153138E+02 -0.12175031048E+03  0.16330522990E+03  0.00000000000E+00 0. -1.
         -5    1    5    5    0  502  0.29106895537E+02 -0.24288258100E+02  0.28970208220E+03  0.29220971455E+03  0.47000000000E+01 0.  1.
         15    1    6    6    0    0 -0.42188073747E+01  0.48946652778E+01 -0.47136428549E+01  0.81934267440E+01  0.17770000000E+01 0. -1.
        -16    1    6    6    0    0 -0.60072855645E+02  0.63083192532E+02  0.26321068749E+03  0.27725097506E+03  0.00000000000E+00 0.  1.
<mgrwt>
<rscale>  2 0.18169334E+03</rscale>
<asrwt>0</asrwt>
<pdfrwt beam="1">  1       21 0.91369229E-01 0.18210435E+03</pdfrwt>
<pdfrwt beam="2">  1       21 0.42707370E-01 0.18210435E+03</pdfrwt>
<totfact> 0.53945632E+03</totfact>
</mgrwt>
</event>
<event>
12    2  0.4097182E-002  0.1828306E+03  0.7546771E-02  0.1165427E+00
         21   -1    0    0  503  502  0.00000000000E+00  0.00000000000E+00  0.11851316251E+03  0.11851316251E+03  0.00000000000E+00 0.  1.
         21   -1    0    0  501  503 -0.00000000000E+00 -0.00000000000E+00 -0.32883816814E+03  0.32883816814E+03  0.00000000000E+00 0.  1.
          6    2    1    2  501    0  0.38400899400E+02 -0.45302233666E+02 -0.19206938580E+02  0.18383671114E+03  0.17291647817E+03 0.  0.
         24    2    3    3    0    0  0.20226850005E+02 -0.89789755496E+02  0.16278265284E+02  0.12391404962E+03  0.81353451803E+02 0.  0.
         -6    2    1    2    0  502 -0.38400899400E+02  0.45302233666E+02 -0.19111806704E+03  0.26351461951E+03  0.17142612898E+03 0.  0.
        -24    2    5    5    0    0  0.11177292798E+02  0.31795540250E+02 -0.31792108782E+02  0.96041401102E+02  0.84126834546E+02 0.  0.
          5    1    3    3  501    0  0.18174049396E+02  0.44487521830E+02 -0.35485203864E+02  0.59922661517E+02  0.47000000000E+01 0. -1.
        -15    1    4    4    0    0  0.44492502483E+02 -0.45136116415E+02  0.31588869471E+02  0.70836898476E+02  0.17770000000E+01 0.  1.
         16    1    4    4    0    0 -0.24265652478E+02 -0.44653639081E+02 -0.15310604187E+02  0.53077151148E+02  0.00000000000E+00 0. -1.
         -5    1    5    5    0  502 -0.49578192199E+02  0.13506693416E+02 -0.15932595826E+03  0.16747321841E+03  0.47000000000E+01 0.  1.
         15    1    6    6    0    0  0.14252042417E+02  0.60281290979E+02 -0.22291415553E+02  0.65856052808E+02  0.17770000000E+01 0. -1.
        -16    1    6    6    0    0 -0.30747496186E+01 -0.28485750728E+02 -0.95006932295E+01  0.30185348294E+02  0.00000000000E+00 0.  1.
<mgrwt>
<rscale>  2 0.18247736E+03</rscale>
<asrwt>0</asrwt>
<pdfrwt beam="1">  1       21 0.18232794E-01 0.18283060E+03</pdfrwt>
<pdfrwt beam="2">  1       21 0.50590487E-01 0.18283060E+03</pdfrwt>
<totfact> 0.10231444E+05</totfact>
</mgrwt>
</event>
<event>
12    2  0.4097182E-002  0.2045731E+03  0.7546771E-02  0.1149918E+00
         21   -1    0    0  501  502  0.00000000000E+00  0.00000000000E+00  0.14075182248E+03  0.14075182248E+03  0.00000000000E+00 0.  1.
         21   -1    0    0  502  503 -0.00000000000E+00 -0.00000000000E+00 -0.29840528687E+03  0.29840528687E+03  0.00000000000E+00 0.  1.
         -6    2    1    2    0  503 -0.62548766185E+02  0.29228920919E+02 -0.14859063591E+03  0.25284248171E+03  0.19257067665E+03 0.  0.
        -24    2    3    3    0    0 -0.56618773493E+02  0.10187519708E+02  0.42067401638E+01  0.98677414621E+02  0.80062877938E+02 0.  0.
          6    2    1    2  501    0  0.62548766185E+02 -0.29228920919E+02 -0.90628284768E+01  0.18631462764E+03  0.17281298459E+03 0.  0.
         24    2    5    5    0    0 -0.58647626933E+01 -0.10885012923E+02  0.48306518242E+02  0.95044469110E+02  0.80913858245E+02 0.  0.
          5    1    5    5  501    0  0.68413528879E+02 -0.18343907996E+02 -0.57369346719E+02  0.91270158525E+02  0.47000000000E+01 0. -1.
        -15    1    6    6    0    0  0.32117844648E+02 -0.24762385990E+02  0.17486715841E+02  0.44200392132E+02  0.17770000000E+01 0.  1.
         16    1    6    6    0    0 -0.37982607341E+02  0.13877373068E+02  0.30819802401E+02  0.50844076978E+02  0.00000000000E+00 0. -1.
         -5    1    3    3    0  503 -0.59299926927E+01  0.19041401211E+02 -0.15279737608E+03  0.15416506709E+03  0.47000000000E+01 0.  1.
         15    1    4    4    0    0 -0.25407104548E+02 -0.35229815361E+02  0.24619332166E+01  0.43541700657E+02  0.17770000000E+01 0. -1.
        -16    1    4    4    0    0 -0.31211668944E+02  0.45417335069E+02  0.17448069472E+01  0.55135713964E+02  0.00000000000E+00 0.  1.
<mgrwt>
<rscale>  2 0.19978804E+03</rscale>
<asrwt>0</asrwt>
<pdfrwt beam="1">  1       21 0.21654126E-01 0.20457308E+03</pdfrwt>
<pdfrwt beam="2">  1       21 0.45908506E-01 0.20457308E+03</pdfrwt>
<totfact> 0.89998503E+04</totfact>
</mgrwt>
</event>
<event>
12    2  0.4097182E-002  0.2288240E+03  0.7546771E-02  0.1127505E+00
         21   -1    0    0  501  502  0.00000000000E+00  0.00000000000E+00  0.64714077942E+02  0.64714077942E+02  0.00000000000E+00 0.  1.
         21   -1    0    0  502  503 -0.00000000000E+00 -0.00000000000E+00 -0.12981182774E+04  0.12981182774E+04  0.00000000000E+00 0.  1.
         -6    2    1    2    0  503 -0.98304663683E+02  0.11199821623E+03 -0.10350633322E+04  0.10600130958E+04  0.17339046737E+03 0.  0.
        -24    2    3    3    0    0  0.56749478124E+01  0.25071653121E+02 -0.26060359113E+03  0.27377015142E+03  0.79844043465E+02 0.  0.
          6    2    1    2  501    0  0.98304663683E+02 -0.11199821623E+03 -0.19834086719E+03  0.30281925952E+03  0.17364618337E+03 0.  0.
         24    2    5    5    0    0  0.12522720299E+03 -0.11860540036E+03 -0.13363888348E+03  0.23227200797E+03  0.79635677593E+02 0.  0.
          5    1    5    5  501    0 -0.26922539305E+02  0.66071841332E+01 -0.64701983715E+02  0.70547251551E+02  0.47000000000E+01 0. -1.
        -15    1    6    6    0    0  0.54109843425E+02 -0.56341984217E+02 -0.13318806270E+02  0.79264384628E+02  0.17770000000E+01 0.  1.
         16    1    6    6    0    0  0.71117359562E+02 -0.62263416143E+02 -0.12032007721E+03  0.15300762334E+03  0.00000000000E+00 0. -1.
         -5    1    3    3    0  503 -0.10397961150E+03  0.86926563106E+02 -0.77445974111E+03  0.78624294438E+03  0.47000000000E+01 0.  1.
         15    1    4    4    0    0  0.33312370909E+02 -0.67547080159E+01 -0.17584551649E+03  0.17910930611E+03  0.17770000000E+01 0. -1.
        -16    1    4    4    0    0 -0.27637423097E+02  0.31826361137E+02 -0.84758074632E+02  0.94660845305E+02  0.00000000000E+00 0.  1.
<mgrwt>
<rscale>  2 0.22877545E+03</rscale>
<asrwt>0</asrwt>
<pdfrwt beam="1">  1       21 0.99560119E-02 0.22882396E+03</pdfrwt>
<pdfrwt beam="2">  1       21 0.19971051E+00 0.22882396E+03</pdfrwt>
<totfact> 0.10717747E+04</totfact>
</mgrwt>
</event>
<event>
12    2  0.4097182E-002  0.1891621E+03  0.7546771E-02  0.1159362E+00
         21   -1    0    0  503  502  0.00000000000E+00  0.00000000000E+00  0.25934160137E+03  0.25934160137E+03  0.00000000000E+00 0.  1.
         21   -1    0    0  501  503 -0.00000000000E+00 -0.00000000000E+00 -0.33078550475E+03  0.33078550475E+03  0.00000000000E+00 0.  1.
          6    2    1    2  501    0  0.21831308157E+02 -0.70902755059E+02 -0.26128647514E+03  0.32257236959E+03  0.17400719766E+03 0.  0.
         24    2    3    3    0    0  0.23062086790E+02 -0.11601983174E+03 -0.20519060041E+03  0.25042042862E+03  0.81331097179E+02 0.  0.
         -6    2    1    2    0  502 -0.21831308157E+02  0.70902755059E+02  0.18984257176E+03  0.26755473654E+03  0.17332492117E+03 0.  0.
        -24    2    5    5    0    0  0.12161848338E+02 -0.13654248886E+02  0.53362659591E+02  0.10337715576E+03  0.86630905722E+02 0.  0.
          5    1    3    3  501    0 -0.12307786334E+01  0.45117076678E+02 -0.56095874730E+02  0.72151940970E+02  0.47000000000E+01 0. -1.
        -15    1    4    4    0    0  0.52013000155E+02 -0.87731287556E+02 -0.16002018933E+03  0.18976762033E+03  0.17770000000E+01 0.  1.
         16    1    4    4    0    0 -0.28950913365E+02 -0.28288544181E+02 -0.45170411077E+02  0.60652808290E+02  0.00000000000E+00 0. -1.
         -5    1    5    5    0  502 -0.33993156495E+02  0.84557003946E+02  0.13647991217E+03  0.16417758078E+03  0.47000000000E+01 0.  1.
         15    1    6    6    0    0 -0.36801089267E+02  0.27385585292E+00  0.29280625540E+02  0.47062808344E+02  0.17770000000E+01 0. -1.
        -16    1    6    6    0    0  0.48962937605E+02 -0.13928104739E+02  0.24082034051E+02  0.56314347413E+02  0.00000000000E+00 0.  1.
<mgrwt>
<rscale>  2 0.18900508E+03</rscale>
<asrwt>0</asrwt>
<pdfrwt beam="1">  1       21 0.39898708E-01 0.18916213E+03</pdfrwt>
<pdfrwt beam="2">  1       21 0.50890078E-01 0.18916213E+03</pdfrwt>
<totfact> 0.22280743E+04</totfact>
</mgrwt>
</event>
<event>
12    2  0.4097182E-002  0.1950852E+03  0.7546771E-02  0.1155195E+00
         21   -1    0    0  503  502  0.00000000000E+00  0.00000000000E+00  0.72330118031E+02  0.72330118031E+02  0.00000000000E+00 0. -1.
         21   -1    0    0  501  503 -0.00000000000E+00 -0.00000000000E+00 -0.72443609973E+03  0.72443609973E+03  0.00000000000E+00 0. -1.
          6    2    1    2  501    0 -0.77539611956E+02 -0.14970187779E+02 -0.54555592031E+03  0.57938717317E+03  0.17838648015E+03 0.  0.
         24    2    3    3    0    0 -0.11316757480E+03  0.64517531819E+00 -0.50353774202E+03  0.52193450910E+03  0.77833526949E+02 0.  0.
         -6    2    1    2    0  502  0.77539611956E+02  0.14970187779E+02 -0.10655006139E+03  0.21737904459E+03  0.17223308481E+03 0.  0.
        -24    2    5    5    0    0  0.10371464741E+01 -0.41285498074E+02 -0.58830524976E+02  0.11099965951E+03  0.84583247265E+02 0.  0.
          5    1    3    3  501    0  0.35627962845E+02 -0.15615363097E+02 -0.42018178294E+02  0.57452664066E+02  0.47000000000E+01 0. -1.
        -15    1    4    4    0    0 -0.37773440073E+02  0.33852666113E+02 -0.13314979900E+03  0.14249513142E+03  0.17770000000E+01 0.  1.
         16    1    4    4    0    0 -0.75394134728E+02 -0.33207490795E+02 -0.37038794302E+03  0.37943937768E+03  0.00000000000E+00 0. -1.
         -5    1    5    5    0  502  0.76502465482E+02  0.56255685853E+02 -0.47719536410E+02  0.10637938508E+03  0.47000000000E+01 0.  1.
         15    1    6    6    0    0  0.33030045588E+02 -0.10358792258E+02  0.30340947741E+01  0.34794424103E+02  0.17770000000E+01 0. -1.
        -16    1    6    6    0    0 -0.31992899114E+02 -0.30926705815E+02 -0.61864619750E+02  0.76205235405E+02  0.00000000000E+00 0.  1.
<mgrwt>
<rscale>  2 0.19366724E+03</rscale>
<asrwt>0</asrwt>
<pdfrwt beam="1">  1       21 0.11127710E-01 0.19508520E+03</pdfrwt>
<pdfrwt beam="2">  1       21 0.11145171E+00 0.19508520E+03</pdfrwt>
<totfact> 0.42424153E+04</totfact>
</mgrwt>
</event>
<event>
12    2  0.4097182E-002  0.2182962E+03  0.7546771E-02  0.1136681E+00
         21   -1    0    0  501  502  0.00000000000E+00  0.00000000000E+00  0.73156577629E+03  0.73156577629E+03  0.00000000000E+00 0.  1.
         21   -1    0    0  502  503 -0.00000000000E+00 -0.00000000000E+00 -0.65580650626E+02  0.65580650626E+02  0.00000000000E+00 0. -1.
         -6    2    1    2    0  503  0.10118086623E+02  0.12070167744E+03  0.24497856604E+03  0.32291045299E+03  0.17200404711E+03 0.  0.
        -24    2    3    3    0    0  0.41628624573E+02  0.13656437034E+03  0.15303288568E+03  0.22431716131E+03  0.80723943970E+02 0.  0.
          6    2    1    2  501    0 -0.10118086623E+02 -0.12070167744E+03  0.42100655963E+03  0.47423597393E+03  0.18160937503E+03 0.  0.
         24    2    5    5    0    0  0.30675051872E+02 -0.51077334568E+02  0.35864258269E+03  0.37214295316E+03  0.79473407866E+02 0.  0.
          5    1    5    5  501    0 -0.40793138495E+02 -0.69624342872E+02  0.62363976946E+02  0.10209302077E+03  0.47000000000E+01 0. -1.
        -15    1    6    6    0    0 -0.96814034703E+01 -0.35307829182E+02  0.27970049479E+03  0.28209200076E+03  0.17770000000E+01 0.  1.
         16    1    6    6    0    0  0.40356455343E+02 -0.15769505387E+02  0.78942087891E+02  0.90050952402E+02  0.00000000000E+00 0. -1.
         -5    1    3    3    0  503 -0.31510537950E+02 -0.15862692899E+02  0.91945680357E+02  0.98593291680E+02  0.47000000000E+01 0.  1.
         15    1    4    4    0    0  0.65368189453E+02  0.10910208119E+03  0.11143190409E+03  0.16910497122E+03  0.17770000000E+01 0. -1.
        -16    1    4    4    0    0 -0.23739564879E+02  0.27462289148E+02  0.41600981585E+02  0.55212190092E+02  0.00000000000E+00 0.  1.
<mgrwt>
<rscale>  2 0.21628778E+03</rscale>
<asrwt>0</asrwt>
<pdfrwt beam="1">  1       21 0.11254858E+00 0.21829621E+03</pdfrwt>
<pdfrwt beam="2">  1       21 0.10089331E-01 0.21829621E+03</pdfrwt>
<totfact> 0.48705467E+04</totfact>
</mgrwt>
</event>
<event>
12    2  0.4097182E-002  0.1796743E+03  0.7546771E-02  0.1168266E+00
         21   -1    0    0  503  502  0.00000000000E+00  0.00000000000E+00  0.92019368269E+03  0.92019368269E+03  0.00000000000E+00 0.  1.
         21   -1    0    0  501  503 -0.00000000000E+00 -0.00000000000E+00 -0.62835154061E+02  0.62835154061E+02  0.00000000000E+00 0.  1.
          6    2    1    2  501    0 -0.27826399578E+01 -0.47189275461E+02  0.10093173146E+03  0.20555577913E+03  0.17271766880E+03 0.  0.
         24    2    3    3    0    0  0.28910659874E+02 -0.78997494057E+02  0.27918808293E+02  0.11971170552E+03  0.80467398742E+02 0.  0.
         -6    2    1    2    0  502  0.27826399578E+01  0.47189275461E+02  0.75642679717E+03  0.77747305762E+03  0.17334441164E+03 0.  0.
        -24    2    5    5    0    0  0.27202070170E+02 -0.37463928886E+02  0.35153528522E+03  0.36307988680E+03  0.78143770394E+02 0.  0.
          5    1    3    3  501    0 -0.31693299832E+02  0.31808218596E+02  0.73012923167E+02  0.85844073610E+02  0.47000000000E+01 0. -1.
        -15    1    4    4    0    0  0.49084583991E+02 -0.61936829686E+02  0.42274925493E+02  0.89642592062E+02  0.17770000000E+01 0.  1.
         16    1    4    4    0    0 -0.20173924117E+02 -0.17060664372E+02 -0.14356117201E+02  0.30069113458E+02  0.00000000000E+00 0. -1.
         -5    1    5    5    0  502 -0.24419430212E+02  0.84653204347E+02  0.40489151194E+03  0.41439317082E+03  0.47000000000E+01 0.  1.
         15    1    6    6    0    0  0.53360779422E+02 -0.33354286426E+02  0.27431045853E+03  0.28144140881E+03  0.17770000000E+01 0. -1.
        -16    1    6    6    0    0 -0.26158709252E+02 -0.41096424598E+01  0.77224826693E+02  0.81638477990E+02  0.00000000000E+00 0.  1.
<mgrwt>
<rscale>  2 0.17952297E+03</rscale>
<asrwt>0</asrwt>
<pdfrwt beam="1">  1       21 0.14156825E+00 0.17967430E+03</pdfrwt>
<pdfrwt beam="2">  1       21 0.96669475E-02 0.17967430E+03</pdfrwt>
<totfact> 0.30187683E+04</totfact>
</mgrwt>
</event>
<event>
12    2  0.4097182E-002  0.3259098E+03  0.7546771E-02  0.1073011E+00
         21   -1    0    0  501  502  0.00000000000E+00  0.00000000000E+00  0.16205165895E+03  0.16205165895E+03  0.00000000000E+00 0. -1.
         21   -1    0    0  502  503 -0.00000000000E+00 -0.00000000000E+00 -0.86780167154E+03  0.86780167154E+03  0.00000000000E+00 0. -1.
         -6    2    1    2    0  503 -0.27459587586E+03  0.20528208430E+02 -0.60794282197E+03  0.68958366074E+03  0.17351325020E+03 0.  0.
        -24    2    3    3    0    0 -0.24502398369E+03  0.13329649510E+02 -0.60587323508E+03  0.65871799621E+03  0.81317829573E+02 0.  0.
          6    2    1    2  501    0  0.27459587586E+03 -0.20528208430E+02 -0.97807190623E+02  0.34026966975E+03  0.17433559371E+03 0.  0.
         24    2    5    5    0    0  0.21404465272E+03 -0.16758068389E+01 -0.13611878060E+03  0.26602863261E+03  0.80156030666E+02 0.  0.
          5    1    5    5  501    0  0.60551223137E+02 -0.18852401592E+02  0.38311589973E+02  0.74241037139E+02  0.47000000000E+01 0. -1.
        -15    1    6    6    0    0  0.35451824924E+02  0.30636601540E+02 -0.23680885541E+02  0.52529756457E+02  0.17770000000E+01 0.  1.
         16    1    6    6    0    0  0.17859282780E+03 -0.32312408379E+02 -0.11243789505E+03  0.21349887616E+03  0.00000000000E+00 0. -1.
         -5    1    3    3    0  503 -0.29571892169E+02  0.71985589205E+01 -0.20695868897E+01  0.30865664530E+02  0.47000000000E+01 0.  1.
         15    1    4    4    0    0 -0.16362812396E+03  0.21151795766E+02 -0.48893967730E+03  0.51602977354E+03  0.17770000000E+01 0. -1.
        -16    1    4    4    0    0 -0.81395859732E+02 -0.78221462562E+01 -0.11693355778E+03  0.14268822267E+03  0.00000000000E+00 0.  1.
<mgrwt>
<rscale>  2 0.32579996E+03</rscale>
<asrwt>0</asrwt>
<pdfrwt beam="1">  1       21 0.24931025E-01 0.32590981E+03</pdfrwt>
<pdfrwt beam="2">  1       21 0.13350795E+00 0.32590981E+03</pdfrwt>
<totfact> 0.56619987E+03</totfact>
</mgrwt>
</event>
<event>
12    2  0.4097182E-002  0.3151912E+03  0.7546771E-02  0.1078028E+00
         21   -1    0    0  503  502  0.00000000000E+00  0.00000000000E+00  0.25212852409E+03  0.25212852409E+03  0.00000000000E+00 0.  1.
         21   -1    0    0  501  503 -0.00000000000E+00 -0.00000000000E+00 -0.41719902316E+03  0.41719902316E+03  0.00000000000E+00 0. -1.
          6    2    1    2  501    0 -0.26414089550E+03  0.74260671090E+01 -0.16382263473E+03  0.35413389116E+03  0.16955057673E+03 0.  0.
         24    2    3    3    0    0 -0.23787122014E+03 -0.31986511090E+02 -0.17205789824E+03  0.30582905984E+03  0.79508736847E+02 0.  0.
         -6    2    1    2    0  502  0.26414089550E+03 -0.74260671090E+01 -0.12478643403E+01  0.31519365609E+03  0.17181363312E+03 0.  0.
        -24    2    5    5    0    0  0.15355824573E+03  0.60579471926E+02 -0.16915968481E+02  0.18434697001E+03  0.80297248476E+02 0.  0.
          5    1    3    3  501    0 -0.26269675361E+02  0.39412578199E+02  0.82352635037E+01  0.48304831320E+02  0.47000000000E+01 0. -1.
        -15    1    4    4    0    0 -0.92698568665E+02  0.26153551397E+02 -0.60974442545E+02  0.11400909287E+03  0.17770000000E+01 0.  1.
         16    1    4    4    0    0 -0.14517265147E+03 -0.58140062487E+02 -0.11108345569E+03  0.19181996698E+03  0.00000000000E+00 0. -1.
         -5    1    5    5    0  502  0.11058264977E+03 -0.68005539035E+02  0.15668104140E+02  0.13084668608E+03  0.47000000000E+01 0.  1.
         15    1    6    6    0    0  0.99902720686E+02 -0.54317169742E+00  0.52205671918E+01  0.10005628759E+03  0.17770000000E+01 0. -1.
        -16    1    6    6    0    0  0.53655525041E+02  0.61122643623E+02 -0.22136535673E+02  0.84290682418E+02  0.00000000000E+00 0.  1.
<mgrwt>
<rscale>  2 0.31488377E+03</rscale>
<asrwt>0</asrwt>
<pdfrwt beam="1">  1       21 0.38789004E-01 0.31519119E+03</pdfrwt>
<pdfrwt beam="2">  1       21 0.64184465E-01 0.31519119E+03</pdfrwt>
<totfact> 0.13472664E+04</totfact>
</mgrwt>
</event>
<event>
12    2  0.4097182E-002  0.2257441E+03  0.7546771E-02  0.1129850E+00
         21   -1    0    0  501  502  0.00000000000E+00  0.00000000000E+00  0.14518545074E+03  0.14518545074E+03  0.00000000000E+00 0.  1.
         21   -1    0    0  502  503 -0.00000000000E+00 -0.00000000000E+00 -0.44570544693E+03  0.44570544693E+03  0.00000000000E+00 0. -1.
         -6    2    1    2    0  503  0.84562928458E+02 -0.11734251490E+03 -0.28728666609E+03  0.36475920858E+03  0.17203341843E+03 0.  0.
        -24    2    3    3    0    0  0.19306330600E+02 -0.12805088736E+03 -0.23539645087E+03  0.28057027082E+03  0.80860519616E+02 0.  0.
          6    2    1    2  501    0 -0.84562928458E+02  0.11734251490E+03 -0.13233330100E+02  0.22613168909E+03  0.17332127715E+03 0.  0.
         24    2    5    5    0    0 -0.62681905672E+01  0.33918321401E+02  0.44611059601E+02  0.97844022252E+02  0.79959760580E+02 0.  0.
          5    1    5    5  501    0 -0.78294737891E+02  0.83424193499E+02 -0.57844389701E+02  0.12828766684E+03  0.47000000000E+01 0. -1.
        -15    1    6    6    0    0  0.70185699511E+01 -0.14811584056E+02  0.44370772408E+02  0.47334622841E+02  0.17770000000E+01 0.  1.
         16    1    6    6    0    0 -0.13286760518E+02  0.48729905457E+02  0.24028719288E+00  0.50509399411E+02  0.00000000000E+00 0. -1.
         -5    1    3    3    0  503  0.65256597858E+02  0.10708372458E+02 -0.51890215221E+02  0.84188937755E+02  0.47000000000E+01 0.  1.
         15    1    4    4    0    0 -0.17145949688E+01  0.11132022888E+02 -0.24364459208E+02  0.26900676032E+02  0.17770000000E+01 0. -1.
        -16    1    4    4    0    0  0.21020925569E+02 -0.13918291025E+03 -0.21103199166E+03  0.25366959479E+03  0.00000000000E+00 0.  1.
<mgrwt>
<rscale>  2 0.22549692E+03</rscale>
<asrwt>0</asrwt>
<pdfrwt beam="1">  1       21 0.22336223E-01 0.22574415E+03</pdfrwt>
<pdfrwt beam="2">  1       21 0.68570069E-01 0.22574415E+03</pdfrwt>
<totfact> 0.35761808E+04</totfact>
</mgrwt>
</event>
<event>
12    2  0.4097182E-002  0.2480531E+03  0.7546771E-02  0.1116017E+00
         21   -1    0    0  503  502  0.00000000000E+00  0.00000000000E+00  0.12254193192E+04  0.12254193192E+04  0.00000000000E+00 0.  1.
         21   -1    0    0  501  503 -0.00000000000E+00 -0.00000000000E+00 -0.48686824860E+02  0.48686824860E+02  0.00000000000E+00 0. -1.
          6    2    1    2  501    0  0.10682136491E+03 -0.14241878838E+03  0.54981227233E+03  0.60317815846E+03  0.17273228059E+03 0.  0.
         24    2    3    3    0    0  0.11930279786E+03 -0.16274210615E+03  0.44004649391E+03  0.49075289650E+03  0.80494334806E+02 0.  0.
         -6    2    1    2    0  502 -0.10682136491E+03  0.14241878838E+03  0.62692022203E+03  0.67092798562E+03  0.15944115470E+03 0.  0.
        -24    2    5    5    0    0 -0.10974859248E+03  0.12850950676E+03  0.38914273403E+03  0.43267966857E+03  0.84971649771E+02 0.  0.
          5    1    3    3  501    0 -0.12481432952E+02  0.20323317768E+02  0.10976577842E+03  0.11242526196E+03  0.47000000000E+01 0. -1.
        -15    1    4    4    0    0  0.82446086423E+02 -0.14193360731E+03  0.27410186547E+03  0.31949569079E+03  0.17770000000E+01 0.  1.
         16    1    4    4    0    0  0.36856711436E+02 -0.20808498841E+02  0.16594462844E+03  0.17125720571E+03  0.00000000000E+00 0. -1.
         -5    1    5    5    0  502  0.29272275776E+01  0.13909281617E+02  0.23777748800E+03  0.23824831705E+03  0.47000000000E+01 0.  1.
         15    1    6    6    0    0 -0.14492507334E+02  0.72641332025E+02  0.11142253839E+03  0.13380932582E+03  0.17770000000E+01 0. -1.
        -16    1    6    6    0    0 -0.95256085151E+02  0.55868174738E+02  0.27772019564E+03  0.29887034274E+03  0.00000000000E+00 0.  1.
<mgrwt>
<rscale>  2 0.24575518E+03</rscale>
<asrwt>0</asrwt>
<pdfrwt beam="1">  1       21 0.18852603E+00 0.24805313E+03</pdfrwt>
<pdfrwt beam="2">  1       21 0.74902817E-02 0.24805313E+03</pdfrwt>
<totfact> 0.20682548E+04</totfact>
</mgrwt>
</event>
<event>
12    2  0.4097182E-002  0.2224822E+03  0.7546771E-02  0.1132109E+00
         21   -1    0    0  503  502  0.00000000000E+00  0.00000000000E+00  0.63550562667E+03  0.63550562667E+03  0.00000000000E+00 0.  1.
         21   -1    0    0  501  503 -0.00000000000E+00 -0.00000000000E+00 -0.13921751011E+03  0.13921751011E+03  0.00000000000E+00 0.  1.
          6    2    1    2  501    0  0.89688101179E+02  0.10724093548E+03 -0.91016218164E+01  0.22266832842E+03  0.17307157833E+03 0.  0.
         24    2    3    3    0    0  0.24044436195E+02  0.11983231350E+03 -0.36634931453E+02  0.15022658153E+03  0.79296843108E+02 0.  0.
         -6    2    1    2    0  502 -0.89688101179E+02 -0.10724093548E+03  0.50538973838E+03  0.55205480835E+03  0.17263009595E+03 0.  0.
        -24    2    5    5    0    0 -0.12392324798E+03 -0.51216661678E+02  0.38138001878E+03  0.41165799540E+03  0.77662530389E+02 0.  0.
          5    1    3    3  501    0  0.65643664984E+02 -0.12591378014E+02  0.27533309637E+02  0.72441746889E+02  0.47000000000E+01 0. -1.
        -15    1    4    4    0    0 -0.90511321871E+01  0.93072704551E+02  0.81976579992E+00  0.93532246158E+02  0.17770000000E+01 0.  1.
         16    1    4    4    0    0  0.33095568382E+02  0.26759608947E+02 -0.37454697253E+02  0.56694335377E+02  0.00000000000E+00 0. -1.
         -5    1    5    5    0  502  0.34235146804E+02 -0.56024273806E+02  0.12400971960E+03  0.14039681295E+03  0.47000000000E+01 0.  1.
         15    1    6    6    0    0 -0.33747528949E+02  0.55012838209E+01  0.18597732777E+03  0.18910283976E+03  0.17770000000E+01 0. -1.
        -16    1    6    6    0    0 -0.90175719034E+02 -0.56717945499E+02  0.19540269101E+03  0.22255515564E+03  0.00000000000E+00 0.  1.
<mgrwt>
<rscale>  2 0.22239637E+03</rscale>
<asrwt>0</asrwt>
<pdfrwt beam="1">  1       21 0.97770095E-01 0.22248224E+03</pdfrwt>
<pdfrwt beam="2">  1       21 0.21418079E-01 0.22248224E+03</pdfrwt>
<totfact> 0.17260019E+04</totfact>
</mgrwt>
</event>
<event>
12    2  0.4097182E-002  0.2352886E+03  0.7546771E-02  0.1123110E+00
         21   -1    0    0  501  502  0.00000000000E+00  0.00000000000E+00  0.21293745726E+03  0.21293745726E+03  0.00000000000E+00 0.  1.
         21   -1    0    0  502  503 -0.00000000000E+00 -0.00000000000E+00 -0.34825775263E+03  0.34825775263E+03  0.00000000000E+00 0.  1.
         -6    2    1    2    0  503  0.93714467036E+02 -0.13014368373E+03 -0.20972714655E+03  0.31519230429E+03  0.17216542318E+03 0.  0.
        -24    2    3    3    0    0  0.33677699673E+02 -0.12070510936E+03 -0.74832204549E+02  0.16716448428E+03  0.81487392183E+02 0.  0.
          6    2    1    2  501    0 -0.93714467036E+02  0.13014368373E+03  0.74406851185E+02  0.24600290560E+03  0.17105925966E+03 0.  0.
         24    2    5    5    0    0 -0.67803656243E+02  0.89264908221E+02 -0.18868011108E+02  0.14081386464E+03  0.83108260667E+02 0.  0.
          5    1    5    5  501    0 -0.25910810793E+02  0.40878775506E+02  0.93274862292E+02  0.10518904096E+03  0.47000000000E+01 0. -1.
        -15    1    6    6    0    0 -0.18535749794E+02  0.18151836488E+02  0.31390322016E+02  0.40762399752E+02  0.17770000000E+01 0.  1.
         16    1    6    6    0    0 -0.49267906449E+02  0.71113071733E+02 -0.50258333124E+02  0.10005146488E+03  0.00000000000E+00 0. -1.
         -5    1    3    3    0  503  0.60036767363E+02 -0.94385743671E+01 -0.13489494200E+03  0.14802782002E+03  0.47000000000E+01 0.  1.
         15    1    4    4    0    0  0.44989275274E+02 -0.10587245561E+03 -0.30432567729E+02  0.11900550682E+03  0.17770000000E+01 0. -1.
        -16    1    4    4    0    0 -0.11311575601E+02 -0.14832653753E+02 -0.44399636820E+02  0.48158977457E+02  0.00000000000E+00 0.  1.
<mgrwt>
<rscale>  2 0.23508626E+03</rscale>
<asrwt>0</asrwt>
<pdfrwt beam="1">  1       21 0.32759609E-01 0.23528857E+03</pdfrwt>
<pdfrwt beam="2">  1       21 0.53578115E-01 0.23528857E+03</pdfrwt>
<totfact> 0.28915575E+04</totfact>
</mgrwt>
</event>
<event>
12    2  0.4097182E-002  0.3259175E+03  0.7546771E-02  0.1073571E+00
         21   -1    0    0  501  502  0.00000000000E+00  0.00000000000E+00  0.91620790745E+03  0.91620790745E+03  0.00000000000E+00 0.  1.
         21   -1    0    0  502  503 -0.00000000000E+00 -0.00000000000E+00 -0.15087775530E+03  0.15087775530E+03  0.00000000000E+00 0. -1.
         -6    2    1    2    0  503 -0.93822337205E+00  0.27649356837E+03  0.12138930295E+03  0.34778958631E+03  0.17254755825E+03 0.  0.
        -24    2    3    3    0    0 -0.39676678185E+02  0.68279240746E+02  0.74279966959E+02  0.13077517746E+03  0.73132346049E+02 0.  0.
          6    2    1    2  501    0  0.93822337205E+00 -0.27649356837E+03  0.64394084920E+03  0.71929607644E+03  0.16210322235E+03 0.  0.
         24    2    5    5    0    0 -0.19275822187E+02 -0.71655005461E+02  0.29529658850E+03  0.31439812014E+03  0.78358826181E+02 0.  0.
          5    1    5    5  501    0  0.20214045559E+02 -0.20483856291E+03  0.34864426071E+03  0.40489795630E+03  0.47000000000E+01 0. -1.
        -15    1    6    6    0    0 -0.91692824528E+01 -0.76545473279E+02  0.14992901807E+03  0.16859760795E+03  0.17770000000E+01 0.  1.
         16    1    6    6    0    0 -0.10106539734E+02  0.48904678177E+01  0.14536757043E+03  0.14580051218E+03  0.00000000000E+00 0. -1.
         -5    1    3    3    0  503  0.38738454813E+02  0.20821432763E+03  0.47109335989E+02  0.21701440885E+03  0.47000000000E+01 0.  1.
         15    1    4    4    0    0  0.10380226713E+02  0.78204500290E+01 -0.93282879450E+01  0.16096062570E+02  0.17770000000E+01 0. -1.
        -16    1    4    4    0    0 -0.50056904898E+02  0.60458790717E+02  0.83608254904E+02  0.11467911489E+03  0.00000000000E+00 0.  1.
<mgrwt>
<rscale>  2 0.32455730E+03</rscale>
<asrwt>0</asrwt>
<pdfrwt beam="1">  1       21 0.14095506E+00 0.32591753E+03</pdfrwt>
<pdfrwt beam="2">  1       21 0.23211963E-01 0.32591753E+03</pdfrwt>
<totfact> 0.56380538E+03</totfact>
</mgrwt>
</event>
<event>
12    2  0.4097182E-002  0.3070949E+03  0.7546771E-02  0.1081806E+00
         21   -1    0    0  501  502  0.00000000000E+00  0.00000000000E+00  0.70338684028E+02  0.70338684028E+02  0.00000000000E+00 0.  1.
         21   -1    0    0  502  503 -0.00000000000E+00 -0.00000000000E+00 -0.21240825261E+04  0.21240825261E+04  0.00000000000E+00 0.  1.
         -6    2    1    2    0  503  0.12902798547E+03  0.21836866021E+03 -0.16935696411E+04  0.17211002511E+04  0.17226390252E+03 0.  0.
        -24    2    3    3    0    0  0.43645789944E+02  0.17755486380E+03 -0.89839827126E+03  0.92030347115E+03  0.80052111533E+02 0.  0.
          6    2    1    2  501    0 -0.12902798547E+03 -0.21836866021E+03 -0.36017420094E+03  0.47332095905E+03  0.17313053588E+03 0.  0.
         24    2    5    5    0    0 -0.92292415017E+02 -0.23127163572E+03 -0.34095270535E+03  0.42964551049E+03  0.79637039395E+02 0.  0.
          5    1    5    5  501    0 -0.36735570456E+02  0.12902975510E+02 -0.19221495589E+02  0.43675448554E+02  0.47000000000E+01 0. -1.
        -15    1    6    6    0    0 -0.38500117366E+02 -0.16156766152E+03 -0.26801542252E+03  0.31531221467E+03  0.17770000000E+01 0.  1.
         16    1    6    6    0    0 -0.53792297652E+02 -0.69703974200E+02 -0.72937282830E+02  0.11433329582E+03  0.00000000000E+00 0. -1.
         -5    1    3    3    0  503  0.85382195530E+02  0.40813796409E+02 -0.79517136987E+03  0.80079677994E+03  0.47000000000E+01 0.  1.
         15    1    4    4    0    0 -0.13235135991E+02  0.16573696900E+02 -0.42379142114E+02  0.47423682575E+02  0.17770000000E+01 0. -1.
        -16    1    4    4    0    0  0.56880925935E+02  0.16098116690E+03 -0.85601912915E+03  0.87287978857E+03  0.00000000000E+00 0.  1.
<mgrwt>
<rscale>  2 0.30697289E+03</rscale>
<asrwt>0</asrwt>
<pdfrwt beam="1">  1       21 0.10821335E-01 0.30709490E+03</pdfrwt>
<pdfrwt beam="2">  1       21 0.32678196E+00 0.30709490E+03</pdfrwt>
<totfact> 0.14941816E+03</totfact>
</mgrwt>
</event>
<event>
12    2  0.4097182E-002  0.1910063E+03  0.7546771E-02  0.1157793E+00
         21   -1    0    0  501  502  0.00000000000E+00  0.00000000000E+00  0.36043706037E+02  0.36043706037E+02  0.00000000000E+00 0. -1.
         21   -1    0    0  502  503 -0.00000000000E+00 -0.00000000000E+00 -0.12552212117E+04  0.12552212117E+04  0.00000000000E+00 0. -1.
         -6    2    1    2    0  503  0.78481953480E+02  0.18056389996E+02 -0.32362163880E+03  0.37578499539E+03  0.17319915535E+03 0.  0.
        -24    2    3    3    0    0  0.42306672395E+02 -0.53104642673E+02 -0.15780942418E+03  0.19169717924E+03  0.85053139677E+02 0.  0.
          6    2    1    2  501    0 -0.78481953480E+02 -0.18056389996E+02 -0.89555586682E+03  0.91547992231E+03  0.17203990036E+03 0.  0.
         24    2    5    5    0    0 -0.86384243805E+02  0.42244698762E+02 -0.54577117235E+03  0.56041642097E+03  0.83387889856E+02 0.  0.
          5    1    5    5  501    0  0.79022903252E+01 -0.60301088758E+02 -0.34978469447E+03  0.35506350134E+03  0.47000000000E+01 0. -1.
        -15    1    6    6    0    0 -0.88876887639E+02  0.42827505503E+01 -0.39766237029E+03  0.40749964612E+03  0.17770000000E+01 0.  1.
         16    1    6    6    0    0  0.24926438343E+01  0.37961948212E+02 -0.14810880206E+03  0.15291677485E+03  0.00000000000E+00 0. -1.
         -5    1    3    3    0  503  0.36175281085E+02  0.71161032669E+02 -0.16581221463E+03  0.18408781614E+03  0.47000000000E+01 0.  1.
         15    1    4    4    0    0  0.47261962713E+02  0.71380081882E+01 -0.60219428659E+02  0.76903716408E+02  0.17770000000E+01 0. -1.
        -16    1    4    4    0    0 -0.49552903182E+01 -0.60242650862E+02 -0.97589995516E+02  0.11479346284E+03  0.00000000000E+00 0.  1.
<mgrwt>
<rscale>  2 0.19074310E+03</rscale>
<asrwt>0</asrwt>
<pdfrwt beam="1">  1       21 0.55451862E-02 0.19100628E+03</pdfrwt>
<pdfrwt beam="2">  1       21 0.19311093E+00 0.19100628E+03</pdfrwt>
<totfact> 0.33608492E+04</totfact>
</mgrwt>
</event>
<event>
12    2  0.4097182E-002  0.2025855E+03  0.7546771E-02  0.1147599E+00
         21   -1    0    0  501  502  0.00000000000E+00  0.00000000000E+00  0.37288025850E+03  0.37288025850E+03  0.00000000000E+00 0.  1.
         21   -1    0    0  502  503 -0.00000000000E+00 -0.00000000000E+00 -0.11114676354E+03  0.11114676354E+03  0.00000000000E+00 0. -1.
         -6    2    1    2    0  503 -0.10021456926E+03  0.33602079639E+02  0.10628045562E+03  0.22867136183E+03  0.17269336069E+03 0.  0.
        -24    2    3    3    0    0  0.80538385148E+01 -0.18182068499E+01  0.13520451949E+02  0.81691250598E+02  0.80140424334E+02 0.  0.
          6    2    1    2  501    0  0.10021456926E+03 -0.33602079639E+02  0.15545303934E+03  0.25535566020E+03  0.17282594166E+03 0.  0.
         24    2    5    5    0    0  0.58226321658E+02 -0.69709842052E+02  0.15825531055E+03  0.19970742423E+03  0.81169855008E+02 0.  0.
          5    1    5    5  501    0  0.41988247601E+02  0.36107762413E+02 -0.28022712104E+01  0.55648235974E+02  0.47000000000E+01 0. -1.
        -15    1    6    6    0    0  0.29761492944E+00 -0.47818658127E+02  0.11387175144E+03  0.12351779688E+03  0.17770000000E+01 0.  1.
         16    1    6    6    0    0  0.57928706729E+02 -0.21891183925E+02  0.44383559106E+02  0.76189627351E+02  0.00000000000E+00 0. -1.
         -5    1    3    3    0  503 -0.10826840777E+03  0.35420286489E+02  0.92760003672E+02  0.14698011123E+03  0.47000000000E+01 0.  1.
         15    1    4    4    0    0 -0.16204801607E+02 -0.14728202348E+02 -0.25694405045E+02  0.33806444935E+02  0.17770000000E+01 0. -1.
        -16    1    4    4    0    0  0.24258640121E+02  0.12909995498E+02  0.39214856994E+02  0.47884805663E+02  0.00000000000E+00 0.  1.
<mgrwt>
<rscale>  2 0.20255717E+03</rscale>
<asrwt>0</asrwt>
<pdfrwt beam="1">  1       21 0.57366193E-01 0.20258545E+03</pdfrwt>
<pdfrwt beam="2">  1       21 0.17099502E-01 0.20258545E+03</pdfrwt>
<totfact> 0.87665731E+04</totfact>
</mgrwt>
</event>
<event>
12    2  0.4097182E-002  0.1777414E+03  0.7546771E-02  0.1170867E+00
         21   -1    0    0  501  502  0.00000000000E+00  0.00000000000E+00  0.20575263530E+03  0.20575263530E+03  0.00000000000E+00 0.  1.
         21   -1    0    0  502  503 -0.00000000000E+00 -0.00000000000E+00 -0.19410008137E+03  0.19410008137E+03  0.00000000000E+00 0.  1.
         -6    2    1    2    0  503  0.10940676400E+02 -0.33743573043E+02 -0.88804252952E+02  0.19869123381E+03  0.17416567954E+03 0.  0.
        -24    2    3    3    0    0 -0.39411918385E+02  0.29277589145E+02 -0.50861999318E+02  0.10942334879E+03  0.83522749886E+02 0.  0.
          6    2    1    2  501    0 -0.10940676400E+02  0.33743573043E+02  0.10045680689E+03  0.20116148286E+03  0.17063424338E+03 0.  0.
         24    2    5    5    0    0 -0.44542157790E+02  0.53655508208E+02  0.14750808688E+02  0.10685796839E+03  0.79612321097E+02 0.  0.
          5    1    5    5  501    0  0.33601481390E+02 -0.19911935165E+02  0.85705998202E+02  0.94303514470E+02  0.47000000000E+01 0. -1.
        -15    1    6    6    0    0 -0.70255904718E+01  0.40222000791E+02 -0.27125020505E+02  0.49051939161E+02  0.17770000000E+01 0.  1.
         16    1    6    6    0    0 -0.37516567318E+02  0.13433507417E+02  0.41875829193E+02  0.57806029231E+02  0.00000000000E+00 0. -1.
         -5    1    3    3    0  503  0.50352594785E+02 -0.63021162189E+02 -0.37942253634E+02  0.89267885020E+02  0.47000000000E+01 0.  1.
         15    1    4    4    0    0 -0.35955830216E+02  0.42712249084E+02  0.86710053534E+00  0.55866515380E+02  0.17770000000E+01 0. -1.
        -16    1    4    4    0    0 -0.34560881690E+01 -0.13434659939E+02 -0.51729099853E+02  0.53556833408E+02  0.00000000000E+00 0.  1.
<mgrwt>
<rscale>  2 0.17687029E+03</rscale>
<asrwt>0</asrwt>
<pdfrwt beam="1">  1       21 0.31654252E-01 0.17774142E+03</pdfrwt>
<pdfrwt beam="2">  1       21 0.29861551E-01 0.17774142E+03</pdfrwt>
<totfact> 0.10374183E+05</totfact>
</mgrwt>
</event>
<event>
12    2  0.4097182E-002  0.2086748E+03  0.7546771E-02  0.1142811E+00
         21   -1    0    0  501  502  0.00000000000E+00  0.00000000000E+00  0.25456269536E+03  0.25456269536E+03  0.00000000000E+00 0. -1.
         21   -1    0    0  502  503 -0.00000000000E+00 -0.00000000000E+00 -0.20825751927E+03  0.20825751927E+03  0.00000000000E+00 0. -1.
         -6    2    1    2    0  503  0.11351661089E+03  0.17918013621E+02 -0.75716184986E+02  0.22108814293E+03  0.17303164484E+03 0.  0.
        -24    2    3    3    0    0  0.14433873054E+03 -0.14414965716E+02 -0.50652075396E+02  0.16965153921E+03  0.71934356493E+02 0.  0.
          6    2    1    2  501    0 -0.11351661089E+03 -0.17918013621E+02  0.12202136107E+03  0.24173207169E+03  0.17417837342E+03 0.  0.
         24    2    5    5    0    0 -0.13408084233E+03 -0.10257555768E+01  0.48514170974E+02  0.16341455774E+03  0.79824610500E+02 0.  0.
          5    1    5    5  501    0  0.20564231434E+02 -0.16892258045E+02  0.73507190098E+02  0.78317513957E+02  0.47000000000E+01 0. -1.
        -15    1    6    6    0    0 -0.36038990152E+02 -0.45080753361E+01 -0.22088715171E+02  0.42546452511E+02  0.17770000000E+01 0.  1.
         16    1    6    6    0    0 -0.98041852173E+02  0.34823197593E+01  0.70602886145E+02  0.12086810522E+03  0.00000000000E+00 0. -1.
         -5    1    3    3    0  503 -0.30822119651E+02  0.32332979337E+02 -0.25064109590E+02  0.51436603719E+02  0.47000000000E+01 0.  1.
         15    1    4    4    0    0  0.74476564655E+02  0.49946034295E+01  0.97262747127E+01  0.75295835841E+02  0.17770000000E+01 0. -1.
        -16    1    4    4    0    0  0.69862165888E+02 -0.19409569146E+02 -0.60378350109E+02  0.94355703372E+02  0.00000000000E+00 0.  1.
<mgrwt>
<rscale>  2 0.20843536E+03</rscale>
<asrwt>0</asrwt>
<pdfrwt beam="1">  1       21 0.39163492E-01 0.20867482E+03</pdfrwt>
<pdfrwt beam="2">  1       21 0.32039618E-01 0.20867482E+03</pdfrwt>
<totfact> 0.58458576E+04</totfact>
</mgrwt>
</event>
<event>
12    2  0.4097182E-002  0.1801319E+03  0.7546771E-02  0.1167735E+00
         21   -1    0    0  501  502  0.00000000000E+00  0.00000000000E+00  0.32158868286E+03  0.32158868286E+03  0.00000000000E+00 0.  1.
         21   -1    0    0  502  503 -0.00000000000E+00 -0.00000000000E+00 -0.12413005141E+03  0.12413005141E+03  0.00000000000E+00 0.  1.
         -6    2    1    2    0  503  0.46217517822E+02 -0.47594946159E+01  0.19537443346E+03  0.26557474347E+03  0.17378165431E+03 0.  0.
        -24    2    3    3    0    0  0.59089540467E+02  0.22401934747E+02  0.76466739869E+02  0.14283696686E+03  0.10277069778E+03 0.  0.
          6    2    1    2  501    0 -0.46217517822E+02  0.47594946159E+01  0.20841979879E+01  0.18014399080E+03  0.17403678289E+03 0.  0.
         24    2    5    5    0    0 -0.80846859674E+02  0.55116203803E+01 -0.41666617521E+02  0.12414416162E+03  0.84315319905E+02 0.  0.
          5    1    5    5  501    0  0.34629341852E+02 -0.75212576436E+00  0.43750815509E+02  0.55999829178E+02  0.47000000000E+01 0. -1.
        -15    1    6    6    0    0 -0.37405954192E+02 -0.13623757610E+02 -0.61021967386E+02  0.72881070334E+02  0.17770000000E+01 0.  1.
         16    1    6    6    0    0 -0.43440905483E+02  0.19135377990E+02  0.19355349865E+02  0.51263091287E+02  0.00000000000E+00 0. -1.
         -5    1    3    3    0  503 -0.12872022645E+02 -0.27161429363E+02  0.11890769359E+03  0.12273777661E+03  0.47000000000E+01 0.  1.
         15    1    4    4    0    0  0.12792072593E+02  0.36046890282E+02  0.85545593607E+02  0.93724179030E+02  0.17770000000E+01 0. -1.
        -16    1    4    4    0    0  0.46297467874E+02 -0.13644955534E+02 -0.90788537377E+01  0.49112787828E+02  0.00000000000E+00 0.  1.
<mgrwt>
<rscale>  2 0.18007028E+03</rscale>
<asrwt>0</asrwt>
<pdfrwt beam="1">  1       21 0.49475182E-01 0.18013193E+03</pdfrwt>
<pdfrwt beam="2">  1       21 0.19096931E-01 0.18013193E+03</pdfrwt>
<totfact> 0.98466045E+04</totfact>
</mgrwt>
</event>
<event>
12    2  0.4097182E-002  0.2071410E+03  0.7546771E-02  0.1145510E+00
         21   -1    0    0  503  502  0.00000000000E+00  0.00000000000E+00  0.68073016324E+03  0.68073016324E+03  0.00000000000E+00 0. -1.
         21   -1    0    0  501  503 -0.00000000000E+00 -0.00000000000E+00 -0.13735145964E+03  0.13735145964E+03  0.00000000000E+00 0. -1.
          6    2    1    2  501    0 -0.43685545911E+02 -0.91580475229E+02 -0.36429085010E+02  0.20238325777E+03  0.17127899587E+03 0.  0.
         24    2    3    3    0    0  0.18226153853E+02 -0.25052596468E+02 -0.63373330885E+02  0.10747751713E+03  0.81088916300E+02 0.  0.
         -6    2    1    2    0  502  0.43685545911E+02  0.91580475229E+02  0.57980778861E+03  0.61569836512E+03  0.18058791410E+03 0.  0.
        -24    2    5    5    0    0  0.10719371733E+02  0.34738047685E+02  0.10873844785E+03  0.14004487359E+03  0.80416911712E+02 0.  0.
          5    1    3    3  501    0 -0.61911699765E+02 -0.66527878761E+02  0.26944245875E+02  0.94905740638E+02  0.47000000000E+01 0. -1.
        -15    1    4    4    0    0  0.39798379588E+02 -0.14634275239E+02 -0.30255031483E+01  0.42548612527E+02  0.17770000000E+01 0.  1.
         16    1    4    4    0    0 -0.21572225735E+02 -0.10418321228E+02 -0.60347827737E+02  0.64928904603E+02  0.00000000000E+00 0. -1.
         -5    1    5    5    0  502  0.32966174178E+02  0.56842427543E+02  0.47106934076E+03  0.47565349154E+03  0.47000000000E+01 0.  1.
         15    1    6    6    0    0  0.39785358508E+02  0.17020594302E+02  0.92901663295E+02  0.10250098611E+03  0.17770000000E+01 0. -1.
        -16    1    6    6    0    0 -0.29065986775E+02  0.17717453384E+02  0.15836784558E+02  0.37543887475E+02  0.00000000000E+00 0.  1.
<mgrwt>
<rscale>  2 0.20509507E+03</rscale>
<asrwt>0</asrwt>
<pdfrwt beam="1">  1       21 0.10472772E+00 0.20714103E+03</pdfrwt>
<pdfrwt beam="2">  1       21 0.21130994E-01 0.20714103E+03</pdfrwt>
<totfact> 0.15164653E+04</totfact>
</mgrwt>
</event>
<event>
11    2  0.4097182E-002  0.2077628E+03  0.7546771E-02  0.1143532E+00
         21   -1    0    0  503  502  0.00000000000E+00  0.00000000000E+00  0.98326573570E+03  0.98326573570E+03  0.00000000000E+00 0. -1.
         21   -1    0    0  501  503 -0.00000000000E+00 -0.00000000000E+00 -0.15477138473E+03  0.15477138473E+03  0.00000000000E+00 0. -1.
          6    2    1    2  501    0  0.11205199450E+03  0.20671271411E+02 -0.67516484048E+02  0.21845793465E+03  0.17373094906E+03 0.  0.
         -6    2    1    2    0  502 -0.11205199450E+03 -0.20671271411E+02  0.89601083501E+03  0.91957918578E+03  0.17264852019E+03 0.  0.
        -24    2    4    4    0    0 -0.98868671549E+02 -0.73604219616E+02  0.72513547349E+03  0.74014625629E+03  0.82476847817E+02 0.  0.
          5    1    3    3  501    0  0.30084675924E+02 -0.35220417117E+02 -0.39104970675E+01  0.46722023658E+02  0.47000000000E+01 0. -1.
        -15    1    3    3    0    0  0.11086100728E+03  0.65690378813E+02 -0.48578917630E+02  0.13772602431E+03  0.17770000000E+01 0.  1.
         16    1    3    3    0    0 -0.28893688714E+02 -0.97986902851E+01 -0.15027069351E+02  0.34009886681E+02  0.00000000000E+00 0. -1.
         -5    1    4    4    0  502 -0.13183322947E+02  0.52932948205E+02  0.17087536152E+03  0.17943292949E+03  0.47000000000E+01 0.  1.
         15    1    5    5    0    0 -0.31281150091E+02  0.16591214450E+02  0.18785217460E+03  0.19116844922E+03  0.17770000000E+01 0. -1.
        -16    1    5    5    0    0 -0.67587521458E+02 -0.90195434066E+02  0.53728329890E+03  0.54897780707E+03  0.00000000000E+00 0.  1.
<mgrwt>
<rscale>  2 0.20753639E+03</rscale>
<asrwt>0</asrwt>
<pdfrwt beam="1">  1       21 0.15127165E+00 0.20776283E+03</pdfrwt>
<pdfrwt beam="2">  1       21 0.23810983E-01 0.20776283E+03</pdfrwt>
<totfact> 0.47972552E+03</totfact>
</mgrwt>
</event>
<event>
12    2  0.4097182E-002  0.3010499E+03  0.7546771E-02  0.1086210E+00
         21   -1    0    0  503  502  0.00000000000E+00  0.00000000000E+00  0.35602816871E+03  0.35602816871E+03  0.00000000000E+00 0. -1.
         21   -1    0    0  501  503 -0.00000000000E+00 -0.00000000000E+00 -0.24633004517E+03  0.24633004517E+03  0.00000000000E+00 0. -1.
          6    2    1    2  501    0 -0.15103835746E+03 -0.17870852899E+03  0.31633497913E+02  0.30270728279E+03  0.18942464757E+03 0.  0.
         24    2    3    3    0    0 -0.16837293308E+03 -0.80674567032E+02  0.23118450193E+02  0.20267858068E+03  0.75407651920E+02 0.  0.
         -6    2    1    2    0  502  0.15103835746E+03  0.17870852899E+03  0.78064625622E+02  0.29965093109E+03  0.17013897546E+03 0.  0.
        -24    2    5    5    0    0  0.10242365758E+03  0.69907891022E+02  0.10020554520E+03  0.17835262860E+03  0.79942416657E+02 0.  0.
          5    1    3    3  501    0  0.17334575617E+02 -0.98033961953E+02  0.85150477192E+01  0.10002870211E+03  0.47000000000E+01 0. -1.
        -15    1    4    4    0    0 -0.70203325538E+02 -0.29299714821E+02  0.46858756061E+02  0.89363756376E+02  0.17770000000E+01 0.  1.
         16    1    4    4    0    0 -0.98169607544E+02 -0.51374852211E+02 -0.23740305867E+02  0.11331482431E+03  0.00000000000E+00 0. -1.
         -5    1    5    5    0  502  0.48614699883E+02  0.10880063796E+03 -0.22140919580E+02  0.12129830249E+03  0.47000000000E+01 0.  1.
         15    1    6    6    0    0  0.56004041109E+02  0.77258684025E+02  0.87949075305E+02  0.12978272017E+03  0.17770000000E+01 0. -1.
        -16    1    6    6    0    0  0.46419616472E+02 -0.73507930031E+01  0.12256469896E+02  0.48569908436E+02  0.00000000000E+00 0.  1.
<mgrwt>
<rscale>  2 0.29806934E+03</rscale>
<asrwt>0</asrwt>
<pdfrwt beam="1">  1       21 0.54773565E-01 0.30104986E+03</pdfrwt>
<pdfrwt beam="2">  1       21 0.37896930E-01 0.30104986E+03</pdfrwt>
<totfact> 0.20032028E+04</totfact>
</mgrwt>
</event>
<event>
12    2  0.4097182E-002  0.1773631E+03  0.7546771E-02  0.1170506E+00
         21   -1    0    0  501  502  0.00000000000E+00  0.00000000000E+00  0.16392327438E+04  0.16392327438E+04  0.00000000000E+00 0. -1.
         21   -1    0    0  502  503 -0.00000000000E+00 -0.00000000000E+00 -0.34186263512E+02  0.34186263512E+02  0.00000000000E+00 0. -1.
         -6    2    1    2    0  503  0.33032528430E+00 -0.39091782677E+02  0.24670275943E+03  0.30354480656E+03  0.17247875664E+03 0.  0.
        -24    2    3    3    0    0  0.11772004584E+02 -0.68641791174E+02  0.78281580839E+02  0.13210415087E+03  0.80456355807E+02 0.  0.
          6    2    1    2  501    0 -0.33032528430E+00  0.39091782677E+02  0.13583437208E+04  0.13698742007E+04  0.17300111359E+03 0.  0.
         24    2    5    5    0    0  0.44541133333E+02 -0.29383356145E+02  0.54944304368E+03  0.55682765351E+03  0.72952609912E+02 0.  0.
          5    1    5    5  501    0 -0.44871458617E+02  0.68475138823E+02  0.80890067716E+03  0.81304654722E+03  0.47000000000E+01 0. -1.
        -15    1    6    6    0    0 -0.36472955915E+01 -0.39726004393E+02  0.20232045253E+03  0.20622361996E+03  0.17770000000E+01 0.  1.
         16    1    6    6    0    0  0.48188428924E+02  0.10342648248E+02  0.34712259115E+03  0.35060403355E+03  0.00000000000E+00 0. -1.
         -5    1    3    3    0  503 -0.11441679300E+02  0.29550008496E+02  0.16842117859E+03  0.17144065569E+03  0.47000000000E+01 0.  1.
         15    1    4    4    0    0  0.34666226185E+02 -0.58469983169E+02  0.23633506467E+02  0.71987405333E+02  0.17770000000E+01 0. -1.
        -16    1    4    4    0    0 -0.22894221601E+02 -0.10171808004E+02  0.54648074372E+02  0.60116745532E+02  0.00000000000E+00 0.  1.
<mgrwt>
<rscale>  2 0.17723557E+03</rscale>
<asrwt>0</asrwt>
<pdfrwt beam="1">  1       21 0.25218959E+00 0.17736308E+03</pdfrwt>
<pdfrwt beam="2">  1       21 0.52594264E-02 0.17736308E+03</pdfrwt>
<totfact> 0.16163842E+04</totfact>
</mgrwt>
</event>
<event>
12    2  0.4097182E-002  0.2299070E+03  0.7546771E-02  0.1126833E+00
         21   -1    0    0  501  502  0.00000000000E+00  0.00000000000E+00  0.11925705690E+03  0.11925705690E+03  0.00000000000E+00 0.  1.
         21   -1    0    0  502  503 -0.00000000000E+00 -0.00000000000E+00 -0.60249594868E+03  0.60249594868E+03  0.00000000000E+00 0.  1.
         -6    2    1    2    0  503 -0.14773505325E+03 -0.23273790631E+02 -0.42770009270E+03  0.48523280920E+03  0.17365539017E+03 0.  0.
        -24    2    3    3    0    0 -0.14477824854E+02 -0.42812395489E+02 -0.13565814129E+03  0.16359662127E+03  0.79487197545E+02 0.  0.
          6    2    1    2  501    0  0.14773505325E+03  0.23273790631E+02 -0.55538799079E+02  0.23652019638E+03  0.17461365870E+03 0.  0.
         24    2    5    5    0    0  0.10648204629E+03 -0.42412372167E+02  0.21826059661E+01  0.13971971515E+03  0.79872395343E+02 0.  0.
          5    1    5    5  501    0  0.41253006955E+02  0.65686162799E+02 -0.57721405045E+02  0.96800481230E+02  0.47000000000E+01 0. -1.
        -15    1    6    6    0    0  0.81948753197E+02  0.40846339834E+01 -0.16899048582E+02  0.83791514828E+02  0.17770000000E+01 0.  1.
         16    1    6    6    0    0  0.24533293094E+02 -0.46497006151E+02  0.19081654548E+02  0.55928200323E+02  0.00000000000E+00 0. -1.
         -5    1    3    3    0  503 -0.13325722839E+03  0.19538604858E+02 -0.29204195141E+03  0.32163618793E+03  0.47000000000E+01 0.  1.
         15    1    4    4    0    0  0.30964236386E+02 -0.15947292205E+02 -0.77891748687E+02  0.85342734349E+02  0.17770000000E+01 0. -1.
        -16    1    4    4    0    0 -0.45442061241E+02 -0.26865103283E+02 -0.57766392599E+02  0.78253886921E+02  0.00000000000E+00 0.  1.
<mgrwt>
<rscale>  2 0.22972508E+03</rscale>
<asrwt>0</asrwt>
<pdfrwt beam="1">  1       21 0.18347239E-01 0.22990704E+03</pdfrwt>
<pdfrwt beam="2">  1       21 0.92691685E-01 0.22990704E+03</pdfrwt>
<totfact> 0.26043685E+04</totfact>
</mgrwt>
</event>
<event>
12    2  0.4097182E-002  0.2447476E+03  0.7546771E-02  0.1116975E+00
         21   -1    0    0  501  502  0.00000000000E+00  0.00000000000E+00  0.31187536795E+03  0.31187536795E+03  0.00000000000E+00 0.  1.
         21   -1    0    0  502  503 -0.00000000000E+00 -0.00000000000E+00 -0.25352094836E+03  0.25352094836E+03  0.00000000000E+00 0. -1.
         -6    2    1    2    0  503  0.17184937469E+03  0.12783492492E+02 -0.11157007033E+03  0.26897820889E+03  0.17379807537E+03 0.  0.
        -24    2    3    3    0    0  0.17558961142E+03  0.42976321581E+02 -0.12629063958E+03  0.23485517476E+03  0.80801928252E+02 0.  0.
          6    2    1    2  501    0 -0.17184937469E+03 -0.12783492492E+02  0.16992448992E+03  0.29641810743E+03  0.17115413194E+03 0.  0.
         24    2    5    5    0    0 -0.10747122200E+03 -0.51199375416E+02  0.42389161599E+02  0.14840568710E+03  0.77820095995E+02 0.  0.
          5    1    5    5  501    0 -0.64378152688E+02  0.38415882923E+02  0.12753532832E+03  0.14801242033E+03  0.47000000000E+01 0. -1.
        -15    1    6    6    0    0  0.10738054855E+02 -0.12349630698E+02  0.11850574568E+02  0.20283319428E+02  0.17770000000E+01 0.  1.
         16    1    6    6    0    0 -0.11820927686E+03 -0.38849744718E+02  0.30538587031E+02  0.12812236767E+03  0.00000000000E+00 0. -1.
         -5    1    3    3    0  503 -0.37402367303E+01 -0.30192829089E+02  0.14720569250E+02  0.34123034130E+02  0.47000000000E+01 0.  1.
         15    1    4    4    0    0  0.14356702933E+03  0.59598575456E+02 -0.12372938136E+03  0.19868467391E+03  0.17770000000E+01 0. -1.
        -16    1    4    4    0    0  0.32022582094E+02 -0.16622253875E+02 -0.25612582192E+01  0.36170500847E+02  0.00000000000E+00 0.  1.
<mgrwt>
<rscale>  2 0.24427868E+03</rscale>
<asrwt>0</asrwt>
<pdfrwt beam="1">  1       21 0.47980826E-01 0.24474762E+03</pdfrwt>
<pdfrwt beam="2">  1       21 0.39003223E-01 0.24474762E+03</pdfrwt>
<totfact> 0.25603395E+04</totfact>
</mgrwt>
</event>
<event>
12    2  0.4097182E-002  0.1883704E+03  0.7546771E-02  0.1160030E+00
         21   -1    0    0  503  502  0.00000000000E+00  0.00000000000E+00  0.34225131384E+02  0.34225131384E+02  0.00000000000E+00 0. -1.
         21   -1    0    0  501  503 -0.00000000000E+00 -0.00000000000E+00 -0.12787470486E+04  0.12787470486E+04  0.00000000000E+00 0.  1.
          6    2    1    2  501    0 -0.35148830173E+02 -0.65124230349E+02 -0.90966393541E+03  0.92896279636E+03  0.17322469797E+03 0.  0.
         24    2    3    3    0    0 -0.89699998141E+02 -0.64694457930E+02 -0.61213343198E+03  0.62643592962E+03  0.74048449051E+02 0.  0.
         -6    2    1    2    0  502  0.35148830173E+02  0.65124230349E+02 -0.33485798183E+03  0.38400938365E+03  0.17279100988E+03 0.  0.
        -24    2    5    5    0    0 -0.56940326923E+01 -0.24584624326E+02 -0.20068307283E+03  0.21745364446E+03  0.79847141494E+02 0.  0.
          5    1    3    3  501    0  0.54551167968E+02 -0.42977241929E+00 -0.29753050343E+03  0.30252686674E+03  0.47000000000E+01 0. -1.
        -15    1    4    4    0    0 -0.57303268956E+02 -0.63385598361E+01 -0.39752264877E+03  0.40168551877E+03  0.17770000000E+01 0.  1.
         16    1    4    4    0    0 -0.32396729185E+02 -0.58355898094E+02 -0.21461078322E+03  0.22475041085E+03  0.00000000000E+00 0. -1.
         -5    1    5    5    0  502  0.40842862865E+02  0.89708854675E+02 -0.13417490900E+03  0.16655573920E+03  0.47000000000E+01 0.  1.
         15    1    6    6    0    0 -0.41126016329E+02 -0.49825456466E+01 -0.12379323045E+03  0.13055304138E+03  0.17770000000E+01 0. -1.
        -16    1    6    6    0    0  0.35431983637E+02 -0.19602078679E+02 -0.76889842381E+02  0.86900603073E+02  0.00000000000E+00 0.  1.
<mgrwt>
<rscale>  2 0.18827062E+03</rscale>
<asrwt>0</asrwt>
<pdfrwt beam="1">  1       21 0.52654049E-02 0.18837038E+03</pdfrwt>
<pdfrwt beam="2">  1       21 0.19673031E+00 0.18837038E+03</pdfrwt>
<totfact> 0.34829106E+04</totfact>
</mgrwt>
</event>
<event>
12    2  0.4097182E-002  0.1844762E+03  0.7546771E-02  0.1165026E+00
         21   -1    0    0  501  502  0.00000000000E+00  0.00000000000E+00  0.50877140068E+02  0.50877140068E+02  0.00000000000E+00 0. -1.
         21   -1    0    0  502  503 -0.00000000000E+00 -0.00000000000E+00 -0.64898251564E+03  0.64898251564E+03  0.00000000000E+00 0.  1.
         -6    2    1    2    0  503 -0.48187006792E+02  0.19125026632E+02 -0.32576510905E+03  0.37437198728E+03  0.17704158924E+03 0.  0.
        -24    2    3    3    0    0 -0.45222943327E+02  0.39193176776E+02 -0.33656492693E+03  0.35091474131E+03  0.79271595924E+02 0.  0.
          6    2    1    2  501    0  0.48187006792E+02 -0.19125026632E+02 -0.27234026652E+03  0.32548766843E+03  0.17054397456E+03 0.  0.
         24    2    5    5    0    0  0.14545093697E+02  0.51001490207E+02 -0.18471567909E+03  0.20822870287E+03  0.80166070397E+02 0.  0.
          5    1    5    5  501    0  0.33641913096E+02 -0.70126516839E+02 -0.87624587436E+02  0.11725896556E+03  0.47000000000E+01 0. -1.
        -15    1    6    6    0    0  0.43206009934E+02  0.51557543182E+02 -0.12384217271E+03  0.14094318368E+03  0.17770000000E+01 0.  1.
         16    1    6    6    0    0 -0.28660916237E+02 -0.55605297521E+00 -0.60873506375E+02  0.67285519192E+02  0.00000000000E+00 0. -1.
         -5    1    3    3    0  503 -0.29640634655E+01 -0.20068150145E+02  0.10799817879E+02  0.23457245974E+02  0.47000000000E+01 0.  1.
         15    1    4    4    0    0 -0.31709912374E+02 -0.11761640529E+02 -0.56035090450E+02  0.65474757132E+02  0.17770000000E+01 0. -1.
        -16    1    4    4    0    0 -0.13513030952E+02  0.50954817306E+02 -0.28052983648E+03  0.28543998418E+03  0.00000000000E+00 0.  1.
<mgrwt>
<rscale>  2 0.18289953E+03</rscale>
<asrwt>0</asrwt>
<pdfrwt beam="1">  1       21 0.78272528E-02 0.18447623E+03</pdfrwt>
<pdfrwt beam="2">  1       21 0.99843457E-01 0.18447623E+03</pdfrwt>
<totfact> 0.10305292E+05</totfact>
</mgrwt>
</event>
<event>
12    2  0.4097182E-002  0.1793181E+03  0.7546771E-02  0.1168698E+00
         21   -1    0    0  503  502  0.00000000000E+00  0.00000000000E+00  0.86257761574E+03  0.86257761574E+03  0.00000000000E+00 0.  1.
         21   -1    0    0  501  503 -0.00000000000E+00 -0.00000000000E+00 -0.13524451824E+03  0.13524451824E+03  0.00000000000E+00 0.  1.
          6    2    1    2  501    0 -0.27378429959E+02  0.37881788231E+02 -0.61652473539E+02  0.18871569931E+03  0.17212779952E+03 0.  0.
         24    2    3    3    0    0 -0.26205768174E+02 -0.43622596931E+02 -0.25023313455E+02  0.99227569903E+02  0.81426477046E+02 0.  0.
         -6    2    1    2    0  502  0.27378429959E+02 -0.37881788231E+02  0.78898557104E+03  0.80910643467E+03  0.17311956273E+03 0.  0.
        -24    2    5    5    0    0  0.42248167686E+02 -0.72788654588E+02  0.35938561585E+03  0.37780861423E+03  0.80611613257E+02 0.  0.
          5    1    3    3  501    0 -0.11726617855E+01  0.81504385162E+02 -0.36629160084E+02  0.89488129407E+02  0.47000000000E+01 0. -1.
        -15    1    4    4    0    0 -0.51269624823E+02 -0.25898453287E+02 -0.34589698527E+02  0.67073909126E+02  0.17770000000E+01 0.  1.
         16    1    4    4    0    0  0.25063856650E+02 -0.17724143643E+02  0.95663850718E+01  0.32153660778E+02  0.00000000000E+00 0. -1.
         -5    1    5    5    0  502 -0.14869737727E+02  0.34906866357E+02  0.42959995519E+03  0.43129782044E+03  0.47000000000E+01 0.  1.
         15    1    6    6    0    0  0.93219859687E+01 -0.73509649404E+02  0.30786041571E+03  0.31665716677E+03  0.17770000000E+01 0. -1.
        -16    1    6    6    0    0  0.32926181717E+02  0.72099481672E+00  0.51525200147E+02  0.61151447458E+02  0.00000000000E+00 0.  1.
<mgrwt>
<rscale>  2 0.17907832E+03</rscale>
<asrwt>0</asrwt>
<pdfrwt beam="1">  1       21 0.13270424E+00 0.17931813E+03</pdfrwt>
<pdfrwt beam="2">  1       21 0.20806850E-01 0.17931813E+03</pdfrwt>
<totfact> 0.88855515E+03</totfact>
</mgrwt>
</event>
<event>
12    2  0.4097182E-002  0.2003474E+03  0.7546771E-02  0.1149647E+00
         21   -1    0    0  501  502  0.00000000000E+00  0.00000000000E+00  0.68289770812E+02  0.68289770812E+02  0.00000000000E+00 0. -1.
         21   -1    0    0  502  503 -0.00000000000E+00 -0.00000000000E+00 -0.83316377321E+03  0.83316377321E+03  0.00000000000E+00 0. -1.
         -6    2    1    2    0  503  0.94986420697E+02 -0.34729936182E+02 -0.62779434407E+03  0.65869869246E+03  0.17184190533E+03 0.  0.
        -24    2    3    3    0    0  0.10706118446E+02 -0.17832752352E+02 -0.45849855718E+03  0.46877281843E+03  0.95364565419E+02 0.  0.
          6    2    1    2  501    0 -0.94986420697E+02  0.34729936182E+02 -0.13707965834E+03  0.24275485156E+03  0.17294651382E+03 0.  0.
         24    2    5    5    0    0 -0.21268377024E+02  0.76173238840E+02 -0.77850732694E+02  0.13940083407E+03  0.84363201592E+02 0.  0.
          5    1    5    5  501    0 -0.73718043673E+02 -0.41443302657E+02 -0.59228925641E+02  0.10335401749E+03  0.47000000000E+01 0. -1.
        -15    1    6    6    0    0 -0.40514271047E+01  0.12788800512E+02 -0.72222118166E+02  0.73478973601E+02  0.17770000000E+01 0.  1.
         16    1    6    6    0    0 -0.17216949919E+02  0.63384438328E+02 -0.56286145283E+01  0.65921860473E+02  0.00000000000E+00 0. -1.
         -5    1    3    3    0  503  0.84280302251E+02 -0.16897183830E+02 -0.16929578688E+03  0.18992587403E+03  0.47000000000E+01 0.  1.
         15    1    4    4    0    0  0.48658743301E+02 -0.21144731025E+02 -0.17948890182E+03  0.18717424116E+03  0.17770000000E+01 0. -1.
        -16    1    4    4    0    0 -0.37952624856E+02  0.33119786732E+01 -0.27900965536E+03  0.28159857727E+03  0.00000000000E+00 0.  1.
<mgrwt>
<rscale>  2 0.20010880E+03</rscale>
<asrwt>0</asrwt>
<pdfrwt beam="1">  1       21 0.10506118E-01 0.20034741E+03</pdfrwt>
<pdfrwt beam="2">  1       21 0.12817905E+00 0.20034741E+03</pdfrwt>
<totfact> 0.33153011E+04</totfact>
</mgrwt>
</event>
<event>
12    2  0.4097182E-002  0.1775646E+03  0.7546771E-02  0.1170372E+00
         21   -1    0    0  503  502  0.00000000000E+00  0.00000000000E+00  0.14825403893E+03  0.14825403893E+03  0.00000000000E+00 0.  1.
         21   -1    0    0  501  503 -0.00000000000E+00 -0.00000000000E+00 -0.29678001879E+03  0.29678001879E+03  0.00000000000E+00 0.  1.
          6    2    1    2  501    0 -0.11786634414E+02 -0.37490758785E+02  0.44730341015E+02  0.18311195874E+03  0.17316092019E+03 0.  0.
         24    2    3    3    0    0  0.33937804992E+02 -0.77871623356E+02  0.36244973555E+02  0.12134279132E+03  0.78705848363E+02 0.  0.
         -6    2    1    2    0  502  0.11786634414E+02  0.37490758785E+02 -0.19325632087E+03  0.26192209898E+03  0.17236791649E+03 0.  0.
        -24    2    5    5    0    0  0.55108641298E+02  0.43433065185E+02 -0.62000793096E+02  0.12349446136E+03  0.80519501648E+02 0.  0.
          5    1    3    3  501    0 -0.45724439407E+02  0.40380864571E+02  0.84853674603E+01  0.61769167418E+02  0.47000000000E+01 0. -1.
        -15    1    4    4    0    0 -0.20092951272E+02 -0.29112531626E+01  0.17923482627E+02  0.27140579292E+02  0.17770000000E+01 0.  1.
         16    1    4    4    0    0  0.54030756264E+02 -0.74960370193E+02  0.18321490927E+02  0.94202212032E+02  0.00000000000E+00 0. -1.
         -5    1    5    5    0  502 -0.43322006884E+02 -0.59423064005E+01 -0.13125552777E+03  0.13842763762E+03  0.47000000000E+01 0.  1.
         15    1    6    6    0    0  0.27927820649E+02  0.63141363046E+02 -0.57002987448E+02  0.89550506422E+02  0.17770000000E+01 0. -1.
        -16    1    6    6    0    0  0.27180820649E+02 -0.19708297861E+02 -0.49978056485E+01  0.33943954941E+02  0.00000000000E+00 0.  1.
<mgrwt>
<rscale>  2 0.17737097E+03</rscale>
<asrwt>0</asrwt>
<pdfrwt beam="1">  1       21 0.22808314E-01 0.17756460E+03</pdfrwt>
<pdfrwt beam="2">  1       21 0.45658464E-01 0.17756460E+03</pdfrwt>
<totfact> 0.83438891E+04</totfact>
</mgrwt>
</event>
<event>
12    2  0.4097182E-002  0.1997820E+03  0.7546771E-02  0.1150008E+00
         21   -1    0    0  501  502  0.00000000000E+00  0.00000000000E+00  0.82627545644E+03  0.82627545644E+03  0.00000000000E+00 0. -1.
         21   -1    0    0  502  503 -0.00000000000E+00 -0.00000000000E+00 -0.25774987807E+03  0.25774987807E+03  0.00000000000E+00 0. -1.
         -6    2    1    2    0  503  0.97721075407E+02  0.12980160457E+02 -0.20438776550E+03  0.28580976459E+03  0.17376699832E+03 0.  0.
        -24    2    3    3    0    0  0.38839528574E+02 -0.54979863112E+02 -0.14559497815E+03  0.17827240734E+03  0.77793696582E+02 0.  0.
          6    2    1    2  501    0 -0.97721075407E+02 -0.12980160457E+02  0.77291334387E+03  0.79821556991E+03  0.17330656588E+03 0.  0.
         24    2    5    5    0    0  0.15696727620E+02 -0.11160236092E+02  0.26920471051E+03  0.28187131702E+03  0.81297755654E+02 0.  0.
          5    1    5    5  501    0 -0.11341780303E+03 -0.18199243656E+01  0.50370863336E+03  0.51634425289E+03  0.47000000000E+01 0. -1.
        -15    1    6    6    0    0  0.10031942698E+02  0.35156394025E+02  0.10693871574E+03  0.11302945885E+03  0.17770000000E+01 0.  1.
         16    1    6    6    0    0  0.56647849218E+01 -0.46316630117E+02  0.16226599476E+03  0.16884185817E+03  0.00000000000E+00 0. -1.
         -5    1    3    3    0  503  0.58881546832E+02  0.67960023570E+02 -0.58792787351E+02  0.10753735726E+03  0.47000000000E+01 0.  1.
         15    1    4    4    0    0  0.26714755243E+02 -0.84360618904E+01 -0.12107326571E+03  0.12428490933E+03  0.17770000000E+01 0. -1.
        -16    1    4    4    0    0  0.12124773332E+02 -0.46543801222E+02 -0.24521712442E+02  0.53987498012E+02  0.00000000000E+00 0.  1.
<mgrwt>
<rscale>  2 0.19968188E+03</rscale>
<asrwt>0</asrwt>
<pdfrwt beam="1">  1       21 0.12711930E+00 0.19978204E+03</pdfrwt>
<pdfrwt beam="2">  1       21 0.39653828E-01 0.19978204E+03</pdfrwt>
<totfact> 0.27858866E+03</totfact>
</mgrwt>
</event>
<event>
12    2  0.4097182E-002  0.3181113E+03  0.7546771E-02  0.1076558E+00
         21   -1    0    0  501  502  0.00000000000E+00  0.00000000000E+00  0.40173131528E+03  0.40173131528E+03  0.00000000000E+00 0. -1.
         21   -1    0    0  502  503 -0.00000000000E+00 -0.00000000000E+00 -0.13710694891E+04  0.13710694891E+04  0.00000000000E+00 0.  1.
         -6    2    1    2    0  503  0.56005700544E+02 -0.26093645559E+03 -0.12856451418E+04  0.13244161850E+04  0.17311940439E+03 0.  0.
        -24    2    3    3    0    0 -0.49583018239E+01 -0.10980890916E+03 -0.36742755509E+03  0.39183816072E+03  0.80321570387E+02 0.  0.
          6    2    1    2  501    0 -0.56005700544E+02  0.26093645559E+03  0.31630696801E+03  0.44838461933E+03  0.17255201098E+03 0.  0.
         24    2    5    5    0    0 -0.73033957362E+02  0.20032188544E+03  0.15562258387E+03  0.27574149334E+03  0.79700475698E+02 0.  0.
          5    1    5    5  501    0  0.17028256818E+02  0.60614570146E+02  0.16068438414E+03  0.17264312599E+03  0.47000000000E+01 0. -1.
        -15    1    6    6    0    0 -0.15295260935E+02 -0.32016869690E+01  0.70966740119E+01  0.17254457903E+02  0.17770000000E+01 0.  1.
         16    1    6    6    0    0 -0.57738696427E+02  0.20352357241E+03  0.14852590985E+03  0.25848703544E+03  0.00000000000E+00 0. -1.
         -5    1    3    3    0  503  0.60964002368E+02 -0.15112754643E+03 -0.91821758673E+03  0.93257802433E+03  0.47000000000E+01 0.  1.
         15    1    4    4    0    0  0.12712602967E+01 -0.26988945531E+02 -0.22759636412E+03  0.22920140046E+03  0.17770000000E+01 0. -1.
        -16    1    4    4    0    0 -0.62295621206E+01 -0.82819963626E+02 -0.13983119097E+03  0.16263676026E+03  0.00000000000E+00 0.  1.
<mgrwt>
<rscale>  2 0.31803417E+03</rscale>
<asrwt>0</asrwt>
<pdfrwt beam="1">  1       21 0.61804818E-01 0.31811130E+03</pdfrwt>
<pdfrwt beam="2">  1       21 0.21093377E+00 0.31811130E+03</pdfrwt>
<totfact> 0.24490463E+02</totfact>
</mgrwt>
</event>
<event>
12    2  0.4097182E-002  0.3084657E+03  0.7546771E-02  0.1081502E+00
         21   -1    0    0  501  502  0.00000000000E+00  0.00000000000E+00  0.14011415873E+03  0.14011415873E+03  0.00000000000E+00 0. -1.
         21   -1    0    0  502  503 -0.00000000000E+00 -0.00000000000E+00 -0.69717919797E+03  0.69717919797E+03  0.00000000000E+00 0. -1.
         -6    2    1    2    0  503 -0.10498175812E+03 -0.22850401580E+03 -0.35732400271E+03  0.46980514885E+03  0.17263018336E+03 0.  0.
        -24    2    3    3    0    0 -0.10698563063E+03 -0.70282645217E+02 -0.16586292308E+03  0.22137517356E+03  0.71490438770E+02 0.  0.
          6    2    1    2  501    0  0.10498175812E+03  0.22850401580E+03 -0.19974103654E+03  0.36748820785E+03  0.17865006704E+03 0.  0.
         24    2    5    5    0    0  0.94898573751E+02  0.25230091623E+03 -0.18771433938E+03  0.33859712753E+03  0.82157470317E+02 0.  0.
          5    1    5    5  501    0  0.10083184369E+02 -0.23796900435E+02 -0.12026697159E+02  0.28891080317E+02  0.47000000000E+01 0. -1.
        -15    1    6    6    0    0  0.16955680594E+02  0.13202137872E+03 -0.12335357723E+03  0.18148388989E+03  0.17770000000E+01 0.  1.
         16    1    6    6    0    0  0.77942893157E+02  0.12027953751E+03 -0.64360762154E+02  0.15711323764E+03  0.00000000000E+00 0. -1.
         -5    1    3    3    0  503  0.20038725093E+01 -0.15822137058E+03 -0.19146107962E+03  0.24842997529E+03  0.47000000000E+01 0.  1.
         15    1    4    4    0    0 -0.67492339862E+02 -0.68980961639E+02 -0.74817444437E+02  0.12212451322E+03  0.17770000000E+01 0. -1.
        -16    1    4    4    0    0 -0.39493290767E+02 -0.13016835780E+01 -0.91045478645E+02  0.99250660337E+02  0.00000000000E+00 0.  1.
<mgrwt>
<rscale>  2 0.30760034E+03</rscale>
<asrwt>0</asrwt>
<pdfrwt beam="1">  1       21 0.21556024E-01 0.30846572E+03</pdfrwt>
<pdfrwt beam="2">  1       21 0.10725834E+00 0.30846572E+03</pdfrwt>
<totfact> 0.13070238E+04</totfact>
</mgrwt>
</event>
<event>
12    2  0.4097182E-002  0.2237184E+03  0.7546771E-02  0.1131250E+00
         21   -1    0    0  501  502  0.00000000000E+00  0.00000000000E+00  0.13987182882E+04  0.13987182882E+04  0.00000000000E+00 0. -1.
         21   -1    0    0  502  503 -0.00000000000E+00 -0.00000000000E+00 -0.14485734006E+03  0.14485734006E+03  0.00000000000E+00 0. -1.
         -6    2    1    2    0  503  0.12944698661E+03  0.53663820146E+02 -0.42870042586E+02  0.22778882876E+03  0.17439490252E+03 0.  0.
        -24    2    3    3    0    0  0.55719998542E+02  0.74485861992E+02  0.25004575216E+02  0.12532771449E+03  0.80180704437E+02 0.  0.
          6    2    1    2  501    0 -0.12944698661E+03 -0.53663820146E+02  0.12967309907E+04  0.13157867995E+04  0.17362981160E+03 0.  0.
         24    2    5    5    0    0 -0.56281837992E+02 -0.95433575722E+02  0.91486878829E+03  0.92471304289E+03  0.76381275481E+02 0.  0.
          5    1    5    5  501    0 -0.73165148617E+02  0.41769755575E+02  0.38186220246E+03  0.39107375662E+03  0.47000000000E+01 0. -1.
        -15    1    6    6    0    0 -0.19748383261E+00 -0.68525046288E+02  0.36916618704E+03  0.37547643381E+03  0.17770000000E+01 0.  1.
         16    1    6    6    0    0 -0.56084354160E+02 -0.26908529433E+02  0.54570260125E+03  0.54923660908E+03  0.00000000000E+00 0. -1.
         -5    1    3    3    0  503  0.73726988067E+02 -0.20822041846E+02 -0.67874617802E+02  0.10246111427E+03  0.47000000000E+01 0.  1.
         15    1    4    4    0    0  0.42222635892E+01  0.12238507262E+02 -0.26479996432E+02  0.29528909730E+02  0.17770000000E+01 0. -1.
        -16    1    4    4    0    0  0.51497734953E+02  0.62247354730E+02  0.51484571648E+02  0.95798804762E+02  0.00000000000E+00 0.  1.
<mgrwt>
<rscale>  2 0.22356925E+03</rscale>
<asrwt>0</asrwt>
<pdfrwt beam="1">  1       21 0.21518742E+00 0.22371837E+03</pdfrwt>
<pdfrwt beam="2">  1       21 0.22285746E-01 0.22371837E+03</pdfrwt>
<totfact> 0.19662590E+03</totfact>
</mgrwt>
</event>
<event>
12    2  0.4097182E-002  0.2028485E+03  0.7546771E-02  0.1148412E+00
         21   -1    0    0  501  502  0.00000000000E+00  0.00000000000E+00  0.17162087533E+03  0.17162087533E+03  0.00000000000E+00 0.  1.
         21   -1    0    0  502  503 -0.00000000000E+00 -0.00000000000E+00 -0.28053128391E+03  0.28053128391E+03  0.00000000000E+00 0.  1.
         -6    2    1    2    0  503 -0.51784050634E+02  0.89550355653E+02 -0.14609252704E+03  0.24592412102E+03  0.16862619234E+03 0.  0.
        -24    2    3    3    0    0  0.12193134787E+02  0.65424355774E+02 -0.21386878005E+02  0.10362607807E+03  0.76498017238E+02 0.  0.
          6    2    1    2  501    0  0.51784050634E+02 -0.89550355653E+02  0.37182118462E+02  0.20622803822E+03  0.17448965504E+03 0.  0.
         24    2    5    5    0    0 -0.22988025989E+02 -0.59171702121E+02 -0.41166639490E+02  0.93647649584E+02  0.55185599525E+02 0.  0.
          5    1    5    5  501    0  0.74772076622E+02 -0.30378653532E+02  0.78348757952E+02  0.11258038864E+03  0.47000000000E+01 0. -1.
        -15    1    6    6    0    0 -0.47114540789E+01 -0.20761225510E+02  0.12821563941E+02  0.24915387116E+02  0.17770000000E+01 0.  1.
         16    1    6    6    0    0 -0.18276571910E+02 -0.38410476611E+02 -0.53988203431E+02  0.68732262468E+02  0.00000000000E+00 0. -1.
         -5    1    3    3    0  503 -0.63977185420E+02  0.24125999879E+02 -0.12470564904E+03  0.14229804294E+03  0.47000000000E+01 0.  1.
         15    1    4    4    0    0  0.32928082795E+02  0.22992789597E+00 -0.74817185173E+01  0.33814868688E+02  0.17770000000E+01 0. -1.
        -16    1    4    4    0    0 -0.20734948008E+02  0.65194427878E+02 -0.13905159488E+02  0.69811209383E+02  0.00000000000E+00 0.  1.
<mgrwt>
<rscale>  2 0.20158134E+03</rscale>
<asrwt>0</asrwt>
<pdfrwt beam="1">  1       21 0.26403212E-01 0.20284845E+03</pdfrwt>
<pdfrwt beam="2">  1       21 0.43158659E-01 0.20284845E+03</pdfrwt>
<totfact> 0.70103934E+04</totfact>
</mgrwt>
</event>
<event>
12    2  0.4097182E-002  0.1848516E+03  0.7546771E-02  0.1163451E+00
         21   -1    0    0  501  502  0.00000000000E+00  0.00000000000E+00  0.58096098704E+03  0.58096098704E+03  0.00000000000E+00 0.  1.
         21   -1    0    0  502  503 -0.00000000000E+00 -0.00000000000E+00 -0.81683976214E+02  0.81683976214E+02  0.00000000000E+00 0.  1.
         -6    2    1    2    0  503  0.47831596130E+02 -0.41201323332E+02  0.73519173929E+02  0.19893513995E+03  0.17373747535E+03 0.  0.
        -24    2    3    3    0    0  0.40280495412E+02 -0.52275748490E+02  0.11505146574E+03  0.15504113948E+03  0.80284761757E+02 0.  0.
          6    2    1    2  501    0 -0.47831596130E+02  0.41201323332E+02  0.42575783689E+03  0.46370982330E+03  0.17254464324E+03 0.  0.
         24    2    5    5    0    0 -0.79809740106E+00 -0.16910795225E+02  0.34011207296E+03  0.34992733253E+03  0.80537593219E+02 0.  0.
          5    1    5    5  501    0 -0.47033498729E+02  0.58112118557E+02  0.85645763933E+02  0.11378249077E+03  0.47000000000E+01 0. -1.
        -15    1    6    6    0    0 -0.14313048427E+02  0.27309063760E+02  0.80330221286E+02  0.86062480208E+02  0.17770000000E+01 0.  1.
         16    1    6    6    0    0  0.13514951026E+02 -0.44219858985E+02  0.25978185168E+03  0.26386485232E+03  0.00000000000E+00 0. -1.
         -5    1    3    3    0  503  0.75511007179E+01  0.11074425158E+02 -0.41532291813E+02  0.43894000477E+02  0.47000000000E+01 0.  1.
         15    1    4    4    0    0 -0.21768444488E+02  0.21384296581E-01  0.16459901706E+02  0.27348706110E+02  0.17770000000E+01 0. -1.
        -16    1    4    4    0    0  0.62048939900E+02 -0.52297132786E+02  0.98591564036E+02  0.12769243337E+03  0.00000000000E+00 0.  1.
<mgrwt>
<rscale>  2 0.18457081E+03</rscale>
<asrwt>0</asrwt>
<pdfrwt beam="1">  1       21 0.89378611E-01 0.18485162E+03</pdfrwt>
<pdfrwt beam="2">  1       21 0.12566766E-01 0.18485162E+03</pdfrwt>
<totfact> 0.57884958E+04</totfact>
</mgrwt>
</event>
<event>
12    2  0.4097182E-002  0.2899288E+03  0.7546771E-02  0.1090470E+00
         21   -1    0    0  503  502  0.00000000000E+00  0.00000000000E+00  0.14617462837E+04  0.14617462837E+04  0.00000000000E+00 0. -1.
         21   -1    0    0  501  503 -0.00000000000E+00 -0.00000000000E+00 -0.58896007603E+02  0.58896007603E+02  0.00000000000E+00 0.  1.
          6    2    1    2  501    0 -0.16011042436E+03 -0.16800570386E+03  0.82271181884E+03  0.87209054914E+03  0.17270183701E+03 0.  0.
         24    2    3    3    0    0 -0.17433162726E+03 -0.14022081613E+03  0.79601003385E+03  0.83074665091E+03  0.80340714950E+02 0.  0.
         -6    2    1    2    0  502  0.16011042436E+03  0.16800570386E+03  0.58013845728E+03  0.64855174220E+03  0.17377418730E+03 0.  0.
        -24    2    5    5    0    0  0.14628417659E+03  0.12643615590E+03  0.30285261061E+03  0.36778720880E+03  0.78502008698E+02 0.  0.
          5    1    3    3  501    0  0.14221202901E+02 -0.27784887732E+02  0.26701784998E+02  0.41343898223E+02  0.47000000000E+01 0. -1.
        -15    1    4    4    0    0 -0.47649881932E+02 -0.59283653321E+02  0.15936752709E+03  0.17659623218E+03  0.17770000000E+01 0.  1.
         16    1    4    4    0    0 -0.12668174533E+03 -0.80937162811E+02  0.63664250676E+03  0.65415041874E+03  0.00000000000E+00 0. -1.
         -5    1    5    5    0  502  0.13826247766E+02  0.41569547966E+02  0.27728584667E+03  0.28076453339E+03  0.47000000000E+01 0.  1.
         15    1    6    6    0    0  0.46754437654E+02  0.89151802335E+02  0.12388791117E+03  0.15964145315E+03  0.17770000000E+01 0. -1.
        -16    1    6    6    0    0  0.99529738937E+02  0.37284353563E+02  0.17896469944E+03  0.20814575566E+03  0.00000000000E+00 0.  1.
<mgrwt>
<rscale>  2 0.28976834E+03</rscale>
<asrwt>0</asrwt>
<pdfrwt beam="1">  1       21 0.22488402E+00 0.28992884E+03</pdfrwt>
<pdfrwt beam="2">  1       21 0.90609253E-02 0.28992884E+03</pdfrwt>
<totfact> 0.84251327E+03</totfact>
</mgrwt>
</event>
<event>
12    2  0.4097182E-002  0.2196354E+03  0.7546771E-02  0.1135054E+00
         21   -1    0    0  503  502  0.00000000000E+00  0.00000000000E+00  0.64140697459E+02  0.64140697459E+02  0.00000000000E+00 0. -1.
         21   -1    0    0  501  503 -0.00000000000E+00 -0.00000000000E+00 -0.14989710100E+04  0.14989710100E+04  0.00000000000E+00 0. -1.
          6    2    1    2  501    0  0.12669529224E+03  0.48594387057E+01 -0.12788891772E+04  0.12976121268E+04  0.17934434156E+03 0.  0.
         24    2    3    3    0    0  0.10068164557E+03  0.47669579028E+02 -0.54099274033E+03  0.55800232463E+03  0.79273366792E+02 0.  0.
         -6    2    1    2    0  502 -0.12669529224E+03 -0.48594387057E+01 -0.15594113529E+03  0.26549958060E+03  0.17348509562E+03 0.  0.
        -24    2    5    5    0    0 -0.50487982299E+02  0.61334693659E+02 -0.67655850952E+02  0.13131463853E+03  0.79719753647E+02 0.  0.
          5    1    3    3  501    0  0.26013646671E+02 -0.42810140323E+02 -0.73789643689E+03  0.73960980220E+03  0.47000000000E+01 0. -1.
        -15    1    4    4    0    0  0.87570244275E+02  0.81265466580E+01 -0.27385661723E+03  0.28763725936E+03  0.17770000000E+01 0.  1.
         16    1    4    4    0    0  0.13111401297E+02  0.39543032370E+02 -0.26713612310E+03  0.27036506527E+03  0.00000000000E+00 0. -1.
         -5    1    5    5    0  502 -0.76207309944E+02 -0.66194132364E+02 -0.88285284336E+02  0.13418494207E+03  0.47000000000E+01 0.  1.
         15    1    6    6    0    0 -0.19050397075E+02 -0.10417488599E+02  0.72185537239E+01  0.22950096826E+02  0.17770000000E+01 0. -1.
        -16    1    6    6    0    0 -0.31437585223E+02  0.71752182257E+02 -0.74874404676E+02  0.10836454170E+03  0.00000000000E+00 0.  1.
<mgrwt>
<rscale>  2 0.21843616E+03</rscale>
<asrwt>0</asrwt>
<pdfrwt beam="1">  1       21 0.98677998E-02 0.21963539E+03</pdfrwt>
<pdfrwt beam="2">  1       21 0.23061092E+00 0.21963539E+03</pdfrwt>
<totfact> 0.70292680E+03</totfact>
</mgrwt>
</event>
<event>
12    2  0.4097182E-002  0.1733883E+03  0.7546771E-02  0.1174741E+00
         21   -1    0    0  503  502  0.00000000000E+00  0.00000000000E+00  0.84479762694E+02  0.84479762694E+02  0.00000000000E+00 0.  1.
         21   -1    0    0  501  503 -0.00000000000E+00 -0.00000000000E+00 -0.50675376346E+03  0.50675376346E+03  0.00000000000E+00 0.  1.
          6    2    1    2  501    0  0.13470388751E+02 -0.61500360718E+01 -0.37343593284E+03  0.41109844206E+03  0.17125495266E+03 0.  0.
         24    2    3    3    0    0  0.13589210752E+01 -0.69093695597E+02 -0.20855303926E+03  0.23413220087E+03  0.80918056477E+02 0.  0.
         -6    2    1    2    0  502 -0.13470388751E+02  0.61500360718E+01 -0.48838067926E+02  0.18013508409E+03  0.17275478959E+03 0.  0.
        -24    2    5    5    0    0  0.14365294516E+02  0.37254947356E+02  0.27089070717E+02  0.93363192612E+02  0.79928563063E+02 0.  0.
          5    1    3    3  501    0  0.12111467676E+02  0.62943659525E+02 -0.16488289358E+03  0.17696624118E+03  0.47000000000E+01 0. -1.
        -15    1    4    4    0    0  0.33718556933E+02 -0.17359612939E+02 -0.41320316347E+02  0.56114378861E+02  0.17770000000E+01 0.  1.
         16    1    4    4    0    0 -0.32359635857E+02 -0.51734082658E+02 -0.16723272291E+03  0.17801782201E+03  0.00000000000E+00 0. -1.
         -5    1    5    5    0  502 -0.27835683267E+02 -0.31104911285E+02 -0.75927138643E+02  0.86771891483E+02  0.47000000000E+01 0.  1.
         15    1    6    6    0    0  0.23215073586E+02  0.26147358379E+02  0.53172535014E+02  0.63663963124E+02  0.17770000000E+01 0. -1.
        -16    1    6    6    0    0 -0.88497790701E+01  0.11107588977E+02 -0.26083464296E+02  0.29699229488E+02  0.00000000000E+00 0.  1.
<mgrwt>
<rscale>  2 0.17301348E+03</rscale>
<asrwt>0</asrwt>
<pdfrwt beam="1">  1       21 0.12996887E-01 0.17338827E+03</pdfrwt>
<pdfrwt beam="2">  1       21 0.77962117E-01 0.17338827E+03</pdfrwt>
<totfact> 0.74755994E+04</totfact>
</mgrwt>
</event>
<event>
12    2  0.4097182E-002  0.2067594E+03  0.7546771E-02  0.1145143E+00
         21   -1    0    0  501  502  0.00000000000E+00  0.00000000000E+00  0.12871472872E+03  0.12871472872E+03  0.00000000000E+00 0.  1.
         21   -1    0    0  502  503 -0.00000000000E+00 -0.00000000000E+00 -0.52548353732E+03  0.52548353732E+03  0.00000000000E+00 0.  1.
         -6    2    1    2    0  503  0.87927008083E+02  0.48946188426E+02 -0.39925806531E+03  0.44742389451E+03  0.17508355306E+03 0.  0.
        -24    2    3    3    0    0  0.30057251393E+02 -0.16155641008E+02 -0.31340422799E+03  0.32503056006E+03  0.79108860155E+02 0.  0.
          6    2    1    2  501    0 -0.87927008083E+02 -0.48946188426E+02  0.24892567053E+01  0.20677437154E+03  0.18061715371E+03 0.  0.
         24    2    5    5    0    0 -0.66807403390E+01 -0.88509990758E+02 -0.89691028877E+01  0.11556234118E+03  0.73454469825E+02 0.  0.
          5    1    5    5  501    0 -0.81246267744E+02  0.39563802332E+02  0.11458359593E+02  0.91212030357E+02  0.47000000000E+01 0. -1.
        -15    1    6    6    0    0 -0.39143743005E+02 -0.50662703467E+02  0.35712586979E+01  0.64147125864E+02  0.17770000000E+01 0.  1.
         16    1    6    6    0    0  0.32463002666E+02 -0.37847287291E+02 -0.12540361586E+02  0.51415215317E+02  0.00000000000E+00 0. -1.
         -5    1    3    3    0  503  0.57869756690E+02  0.65101829434E+02 -0.85853837318E+02  0.12239333445E+03  0.47000000000E+01 0.  1.
         15    1    4    4    0    0 -0.26795326496E+02 -0.10215504262E+02 -0.93211620688E+02  0.97539274191E+02  0.17770000000E+01 0. -1.
        -16    1    4    4    0    0  0.56852577889E+02 -0.59401367468E+01 -0.22019260730E+03  0.22749128587E+03  0.00000000000E+00 0.  1.
<mgrwt>
<rscale>  2 0.20554473E+03</rscale>
<asrwt>0</asrwt>
<pdfrwt beam="1">  1       21 0.19802266E-01 0.20675939E+03</pdfrwt>
<pdfrwt beam="2">  1       21 0.80843621E-01 0.20675939E+03</pdfrwt>
<totfact> 0.31337917E+04</totfact>
</mgrwt>
</event>
<event>
12    2  0.4097182E-002  0.2403162E+03  0.7546771E-02  0.1119724E+00
         21   -1    0    0  501  502  0.00000000000E+00  0.00000000000E+00  0.83562309512E+03  0.83562309512E+03  0.00000000000E+00 0.  1.
         21   -1    0    0  502  503 -0.00000000000E+00 -0.00000000000E+00 -0.71832694848E+02  0.71832694848E+02  0.00000000000E+00 0.  1.
         -6    2    1    2    0  503 -0.10269337872E+02  0.16472957827E+03  0.29036604314E+03  0.37691421484E+03  0.17467281725E+03 0.  0.
        -24    2    3    3    0    0  0.21877148427E+02  0.19027171741E+02  0.67800999545E+02  0.10892190809E+03  0.80164603379E+02 0.  0.
          6    2    1    2  501    0  0.10269337872E+02 -0.16472957827E+03  0.47342435714E+03  0.53054157513E+03  0.17350056989E+03 0.  0.
         24    2    5    5    0    0 -0.43128358674E+02 -0.15822382153E+03  0.40702068528E+03  0.44495433015E+03  0.73645669610E+02 0.  0.
          5    1    5    5  501    0  0.53397696546E+02 -0.65057567426E+01  0.66403671855E+02  0.85587244979E+02  0.47000000000E+01 0. -1.
        -15    1    6    6    0    0 -0.15826659491E+02 -0.12779402592E+03  0.36158161740E+03  0.38383097840E+03  0.17770000000E+01 0.  1.
         16    1    6    6    0    0 -0.27301699183E+02 -0.30429795607E+02  0.45439067885E+02  0.61123351751E+02  0.00000000000E+00 0. -1.
         -5    1    3    3    0  503 -0.32146486299E+02  0.14570240653E+03  0.22256504359E+03  0.26799230675E+03  0.47000000000E+01 0.  1.
         15    1    4    4    0    0 -0.22619423641E+02  0.17820961808E+02  0.55803523126E+02  0.62820505632E+02  0.17770000000E+01 0. -1.
        -16    1    4    4    0    0  0.44496572068E+02  0.12062099326E+01  0.11997476420E+02  0.46101402458E+02  0.00000000000E+00 0.  1.
<mgrwt>
<rscale>  2 0.24010327E+03</rscale>
<asrwt>0</asrwt>
<pdfrwt beam="1">  1       21 0.12855739E+00 0.24031622E+03</pdfrwt>
<pdfrwt beam="2">  1       21 0.11051184E-01 0.24031622E+03</pdfrwt>
<totfact> 0.29423371E+04</totfact>
</mgrwt>
</event>
<event>
12    2  0.4097182E-002  0.1757122E+03  0.7546771E-02  0.1172272E+00
         21   -1    0    0  503  502  0.00000000000E+00  0.00000000000E+00  0.62661197559E+02  0.62661197559E+02  0.00000000000E+00 0. -1.
         21   -1    0    0  501  503 -0.00000000000E+00 -0.00000000000E+00 -0.77740579231E+03  0.77740579231E+03  0.00000000000E+00 0. -1.
          6    2    1    2  501    0 -0.25063545627E+02 -0.78294171590E+01 -0.61346399334E+03  0.63813231195E+03  0.17373915892E+03 0.  0.
         24    2    3    3    0    0 -0.81694565539E+02 -0.15433029358E+02 -0.47552556981E+03  0.48875364540E+03  0.76441990534E+02 0.  0.
         -6    2    1    2    0  502  0.25063545627E+02  0.78294171590E+01 -0.10128060141E+03  0.20193467792E+03  0.17271471515E+03 0.  0.
        -24    2    5    5    0    0  0.81891249949E+02 -0.10417351411E+02 -0.62739431863E+02  0.13073183884E+03  0.79623359314E+02 0.  0.
          5    1    3    3  501    0  0.56631019912E+02  0.76036121992E+01 -0.13793842353E+03  0.14937866655E+03  0.47000000000E+01 0. -1.
        -15    1    4    4    0    0 -0.31913917539E+02  0.30212196602E+02 -0.15102931569E+03  0.15730316870E+03  0.17770000000E+01 0.  1.
         16    1    4    4    0    0 -0.49780648000E+02 -0.45645225960E+02 -0.32449625412E+03  0.33145047670E+03  0.00000000000E+00 0. -1.
         -5    1    5    5    0  502 -0.56827704322E+02  0.18246768570E+02 -0.38541169547E+02  0.71202839071E+02  0.47000000000E+01 0.  1.
         15    1    6    6    0    0 -0.20592363742E+01  0.19010137760E+02 -0.30636602458E+02  0.36157778296E+02  0.17770000000E+01 0. -1.
        -16    1    6    6    0    0  0.83950486323E+02 -0.29427489171E+02 -0.32102829405E+02  0.94574060549E+02  0.00000000000E+00 0.  1.
<mgrwt>
<rscale>  2 0.17545843E+03</rscale>
<asrwt>0</asrwt>
<pdfrwt beam="1">  1       21 0.96401844E-02 0.17571220E+03</pdfrwt>
<pdfrwt beam="2">  1       21 0.11960089E+00 0.17571220E+03</pdfrwt>
<totfact> 0.46512470E+04</totfact>
</mgrwt>
</event>
<event>
12    2  0.4097182E-002  0.2625827E+03  0.7546771E-02  0.1105602E+00
         21   -1    0    0  501  502  0.00000000000E+00  0.00000000000E+00  0.11811603510E+03  0.11811603510E+03  0.00000000000E+00 0.  1.
         21   -1    0    0  502  503 -0.00000000000E+00 -0.00000000000E+00 -0.15457599788E+04  0.15457599788E+04  0.00000000000E+00 0. -1.
         -6    2    1    2    0  503  0.18519250872E+03 -0.69484323438E+02 -0.13701363044E+04  0.13950710234E+04  0.17270011939E+03 0.  0.
        -24    2    3    3    0    0  0.71022849058E+02 -0.66169299395E+02 -0.43218623068E+03  0.45018048406E+03  0.80342448084E+02 0.  0.
          6    2    1    2  501    0 -0.18519250872E+03  0.69484323438E+02 -0.57507639235E+02  0.26880499043E+03  0.17269816970E+03 0.  0.
         24    2    5    5    0    0 -0.11472712344E+03  0.95228745941E+02  0.85250580624E+01  0.16875223972E+03  0.78573627171E+02 0.  0.
          5    1    5    5  501    0 -0.70465385277E+02 -0.25744422503E+02 -0.66032697297E+02  0.10005275071E+03  0.47000000000E+01 0. -1.
        -15    1    6    6    0    0 -0.67667250651E+02  0.31950941728E+02  0.38764303609E+02  0.84294415303E+02  0.17770000000E+01 0.  1.
         16    1    6    6    0    0 -0.47059872793E+02  0.63277804212E+02 -0.30239245547E+02  0.84457824412E+02  0.00000000000E+00 0. -1.
         -5    1    3    3    0  503  0.11416965966E+03 -0.33150240426E+01 -0.93795007375E+03  0.94489053938E+03  0.47000000000E+01 0.  1.
         15    1    4    4    0    0  0.56403144311E+01 -0.14376957763E+02 -0.24210420399E+03  0.24260278931E+03  0.17770000000E+01 0. -1.
        -16    1    4    4    0    0  0.65382534627E+02 -0.51792341632E+02 -0.19008202669E+03  0.20757769475E+03  0.00000000000E+00 0.  1.
<mgrwt>
<rscale>  2 0.26258237E+03</rscale>
<asrwt>0</asrwt>
<pdfrwt beam="1">  1       21 0.18171698E-01 0.26258269E+03</pdfrwt>
<pdfrwt beam="2">  1       21 0.23780922E+00 0.26258269E+03</pdfrwt>
<totfact> 0.20245964E+03</totfact>
</mgrwt>
</event>
<event>
12    2  0.4097182E-002  0.1995627E+03  0.7546771E-02  0.1150188E+00
         21   -1    0    0  501  502  0.00000000000E+00  0.00000000000E+00  0.11284686367E+03  0.11284686367E+03  0.00000000000E+00 0. -1.
         21   -1    0    0  502  503 -0.00000000000E+00 -0.00000000000E+00 -0.39344261454E+03  0.39344261454E+03  0.00000000000E+00 0. -1.
         -6    2    1    2    0  503  0.82514095482E+02  0.59209112386E+02 -0.58508584026E+02  0.20796280257E+03  0.17178759532E+03 0.  0.
        -24    2    3    3    0    0  0.10580125112E+03  0.12548180285E+02 -0.73691000024E+02  0.15344555798E+03  0.82242411276E+02 0.  0.
          6    2    1    2  501    0 -0.82514095482E+02 -0.59209112386E+02 -0.22208716685E+03  0.29832667563E+03  0.17135285458E+03 0.  0.
         24    2    5    5    0    0 -0.67355462895E+02 -0.45093795806E+02 -0.49521306053E+02  0.12445864345E+03  0.80420055792E+02 0.  0.
          5    1    5    5  501    0 -0.15158632587E+02 -0.14115316580E+02 -0.17256586080E+03  0.17386803219E+03  0.47000000000E+01 0. -1.
        -15    1    6    6    0    0 -0.65077476895E+02 -0.81564850773E+00 -0.11632336892E+02  0.66137827845E+02  0.17770000000E+01 0.  1.
         16    1    6    6    0    0 -0.22779859998E+01 -0.44278147298E+02 -0.37888969161E+02  0.58320815602E+02  0.00000000000E+00 0. -1.
         -5    1    3    3    0  503 -0.23287155637E+02  0.46660932101E+02  0.15182415998E+02  0.54517244591E+02  0.47000000000E+01 0.  1.
         15    1    4    4    0    0  0.62691152957E+02  0.30877669026E+02 -0.79930505787E+02  0.10618688520E+03  0.17770000000E+01 0. -1.
        -16    1    4    4    0    0  0.43110098162E+02 -0.18329488741E+02  0.62395057629E+01  0.47258672783E+02  0.00000000000E+00 0.  1.
<mgrwt>
<rscale>  2 0.19946911E+03</rscale>
<asrwt>0</asrwt>
<pdfrwt beam="1">  1       21 0.17361056E-01 0.19956270E+03</pdfrwt>
<pdfrwt beam="2">  1       21 0.60529632E-01 0.19956270E+03</pdfrwt>
<totfact> 0.76081988E+04</totfact>
</mgrwt>
</event>
<event>
12    2  0.4097182E-002  0.2255777E+03  0.7546771E-02  0.1130491E+00
         21   -1    0    0  503  502  0.00000000000E+00  0.00000000000E+00  0.90756545720E+03  0.90756545720E+03  0.00000000000E+00 0. -1.
         21   -1    0    0  501  503 -0.00000000000E+00 -0.00000000000E+00 -0.57654732123E+02  0.57654732123E+02  0.00000000000E+00 0.  1.
          6    2    1    2  501    0 -0.13109716495E+03  0.61672755215E+02  0.32719436614E+03  0.39741846091E+03  0.17290252875E+03 0.  0.
         24    2    3    3    0    0 -0.14347351018E+03  0.42075444252E+02  0.17356558797E+03  0.24197998433E+03  0.77937849338E+02 0.  0.
         -6    2    1    2    0  502  0.13109716495E+03 -0.61672755215E+02  0.52271635894E+03  0.56780172842E+03  0.16785831971E+03 0.  0.
        -24    2    5    5    0    0  0.13396845022E+03 -0.58861866719E+02  0.28982840606E+03  0.33483170037E+03  0.81850458770E+02 0.  0.
          5    1    3    3  501    0  0.12376345233E+02  0.19597310963E+02  0.15362877817E+03  0.15543847658E+03  0.47000000000E+01 0. -1.
        -15    1    4    4    0    0 -0.79363822958E+02  0.53900249217E+02  0.66908724062E+02  0.11697772585E+03  0.17770000000E+01 0.  1.
         16    1    4    4    0    0 -0.64109687222E+02 -0.11824804965E+02  0.10665686391E+03  0.12500225849E+03  0.00000000000E+00 0. -1.
         -5    1    5    5    0  502 -0.28712852775E+01 -0.28108884968E+01  0.23288795288E+03  0.23297002805E+03  0.47000000000E+01 0.  1.
         15    1    6    6    0    0 -0.49934584935E+01 -0.79464350933E+00  0.58830460403E+02  0.59074079648E+02  0.17770000000E+01 0. -1.
        -16    1    6    6    0    0  0.13896190872E+03 -0.58067223209E+02  0.23099794566E+03  0.27575762072E+03  0.00000000000E+00 0.  1.
<mgrwt>
<rscale>  2 0.22461080E+03</rscale>
<asrwt>0</asrwt>
<pdfrwt beam="1">  1       21 0.13962544E+00 0.22557766E+03</pdfrwt>
<pdfrwt beam="2">  1       21 0.88699595E-02 0.22557766E+03</pdfrwt>
<totfact> 0.35435124E+04</totfact>
</mgrwt>
</event>
<event>
12    2  0.4097182E-002  0.2596351E+03  0.7546771E-02  0.1107399E+00
         21   -1    0    0  501  502  0.00000000000E+00  0.00000000000E+00  0.33848617631E+03  0.33848617631E+03  0.00000000000E+00 0. -1.
         21   -1    0    0  502  503 -0.00000000000E+00 -0.00000000000E+00 -0.24761460071E+03  0.24761460071E+03  0.00000000000E+00 0.  1.
         -6    2    1    2    0  503 -0.18365907057E+03 -0.61512545666E+02 -0.84436357354E+02  0.27301993742E+03  0.17290442536E+03 0.  0.
        -24    2    3    3    0    0 -0.33405688695E+02 -0.34471415290E+02 -0.76408737677E+02  0.12006950697E+03  0.79209676182E+02 0.  0.
          6    2    1    2  501    0  0.18365907057E+03  0.61512545666E+02  0.17530793295E+03  0.31308083960E+03  0.17254649602E+03 0.  0.
         24    2    5    5    0    0  0.14194928574E+03  0.36155336085E+02  0.62245447912E+02  0.18984160172E+03  0.10348202699E+03 0.  0.
          5    1    5    5  501    0  0.41709784832E+02  0.25357209580E+02  0.11306248504E+03  0.12323923788E+03  0.47000000000E+01 0. -1.
        -15    1    6    6    0    0  0.21673129297E+02  0.52801216459E+01  0.61734070824E+02  0.65664735191E+02  0.17770000000E+01 0.  1.
         16    1    6    6    0    0  0.12027615644E+03  0.30875214440E+02  0.51137708727E+00  0.12417686653E+03  0.00000000000E+00 0. -1.
         -5    1    3    3    0  503 -0.15025338188E+03 -0.27041130376E+02 -0.80276196767E+01  0.15295043045E+03  0.47000000000E+01 0.  1.
         15    1    4    4    0    0 -0.15555681337E+02  0.17122668384E+02 -0.57977382132E+02  0.62447574511E+02  0.17770000000E+01 0. -1.
        -16    1    4    4    0    0 -0.17850007358E+02 -0.51594083674E+02 -0.18431355545E+02  0.57621932457E+02  0.00000000000E+00 0.  1.
<mgrwt>
<rscale>  2 0.25957553E+03</rscale>
<asrwt>0</asrwt>
<pdfrwt beam="1">  1       21 0.52074796E-01 0.25963511E+03</pdfrwt>
<pdfrwt beam="2">  1       21 0.38094554E-01 0.25963511E+03</pdfrwt>
<totfact> 0.22459203E+04</totfact>
</mgrwt>
</event>
<event>
12    2  0.4097182E-002  0.2038428E+03  0.7546771E-02  0.1147541E+00
         21   -1    0    0  501  502  0.00000000000E+00  0.00000000000E+00  0.75672861986E+02  0.75672861986E+02  0.00000000000E+00 0.  1.
         21   -1    0    0  502  503 -0.00000000000E+00 -0.00000000000E+00 -0.55001872051E+03  0.55001872051E+03  0.00000000000E+00 0.  1.
         -6    2    1    2    0  503 -0.10795177873E+03 -0.57062213425E+01 -0.28400755266E+03  0.34679989959E+03  0.16710395834E+03 0.  0.
        -24    2    3    3    0    0 -0.63998354287E+01 -0.28628225372E+02 -0.17578445651E+03  0.19655828087E+03  0.82912299713E+02 0.  0.
          6    2    1    2  501    0  0.10795177873E+03  0.57062213425E+01 -0.19033830586E+03  0.27889168290E+03  0.17281710744E+03 0.  0.
         24    2    5    5    0    0  0.83798703636E+02  0.68247618317E+02 -0.11066120135E+03  0.17465479713E+03  0.81107561552E+02 0.  0.
          5    1    5    5  501    0  0.24153075091E+02 -0.62541396975E+02 -0.79677104510E+02  0.10423688577E+03  0.47000000000E+01 0. -1.
        -15    1    6    6    0    0  0.38144997904E+02 -0.13869418115E+02 -0.26402327913E+02  0.48452474366E+02  0.17770000000E+01 0.  1.
         16    1    6    6    0    0  0.45653705732E+02  0.82117036432E+02 -0.84258873437E+02  0.12620232277E+03  0.00000000000E+00 0. -1.
         -5    1    3    3    0  503 -0.10155194330E+03  0.22922004029E+02 -0.10822309615E+03  0.15024161872E+03  0.47000000000E+01 0.  1.
         15    1    4    4    0    0 -0.33813805304E+02 -0.29019990270E+02 -0.46613557176E+02  0.64509803178E+02  0.17770000000E+01 0. -1.
        -16    1    4    4    0    0  0.27413969875E+02  0.39176489835E+00 -0.12917089934E+03  0.13204847769E+03  0.00000000000E+00 0.  1.
<mgrwt>
<rscale>  2 0.20262686E+03</rscale>
<asrwt>0</asrwt>
<pdfrwt beam="1">  1       21 0.11641979E-01 0.20384283E+03</pdfrwt>
<pdfrwt beam="2">  1       21 0.84618266E-01 0.20384283E+03</pdfrwt>
<totfact> 0.74613896E+04</totfact>
</mgrwt>
</event>
<event>
12    2  0.4097182E-002  0.1792184E+03  0.7546771E-02  0.1169253E+00
         21   -1    0    0  501  502  0.00000000000E+00  0.00000000000E+00  0.95650587762E+02  0.95650587762E+02  0.00000000000E+00 0. -1.
         21   -1    0    0  502  503 -0.00000000000E+00 -0.00000000000E+00 -0.37194252087E+03  0.37194252087E+03  0.00000000000E+00 0. -1.
         -6    2    1    2    0  503 -0.40908812942E+01 -0.39607637024E+02 -0.21517306259E+03  0.27823956586E+03  0.17184966955E+03 0.  0.
        -24    2    3    3    0    0  0.56810414562E+02  0.44448407638E+01 -0.14262100179E+03  0.17366671966E+03  0.81069103565E+02 0.  0.
          6    2    1    2  501    0  0.40908812942E+01  0.39607637024E+02 -0.61118870518E+02  0.18935354277E+03  0.17473908437E+03 0.  0.
         24    2    5    5    0    0  0.24965706688E+01  0.92368619393E+02 -0.24425454641E+02  0.12489611608E+03  0.80400511591E+02 0.  0.
          5    1    5    5  501    0  0.15943106254E+01 -0.52760982369E+02 -0.36693415877E+02  0.64457426691E+02  0.47000000000E+01 0. -1.
        -15    1    6    6    0    0 -0.14534746561E+00 -0.95347861470E+01  0.13074350186E+02  0.16279730788E+02  0.17770000000E+01 0.  1.
         16    1    6    6    0    0  0.26419181344E+01  0.10190340554E+03 -0.37499804827E+02  0.10861638529E+03  0.00000000000E+00 0. -1.
         -5    1    3    3    0  503 -0.60901295857E+02 -0.44052477788E+02 -0.72552060795E+02  0.10457284620E+03  0.47000000000E+01 0.  1.
         15    1    4    4    0    0 -0.15385171660E+01 -0.22533823382E+02 -0.82837911722E+02  0.85880251390E+02  0.17770000000E+01 0. -1.
        -16    1    4    4    0    0  0.58348931728E+02  0.26978664146E+02 -0.59783090069E+02  0.87786468269E+02  0.00000000000E+00 0.  1.
<mgrwt>
<rscale>  2 0.17851024E+03</rscale>
<asrwt>0</asrwt>
<pdfrwt beam="1">  1       21 0.14715475E-01 0.17921844E+03</pdfrwt>
<pdfrwt beam="2">  1       21 0.57221927E-01 0.17921844E+03</pdfrwt>
<totfact> 0.11705214E+05</totfact>
</mgrwt>
</event>
<event>
12    2  0.4097182E-002  0.1945286E+03  0.7546771E-02  0.1154886E+00
         21   -1    0    0  501  502  0.00000000000E+00  0.00000000000E+00  0.19910599307E+03  0.19910599307E+03  0.00000000000E+00 0.  1.
         21   -1    0    0  502  503 -0.00000000000E+00 -0.00000000000E+00 -0.20597222889E+03  0.20597222889E+03  0.00000000000E+00 0.  1.
         -6    2    1    2    0  503  0.79120840424E+02  0.24606260856E+02 -0.63153756661E+02  0.20452331435E+03  0.17599947065E+03 0.  0.
        -24    2    3    3    0    0  0.99719168583E+02  0.10473576865E+02 -0.97376326219E+02  0.16189353430E+03  0.81693078923E+02 0.  0.
          6    2    1    2  501    0 -0.79120840424E+02 -0.24606260856E+02  0.56287520844E+02  0.20055490761E+03  0.17374812374E+03 0.  0.
         24    2    5    5    0    0 -0.10127323282E+03 -0.11517770551E+02  0.94292398346E+02  0.15441926216E+03  0.67567191864E+02 0.  0.
          5    1    5    5  501    0  0.22152392395E+02 -0.13088490305E+02 -0.38004877502E+02  0.46135645452E+02  0.47000000000E+01 0. -1.
        -15    1    6    6    0    0 -0.34231334349E+02 -0.35830536386E+02  0.50276739405E+02  0.70615294684E+02  0.17770000000E+01 0.  1.
         16    1    6    6    0    0 -0.67041898469E+02  0.24312765835E+02  0.44015658941E+02  0.83803967477E+02  0.00000000000E+00 0. -1.
         -5    1    3    3    0  503 -0.20598328159E+02  0.14132683991E+02  0.34222569559E+02  0.42629780048E+02  0.47000000000E+01 0.  1.
         15    1    4    4    0    0  0.62447826250E+02  0.27403811212E+02 -0.14915597582E+02  0.69830742890E+02  0.17770000000E+01 0. -1.
        -16    1    4    4    0    0  0.37271342333E+02 -0.16930234347E+02 -0.82460728637E+02  0.92062791407E+02  0.00000000000E+00 0.  1.
<mgrwt>
<rscale>  2 0.19401800E+03</rscale>
<asrwt>0</asrwt>
<pdfrwt beam="1">  1       21 0.30631691E-01 0.19452863E+03</pdfrwt>
<pdfrwt beam="2">  1       21 0.31688035E-01 0.19452863E+03</pdfrwt>
<totfact> 0.97894791E+04</totfact>
</mgrwt>
</event>
<event>
12    2  0.4097182E-002  0.1779275E+03  0.7546771E-02  0.1170283E+00
         21   -1    0    0  503  502  0.00000000000E+00  0.00000000000E+00  0.27981064826E+02  0.27981064826E+02  0.00000000000E+00 0. -1.
         21   -1    0    0  501  503 -0.00000000000E+00 -0.00000000000E+00 -0.14038764924E+04  0.14038764924E+04  0.00000000000E+00 0. -1.
          6    2    1    2  501    0 -0.26845188568E+01  0.36067107075E+02 -0.10072083566E+04  0.10224819963E+04  0.17231574588E+03 0.  0.
         24    2    3    3    0    0  0.61957753361E+02  0.30704086678E+02 -0.52692308106E+03  0.53781363417E+03  0.82547365788E+02 0.  0.
         -6    2    1    2    0  502  0.26845188568E+01 -0.36067107075E+02 -0.36868707098E+03  0.40937556094E+03  0.17421294651E+03 0.  0.
        -24    2    5    5    0    0  0.23168680121E+02 -0.19546727235E+02 -0.72520750963E+02  0.11200524816E+03  0.79793821881E+02 0.  0.
          5    1    3    3  501    0 -0.64642272218E+02  0.53630203964E+01 -0.48028527550E+03  0.48466836208E+03  0.47000000000E+01 0. -1.
        -15    1    4    4    0    0  0.55206958060E+02  0.88780511985E+01 -0.14829098790E+03  0.15849291099E+03  0.17770000000E+01 0.  1.
         16    1    4    4    0    0  0.67507953016E+01  0.21826035480E+02 -0.37863209316E+03  0.37932072318E+03  0.00000000000E+00 0. -1.
         -5    1    5    5    0  502 -0.20484161264E+02 -0.16520379840E+02 -0.29616632001E+03  0.29737031278E+03  0.47000000000E+01 0.  1.
         15    1    6    6    0    0  0.31060442151E+02  0.25015725163E+01 -0.81230068960E+02  0.87020059549E+02  0.17770000000E+01 0. -1.
        -16    1    6    6    0    0 -0.78917620305E+01 -0.22048299751E+02  0.87093179963E+01  0.24985188609E+02  0.00000000000E+00 0.  1.
<mgrwt>
<rscale>  2 0.17746137E+03</rscale>
<asrwt>0</asrwt>
<pdfrwt beam="1">  1       21 0.43047783E-02 0.17792750E+03</pdfrwt>
<pdfrwt beam="2">  1       21 0.21598104E+00 0.17792750E+03</pdfrwt>
<totfact> 0.37292501E+04</totfact>
</mgrwt>
</event>
<event>
12    2  0.4097182E-002  0.2543301E+03  0.7546771E-02  0.1110777E+00
         21   -1    0    0  501  502  0.00000000000E+00  0.00000000000E+00  0.35405924302E+02  0.35405924302E+02  0.00000000000E+00 0.  1.
         21   -1    0    0  502  503 -0.00000000000E+00 -0.00000000000E+00 -0.21188320462E+04  0.21188320462E+04  0.00000000000E+00 0.  1.
         -6    2    1    2    0  503 -0.16247665726E+03  0.90492131489E+02 -0.14491785526E+04  0.14713267103E+04  0.17348291277E+03 0.  0.
        -24    2    3    3    0    0 -0.11798844260E+03  0.13060449079E+03 -0.11567584472E+04  0.11727972969E+04  0.79903622059E+02 0.  0.
          6    2    1    2  501    0  0.16247665726E+03 -0.90492131489E+02 -0.63424756926E+03  0.68291126019E+03  0.17178568093E+03 0.  0.
         24    2    5    5    0    0  0.16426160124E+03 -0.12276927850E+03 -0.53068890937E+03  0.57432264992E+03  0.78495976282E+02 0.  0.
          5    1    5    5  501    0 -0.17849439845E+01  0.32277147006E+02 -0.10355865989E+03  0.10858861028E+03  0.47000000000E+01 0. -1.
        -15    1    6    6    0    0  0.10449025420E+03 -0.32230302255E+02 -0.30235796991E+03  0.32152838958E+03  0.17770000000E+01 0.  1.
         16    1    6    6    0    0  0.59771347045E+02 -0.90538976240E+02 -0.22833093946E+03  0.25279426034E+03  0.00000000000E+00 0. -1.
         -5    1    3    3    0  503 -0.44488214660E+02 -0.40112359300E+02 -0.29242010539E+03  0.29852941337E+03  0.47000000000E+01 0.  1.
         15    1    4    4    0    0 -0.24708723057E+02  0.69107122966E+02 -0.30337940904E+03  0.31213544976E+03  0.17770000000E+01 0. -1.
        -16    1    4    4    0    0 -0.93279719542E+02  0.61497367824E+02 -0.85337903819E+03  0.86066184716E+03  0.00000000000E+00 0.  1.
<mgrwt>
<rscale>  2 0.25404096E+03</rscale>
<asrwt>0</asrwt>
<pdfrwt beam="1">  1       21 0.54470657E-02 0.25433012E+03</pdfrwt>
<pdfrwt beam="2">  1       21 0.32597414E+00 0.25433012E+03</pdfrwt>
<totfact> 0.52657193E+03</totfact>
</mgrwt>
</event>
<event>
12    2  0.4097182E-002  0.2201241E+03  0.7546771E-02  0.1134315E+00
         21   -1    0    0  503  502  0.00000000000E+00  0.00000000000E+00  0.35881051118E+02  0.35881051118E+02  0.00000000000E+00 0. -1.
         21   -1    0    0  501  503 -0.00000000000E+00 -0.00000000000E+00 -0.14501715102E+04  0.14501715102E+04  0.00000000000E+00 0.  1.
          6    2    1    2  501    0 -0.10322145484E+03  0.87667168275E+02 -0.49205915070E+03  0.53791479715E+03  0.16997035055E+03 0.  0.
         24    2    3    3    0    0 -0.40442707785E+02 -0.20300903969E+02 -0.23733231629E+03  0.25417878274E+03  0.78946095031E+02 0.  0.
         -6    2    1    2    0  502  0.10322145484E+03 -0.87667168275E+02 -0.92223130837E+03  0.94813776416E+03  0.17353510470E+03 0.  0.
        -24    2    5    5    0    0 -0.91948192591E+01 -0.14236467754E+02 -0.44183038099E+03  0.44930249327E+03  0.79821195033E+02 0.  0.
          5    1    3    3  501    0 -0.62778747051E+02  0.10796807224E+03 -0.25472683441E+03  0.28373601441E+03  0.47000000000E+01 0. -1.
        -15    1    4    4    0    0 -0.29716556706E+02  0.21161881521E+02 -0.17354952931E+03  0.17735133443E+03  0.17770000000E+01 0.  1.
         16    1    4    4    0    0 -0.10726151079E+02 -0.41462785490E+02 -0.63782786986E+02  0.76827448306E+02  0.00000000000E+00 0. -1.
         -5    1    5    5    0  502  0.11241627409E+03 -0.73430700521E+02 -0.48040092738E+03  0.49883527089E+03  0.47000000000E+01 0.  1.
         15    1    6    6    0    0 -0.17736239116E+01 -0.43460213985E+01  0.19244688516E+01  0.53754026023E+01  0.17770000000E+01 0. -1.
        -16    1    6    6    0    0 -0.74211953475E+01 -0.98904463551E+01 -0.44375484985E+03  0.44392709067E+03  0.00000000000E+00 0.  1.
<mgrwt>
<rscale>  2 0.21942097E+03</rscale>
<asrwt>0</asrwt>
<pdfrwt beam="1">  1       21 0.55201629E-02 0.22012413E+03</pdfrwt>
<pdfrwt beam="2">  1       21 0.22310326E+00 0.22012413E+03</pdfrwt>
<totfact> 0.21432894E+04</totfact>
</mgrwt>
</event>
<event>
12    2  0.4097182E-002  0.1746332E+03  0.7546771E-02  0.1178544E+00
         21   -1    0    0  501  502  0.00000000000E+00  0.00000000000E+00  0.46620652032E+03  0.46620652032E+03  0.00000000000E+00 0. -1.
         21   -1    0    0  502  503 -0.00000000000E+00 -0.00000000000E+00 -0.15270304317E+03  0.15270304317E+03  0.00000000000E+00 0. -1.
         -6    2    1    2    0  503 -0.21182652272E+02  0.21578265213E+02 -0.90376782630E+02  0.17889136854E+03  0.15139297412E+03 0.  0.
        -24    2    3    3    0    0 -0.49372120223E+02  0.48976958911E+02 -0.90016245121E+02  0.13929901439E+03  0.80404864689E+02 0.  0.
          6    2    1    2  501    0  0.21182652272E+02 -0.21578265213E+02  0.40388025978E+03  0.44001819494E+03  0.17199541086E+03 0.  0.
         24    2    5    5    0    0  0.48294987197E+02 -0.46578067796E+02  0.38436770160E+03  0.39803130698E+03  0.78666823476E+02 0.  0.
          5    1    5    5  501    0 -0.27112334925E+02  0.24999802583E+02  0.19512558179E+02  0.41986887965E+02  0.47000000000E+01 0. -1.
        -15    1    6    6    0    0  0.20751681254E+02 -0.19732939227E+02  0.29738825134E+02  0.41322834060E+02  0.17770000000E+01 0.  1.
         16    1    6    6    0    0  0.27543305943E+02 -0.26845128569E+02  0.35462887646E+03  0.35670847292E+03  0.00000000000E+00 0. -1.
         -5    1    3    3    0  503  0.28189467951E+02 -0.27398693698E+02 -0.36053750924E+00  0.39592354149E+02  0.47000000000E+01 0.  1.
         15    1    4    4    0    0 -0.88843934532E+01  0.59614035160E+02 -0.71481628491E+02  0.93517627086E+02  0.17770000000E+01 0. -1.
        -16    1    4    4    0    0 -0.40487726770E+02 -0.10637076249E+02 -0.18534616630E+02  0.45781387307E+02  0.00000000000E+00 0.  1.
<mgrwt>
<rscale>  2 0.16933434E+03</rscale>
<asrwt>0</asrwt>
<pdfrwt beam="1">  1       21 0.71724079E-01 0.17463318E+03</pdfrwt>
<pdfrwt beam="2">  1       21 0.23492776E-01 0.17463318E+03</pdfrwt>
<totfact> 0.30237359E+04</totfact>
</mgrwt>
</event>
<event>
12    2  0.4097182E-002  0.3372049E+03  0.7546771E-02  0.1068355E+00
         21   -1    0    0  503  502  0.00000000000E+00  0.00000000000E+00  0.12560826456E+04  0.12560826456E+04  0.00000000000E+00 0.  1.
         21   -1    0    0  501  503 -0.00000000000E+00 -0.00000000000E+00 -0.11075066515E+03  0.11075066515E+03  0.00000000000E+00 0. -1.
          6    2    1    2  501    0 -0.27800856164E+03 -0.78841777414E+02  0.27652371298E+03  0.43608773875E+03  0.17378827877E+03 0.  0.
         24    2    3    3    0    0 -0.15818883614E+03 -0.51611921538E+02  0.74170495840E+02  0.19930271778E+03  0.80825816020E+02 0.  0.
         -6    2    1    2    0  502  0.27800856164E+03  0.78841777414E+02  0.86880826747E+03  0.93074557201E+03  0.16719667457E+03 0.  0.
        -24    2    5    5    0    0  0.11045128058E+03 -0.14391861721E+02  0.45078202269E+03  0.47081515855E+03  0.77819473620E+02 0.  0.
          5    1    3    3  501    0 -0.11981972549E+03 -0.27229855876E+02  0.20235321714E+03  0.23678502097E+03  0.47000000000E+01 0. -1.
        -15    1    4    4    0    0 -0.18495467377E+02  0.13010885470E+02  0.32877633641E+02  0.39943234434E+02  0.17770000000E+01 0.  1.
         16    1    4    4    0    0 -0.13969336877E+03 -0.64622807008E+02  0.41292862199E+02  0.15935948334E+03  0.00000000000E+00 0. -1.
         -5    1    5    5    0  502  0.16755728106E+03  0.93233639135E+02  0.41802624478E+03  0.45993041346E+03  0.47000000000E+01 0.  1.
         15    1    6    6    0    0  0.68103784376E+01 -0.15587346818E+02  0.14598170026E+02  0.22485794013E+02  0.17770000000E+01 0. -1.
        -16    1    6    6    0    0  0.10364090214E+03  0.11954850972E+01  0.43618385266E+03  0.44832936454E+03  0.00000000000E+00 0.  1.
<mgrwt>
<rscale>  2 0.33636443E+03</rscale>
<asrwt>0</asrwt>
<pdfrwt beam="1">  1       21 0.19324347E+00 0.33720491E+03</pdfrwt>
<pdfrwt beam="2">  1       21 0.17038565E-01 0.33720491E+03</pdfrwt>
<totfact> 0.41667864E+03</totfact>
</mgrwt>
</event>
<event>
12    2  0.4097182E-002  0.1776756E+03  0.7546771E-02  0.1170137E+00
         21   -1    0    0  501  502  0.00000000000E+00  0.00000000000E+00  0.12787762358E+04  0.12787762358E+04  0.00000000000E+00 0.  1.
         21   -1    0    0  502  503 -0.00000000000E+00 -0.00000000000E+00 -0.27477906325E+02  0.27477906325E+02  0.00000000000E+00 0.  1.
         -6    2    1    2    0  503  0.11360823338E+02 -0.37156347500E+02  0.41568873934E+03  0.45196379152E+03  0.17310250825E+03 0.  0.
        -24    2    3    3    0    0  0.47378880725E+02  0.16292298455E+02  0.34575256709E+03  0.35674185916E+03  0.72178383888E+02 0.  0.
          6    2    1    2  501    0 -0.11360823338E+02  0.37156347500E+02  0.83560959016E+03  0.85429035064E+03  0.17337518147E+03 0.  0.
         24    2    5    5    0    0  0.53418340756E+02  0.55761982244E+02  0.44867970097E+03  0.46150626377E+03  0.75575390457E+02 0.  0.
          5    1    5    5  501    0 -0.64779164094E+02 -0.18605634744E+02  0.38692988919E+03  0.39278408686E+03  0.47000000000E+01 0. -1.
        -15    1    6    6    0    0  0.36866315798E+01 -0.16237310328E+02  0.12842058815E+03  0.12950770900E+03  0.17770000000E+01 0.  1.
         16    1    6    6    0    0  0.49731709176E+02  0.71999292572E+02  0.32025911282E+03  0.33199855478E+03  0.00000000000E+00 0. -1.
         -5    1    3    3    0  503 -0.36018057388E+02 -0.53448645955E+02  0.69936172244E+02  0.95221932350E+02  0.47000000000E+01 0.  1.
         15    1    4    4    0    0 -0.42660386867E-02 -0.24727237016E+02  0.83339810131E+02  0.86948938753E+02  0.17770000000E+01 0. -1.
        -16    1    4    4    0    0  0.47383146764E+02  0.41019535470E+02  0.26241275696E+03  0.26979292041E+03  0.00000000000E+00 0.  1.
<mgrwt>
<rscale>  2 0.17760904E+03</rscale>
<asrwt>0</asrwt>
<pdfrwt beam="1">  1       21 0.19673476E+00 0.17767559E+03</pdfrwt>
<pdfrwt beam="2">  1       21 0.42273712E-02 0.17767559E+03</pdfrwt>
<totfact> 0.50827401E+04</totfact>
</mgrwt>
</event>
<event>
12    2  0.4097182E-002  0.1991383E+03  0.7546771E-02  0.1150753E+00
         21   -1    0    0  503  502  0.00000000000E+00  0.00000000000E+00  0.14590657592E+02  0.14590657592E+02  0.00000000000E+00 0. -1.
         21   -1    0    0  501  503 -0.00000000000E+00 -0.00000000000E+00 -0.27841181423E+04  0.27841181423E+04  0.00000000000E+00 0.  1.
          6    2    1    2  501    0 -0.95423211155E+02  0.13373946662E+02 -0.16329474064E+04  0.16450450681E+04  0.17427447406E+03 0.  0.
         24    2    3    3    0    0 -0.97557341688E+02  0.20324701629E+02 -0.16308546019E+04  0.16361379171E+04  0.85615552535E+02 0.  0.
         -6    2    1    2    0  502  0.95423211155E+02 -0.13373946662E+02 -0.11365800782E+04  0.11536637317E+04  0.17274628790E+03 0.  0.
        -24    2    5    5    0    0  0.43086567736E+02 -0.12804322651E+02 -0.25922827211E+03  0.27473954249E+03  0.79133533652E+02 0.  0.
          5    1    3    3  501    0  0.21341305322E+01 -0.69507549669E+01 -0.20928044784E+01  0.89071509656E+01  0.47000000000E+01 0. -1.
        -15    1    4    4    0    0 -0.34930802675E+02 -0.87504990544E+01 -0.11267466942E+04  0.11273233799E+04  0.17770000000E+01 0.  1.
         16    1    4    4    0    0 -0.62626539013E+02  0.29075200683E+02 -0.50410790772E+03  0.50881453725E+03  0.00000000000E+00 0. -1.
         -5    1    5    5    0  502  0.52336643420E+02 -0.56962401107E+00 -0.87735180613E+03  0.87892418925E+03  0.47000000000E+01 0.  1.
         15    1    6    6    0    0 -0.20578713853E+02  0.10042317422E+02 -0.55051885245E+02  0.59650644599E+02  0.17770000000E+01 0. -1.
        -16    1    6    6    0    0  0.63665281588E+02 -0.22846640073E+02 -0.20417638687E+03  0.21508889789E+03  0.00000000000E+00 0.  1.
<mgrwt>
<rscale>  2 0.19880341E+03</rscale>
<asrwt>0</asrwt>
<pdfrwt beam="1">  1       21 0.22447163E-02 0.19913825E+03</pdfrwt>
<pdfrwt beam="2">  1       21 0.42832592E+00 0.19913825E+03</pdfrwt>
<totfact> 0.58266191E+03</totfact>
</mgrwt>
</event>
<event>
12    2  0.4097182E-002  0.2096706E+03  0.7546771E-02  0.1142442E+00
         21   -1    0    0  501  502  0.00000000000E+00  0.00000000000E+00  0.58399818301E+03  0.58399818301E+03  0.00000000000E+00 0. -1.
         21   -1    0    0  502  503 -0.00000000000E+00 -0.00000000000E+00 -0.87330635291E+02  0.87330635291E+02  0.00000000000E+00 0. -1.
         -6    2    1    2    0  503  0.11705128167E+03 -0.11534339492E+02  0.11651141621E+03  0.23718546356E+03  0.16984696196E+03 0.  0.
        -24    2    3    3    0    0  0.13172249418E+03 -0.14397022708E+02  0.13988431556E+03  0.20904613422E+03  0.81083751486E+02 0.  0.
          6    2    1    2  501    0 -0.11705128167E+03  0.11534339492E+02  0.38015613150E+03  0.43414335474E+03  0.17357339836E+03 0.  0.
         24    2    5    5    0    0 -0.28046693880E+02  0.23834475992E+02  0.30108870197E+03  0.31436498266E+03  0.82560502559E+02 0.  0.
          5    1    5    5  501    0 -0.89004587794E+02 -0.12300136500E+02  0.79067429531E+02  0.11977837208E+03  0.47000000000E+01 0. -1.
        -15    1    6    6    0    0 -0.63859075019E+01  0.47001586230E+02  0.98866249773E+02  0.10967051562E+03  0.17770000000E+01 0.  1.
         16    1    6    6    0    0 -0.21660786379E+02 -0.23167110238E+02  0.20222245220E+03  0.20469446704E+03  0.00000000000E+00 0. -1.
         -5    1    3    3    0  503 -0.14671212506E+02  0.28626832163E+01 -0.23372899350E+02  0.28139329339E+02  0.47000000000E+01 0.  1.
         15    1    4    4    0    0  0.46070794594E+02  0.29764814379E+02  0.28761049903E+02  0.61958195664E+02  0.17770000000E+01 0. -1.
        -16    1    4    4    0    0  0.85651699587E+02 -0.44161837087E+02  0.11112326566E+03  0.14708793855E+03  0.00000000000E+00 0.  1.
<mgrwt>
<rscale>  2 0.20889778E+03</rscale>
<asrwt>0</asrwt>
<pdfrwt beam="1">  1       21 0.89845872E-01 0.20967062E+03</pdfrwt>
<pdfrwt beam="2">  1       21 0.13435483E-01 0.20967062E+03</pdfrwt>
<totfact> 0.50093390E+04</totfact>
</mgrwt>
</event>
<event>
12    2  0.4097182E-002  0.2061472E+03  0.7546771E-02  0.1145442E+00
         21   -1    0    0  501  502  0.00000000000E+00  0.00000000000E+00  0.30692259621E+03  0.30692259621E+03  0.00000000000E+00 0. -1.
         21   -1    0    0  502  503 -0.00000000000E+00 -0.00000000000E+00 -0.13905302972E+03  0.13905302972E+03  0.00000000000E+00 0. -1.
         -6    2    1    2    0  503  0.11821213880E+02 -0.10424065873E+03  0.51069700763E+02  0.21237886525E+03  0.17745650745E+03 0.  0.
        -24    2    3    3    0    0  0.68943486520E+01 -0.13322900910E+03  0.75923879336E+02  0.17359202920E+03  0.81069453176E+02 0.  0.
          6    2    1    2  501    0 -0.11821213880E+02  0.10424065873E+03  0.11679986573E+03  0.23359676068E+03  0.17297219989E+03 0.  0.
         24    2    5    5    0    0  0.17301009667E+01  0.91338835988E+01 -0.18697705660E+01  0.80843661235E+02  0.80285617896E+02 0.  0.
          5    1    5    5  501    0 -0.13551314847E+02  0.95106775135E+02  0.11866963630E+03  0.15275309944E+03  0.47000000000E+01 0. -1.
        -15    1    6    6    0    0  0.58823780822E+01 -0.18603278112E+02  0.31597449003E+02  0.37178499713E+02  0.17770000000E+01 0.  1.
         16    1    6    6    0    0 -0.41522771156E+01  0.27737161711E+02 -0.33467219569E+02  0.43665161522E+02  0.00000000000E+00 0. -1.
         -5    1    3    3    0  503  0.49268652280E+01  0.28988350370E+02 -0.24854178574E+02  0.38786836050E+02  0.47000000000E+01 0.  1.
         15    1    4    4    0    0  0.40882205113E+02 -0.67315108856E+02  0.56457546596E+02  0.96918991286E+02  0.17770000000E+01 0. -1.
        -16    1    4    4    0    0 -0.33987856461E+02 -0.65913900247E+02  0.19466332740E+02  0.76673037914E+02  0.00000000000E+00 0.  1.
<mgrwt>
<rscale>  2 0.20517856E+03</rscale>
<asrwt>0</asrwt>
<pdfrwt beam="1">  1       21 0.47218861E-01 0.20614720E+03</pdfrwt>
<pdfrwt beam="2">  1       21 0.21392774E-01 0.20614720E+03</pdfrwt>
<totfact> 0.86821075E+04</totfact>
</mgrwt>
</event>
<event>
12    2  0.4097182E-002  0.3766778E+03  0.7546771E-02  0.1052592E+00
         21   -1    0    0  503  502  0.00000000000E+00  0.00000000000E+00  0.11381875604E+04  0.11381875604E+04  0.00000000000E+00 0.  1.
         21   -1    0    0  501  503 -0.00000000000E+00 -0.00000000000E+00 -0.15462950270E+03  0.15462950270E+03  0.00000000000E+00 0. -1.
          6    2    1    2  501    0 -0.19605626579E+03 -0.26621116352E+03  0.20258940935E+03  0.42770157504E+03  0.18049854728E+03 0.  0.
         24    2    3    3    0    0 -0.17859987466E+03 -0.13094753173E+03  0.96881885033E+02  0.25508307553E+03  0.81462288691E+02 0.  0.
         -6    2    1    2    0  502  0.19605626579E+03  0.26621116352E+03  0.78096864837E+03  0.86511548807E+03  0.17089861036E+03 0.  0.
        -24    2    5    5    0    0  0.14657207056E+03  0.18606028457E+03  0.39641480189E+03  0.46916523890E+03  0.82882596928E+02 0.  0.
          5    1    3    3  501    0 -0.17456391129E+02 -0.13526363179E+03  0.10570752432E+03  0.17261849951E+03  0.47000000000E+01 0. -1.
        -15    1    4    4    0    0 -0.64210437764E+02 -0.36593291660E+02  0.74796105775E+02  0.10516493941E+03  0.17770000000E+01 0.  1.
         16    1    4    4    0    0 -0.11438943690E+03 -0.94354240075E+02  0.22085779259E+02  0.14991813612E+03  0.00000000000E+00 0. -1.
         -5    1    5    5    0  502  0.49484195230E+02  0.80150878947E+02  0.38455384648E+03  0.39595024916E+03  0.47000000000E+01 0.  1.
         15    1    6    6    0    0  0.66575705336E+02  0.38468803898E+02  0.17623522848E+03  0.19228673096E+03  0.17770000000E+01 0. -1.
        -16    1    6    6    0    0  0.79996365224E+02  0.14759148068E+03  0.22017957341E+03  0.27687850795E+03  0.00000000000E+00 0.  1.
<mgrwt>
<rscale>  2 0.37554653E+03</rscale>
<asrwt>0</asrwt>
<pdfrwt beam="1">  1       21 0.17510577E+00 0.37667780E+03</pdfrwt>
<pdfrwt beam="2">  1       21 0.23789155E-01 0.37667780E+03</pdfrwt>
<totfact> 0.28946861E+03</totfact>
</mgrwt>
</event>
<event>
12    2  0.4097182E-002  0.2599237E+03  0.7546771E-02  0.1107541E+00
         21   -1    0    0  501  502  0.00000000000E+00  0.00000000000E+00  0.12701753928E+04  0.12701753928E+04  0.00000000000E+00 0.  1.
         21   -1    0    0  502  503 -0.00000000000E+00 -0.00000000000E+00 -0.52934207620E+02  0.52934207620E+02  0.00000000000E+00 0. -1.
         -6    2    1    2    0  503 -0.14551763429E+03 -0.12829591510E+03  0.64854988562E+03  0.69783356365E+03  0.16946829996E+03 0.  0.
        -24    2    3    3    0    0 -0.11895401292E+03 -0.10541992640E+03  0.31431996961E+03  0.36173735183E+03  0.82422389811E+02 0.  0.
          6    2    1    2  501    0  0.14551763429E+03  0.12829591510E+03  0.56869129960E+03  0.62527603681E+03  0.17298874025E+03 0.  0.
         24    2    5    5    0    0  0.62450623200E+02  0.18950958573E+02  0.36575049066E+03  0.38019745802E+03  0.80730827451E+02 0.  0.
          5    1    5    5  501    0  0.83067011093E+02  0.10934495653E+03  0.20294080894E+03  0.24507857879E+03  0.47000000000E+01 0. -1.
        -15    1    6    6    0    0  0.59224728032E+02  0.46567449713E+02  0.24731270699E+03  0.25853980071E+03  0.17770000000E+01 0.  1.
         16    1    6    6    0    0  0.32258951673E+01 -0.27616491140E+02  0.11843778367E+03  0.12165765731E+03  0.00000000000E+00 0. -1.
         -5    1    3    3    0  503 -0.26563621369E+02 -0.22875988703E+02  0.33422991601E+03  0.33609621181E+03  0.47000000000E+01 0.  1.
         15    1    4    4    0    0 -0.17521636582E+02 -0.64432298237E+02  0.89149999536E+02  0.11139752668E+03  0.17770000000E+01 0. -1.
        -16    1    4    4    0    0 -0.10143237634E+03 -0.40987628159E+02  0.22516997007E+03  0.25033982515E+03  0.00000000000E+00 0.  1.
<mgrwt>
<rscale>  2 0.25933933E+03</rscale>
<asrwt>0</asrwt>
<pdfrwt beam="1">  1       21 0.19541158E+00 0.25992370E+03</pdfrwt>
<pdfrwt beam="2">  1       21 0.81437252E-02 0.25992370E+03</pdfrwt>
<totfact> 0.15969492E+04</totfact>
</mgrwt>
</event>
<event>
12    2  0.4097182E-002  0.4195149E+03  0.7546771E-02  0.1037226E+00
         21   -1    0    0  503  502  0.00000000000E+00  0.00000000000E+00  0.13079220708E+03  0.13079220708E+03  0.00000000000E+00 0. -1.
         21   -1    0    0  501  503 -0.00000000000E+00 -0.00000000000E+00 -0.15082009955E+04  0.15082009955E+04  0.00000000000E+00 0.  1.
          6    2    1    2  501    0  0.38177537721E+03  0.10680375970E+01 -0.95783214484E+03  0.10456658981E+04  0.17384238097E+03 0.  0.
         24    2    3    3    0    0  0.19721509686E+03  0.94179414040E+01 -0.67355360452E+03  0.70659570410E+03  0.81366693683E+02 0.  0.
         -6    2    1    2    0  502 -0.38177537721E+03 -0.10680375970E+01 -0.41957664357E+03  0.59332730445E+03  0.17389407991E+03 0.  0.
        -24    2    5    5    0    0 -0.21801245875E+03  0.38776284123E+01 -0.33222820022E+03  0.40760010227E+03  0.90652072098E+02 0.  0.
          5    1    3    3  501    0  0.18456028035E+03 -0.83499038070E+01 -0.28427854032E+03  0.33907019401E+03  0.47000000000E+01 0. -1.
        -15    1    4    4    0    0  0.91431626630E+02 -0.16429106074E+02 -0.42816325238E+03  0.43812850432E+03  0.17770000000E+01 0.  1.
         16    1    4    4    0    0  0.10578347023E+03  0.25847047479E+02 -0.24539035213E+03  0.26846719978E+03  0.00000000000E+00 0. -1.
         -5    1    5    5    0  502 -0.16376291846E+03 -0.49456660093E+01 -0.87348443349E+02  0.18572720218E+03  0.47000000000E+01 0.  1.
         15    1    6    6    0    0 -0.47871749202E+02 -0.23198842852E+02 -0.33917358231E+02  0.63114464267E+02  0.17770000000E+01 0. -1.
        -16    1    6    6    0    0 -0.17014070955E+03  0.27076471264E+02 -0.29831084199E+03  0.34448563800E+03  0.00000000000E+00 0.  1.
<mgrwt>
<rscale>  2 0.41950952E+03</rscale>
<asrwt>0</asrwt>
<pdfrwt beam="1">  1       21 0.20121876E-01 0.41951488E+03</pdfrwt>
<pdfrwt beam="2">  1       21 0.23203094E+00 0.41951488E+03</pdfrwt>
<totfact> 0.16416274E+03</totfact>
</mgrwt>
</event>
<event>
12    2  0.4097182E-002  0.2323257E+03  0.7546771E-02  0.1125063E+00
         21   -1    0    0  503  502  0.00000000000E+00  0.00000000000E+00  0.14239565783E+03  0.14239565783E+03  0.00000000000E+00 0.  1.
         21   -1    0    0  501  503 -0.00000000000E+00 -0.00000000000E+00 -0.37965873281E+03  0.37965873281E+03  0.00000000000E+00 0.  1.
          6    2    1    2  501    0  0.10983991439E+03  0.10843384850E+03 -0.13245299418E+03  0.26718107539E+03  0.17326056992E+03 0.  0.
         24    2    3    3    0    0  0.12641625851E+03  0.12495715751E+03 -0.80908598754E+02  0.21037694152E+03  0.78210578200E+02 0.  0.
         -6    2    1    2    0  502 -0.10983991439E+03 -0.10843384850E+03 -0.10481008080E+03  0.25487331525E+03  0.17364488906E+03 0.  0.
        -24    2    5    5    0    0 -0.98651057739E+02 -0.12850168682E+03 -0.12864543234E+03  0.22143497452E+03  0.78987884962E+02 0.  0.
          5    1    3    3  501    0 -0.16576344125E+02 -0.16523309009E+02 -0.51544395427E+02  0.56804133873E+02  0.47000000000E+01 0. -1.
        -15    1    4    4    0    0  0.36470084172E+02  0.50056372223E+02 -0.68981894848E+02  0.92721987605E+02  0.17770000000E+01 0.  1.
         16    1    4    4    0    0  0.89946174339E+02  0.74900785288E+02 -0.11926703907E+02  0.11765495392E+03  0.00000000000E+00 0. -1.
         -5    1    5    5    0  502 -0.11188856647E+02  0.20067838315E+02  0.23835351541E+02  0.33438340730E+02  0.47000000000E+01 0.  1.
         15    1    6    6    0    0 -0.20754644775E+02  0.48272226827E+01 -0.34478700074E+02  0.40570874360E+02  0.17770000000E+01 0. -1.
        -16    1    6    6    0    0 -0.77896412964E+02 -0.13332890950E+03 -0.94166732269E+02  0.18086410016E+03  0.00000000000E+00 0.  1.
<mgrwt>
<rscale>  2 0.23225394E+03</rscale>
<asrwt>0</asrwt>
<pdfrwt beam="1">  1       21 0.21907025E-01 0.23232575E+03</pdfrwt>
<pdfrwt beam="2">  1       21 0.58409035E-01 0.23232575E+03</pdfrwt>
<totfact> 0.52443390E+04</totfact>
</mgrwt>
</event>
<event>
12    2  0.4097182E-002  0.1870861E+03  0.7546771E-02  0.1161364E+00
         21   -1    0    0  503  502  0.00000000000E+00  0.00000000000E+00  0.47594018106E+03  0.47594018106E+03  0.00000000000E+00 0. -1.
         21   -1    0    0  501  503 -0.00000000000E+00 -0.00000000000E+00 -0.73605222051E+02  0.73605222051E+02  0.00000000000E+00 0.  1.
          6    2    1    2  501    0  0.60141841875E+02  0.32855311794E+02  0.17825726355E+03  0.25763442619E+03  0.17292580170E+03 0.  0.
         24    2    3    3    0    0  0.30458591507E+01  0.44193884252E+02  0.17740537533E+03  0.19922783254E+03  0.79099212389E+02 0.  0.
         -6    2    1    2    0  502 -0.60141841875E+02 -0.32855311794E+02  0.22407769546E+03  0.29191097692E+03  0.17408242928E+03 0.  0.
        -24    2    5    5    0    0 -0.10065820713E+03 -0.56427828883E+02  0.16390630337E+03  0.21549156943E+03  0.79089605356E+02 0.  0.
          5    1    3    3  501    0  0.57095982725E+02 -0.11338572458E+02  0.85188822106E+00  0.58406593654E+02  0.47000000000E+01 0. -1.
        -15    1    4    4    0    0  0.24721916583E+02  0.27721073044E+02  0.25950670925E+02  0.45345629345E+02  0.17770000000E+01 0.  1.
         16    1    4    4    0    0 -0.21676057432E+02  0.16472811209E+02  0.15145470440E+03  0.15388220319E+03  0.00000000000E+00 0. -1.
         -5    1    5    5    0  502  0.40516365251E+02  0.23572517089E+02  0.60171392089E+02  0.76419407489E+02  0.47000000000E+01 0.  1.
         15    1    6    6    0    0 -0.90424376665E+02 -0.22038765937E+02  0.15094839748E+03  0.17734387931E+03  0.17770000000E+01 0. -1.
        -16    1    6    6    0    0 -0.10233830462E+02 -0.34389062946E+02  0.12957905897E+02  0.38147690119E+02  0.00000000000E+00 0.  1.
<mgrwt>
<rscale>  2 0.18681657E+03</rscale>
<asrwt>0</asrwt>
<pdfrwt beam="1">  1       21 0.73221564E-01 0.18708609E+03</pdfrwt>
<pdfrwt beam="2">  1       21 0.11323881E-01 0.18708609E+03</pdfrwt>
<totfact> 0.10938997E+05</totfact>
</mgrwt>
</event>
<event>
12    2  0.4097182E-002  0.1719876E+03  0.7546771E-02  0.1175883E+00
         21   -1    0    0  501  502  0.00000000000E+00  0.00000000000E+00  0.59815647035E+02  0.59815647035E+02  0.00000000000E+00 0.  1.
         21   -1    0    0  502  503 -0.00000000000E+00 -0.00000000000E+00 -0.49848377936E+03  0.49848377936E+03  0.00000000000E+00 0.  1.
         -6    2    1    2    0  503  0.14202618368E+02  0.30572863863E+00 -0.19159562109E+03  0.25746576137E+03  0.17139990787E+03 0.  0.
        -24    2    3    3    0    0  0.44245258618E+02 -0.33570236499E+02 -0.58575879455E+02  0.11687243680E+03  0.84518809398E+02 0.  0.
          6    2    1    2  501    0 -0.14202618368E+02 -0.30572863863E+00 -0.24707251124E+03  0.30083366503E+03  0.17103876861E+03 0.  0.
         24    2    5    5    0    0  0.15146183281E+02 -0.40788094070E+02 -0.63946128775E+02  0.11094544522E+03  0.79540611914E+02 0.  0.
          5    1    5    5  501    0 -0.29348801649E+02  0.40482365431E+02 -0.18312638247E+03  0.18988821981E+03  0.47000000000E+01 0. -1.
        -15    1    6    6    0    0  0.18355526430E+02 -0.44094992167E+02 -0.97494859367E+00  0.47805877656E+02  0.17770000000E+01 0.  1.
         16    1    6    6    0    0 -0.32093431494E+01  0.33068980973E+01 -0.62971180182E+02  0.63139567562E+02  0.00000000000E+00 0. -1.
         -5    1    3    3    0  503 -0.30042640250E+02  0.33875965137E+02 -0.13301974163E+03  0.14059332456E+03  0.47000000000E+01 0.  1.
         15    1    4    4    0    0 -0.26674192584E+01 -0.42629547799E+02 -0.54001425255E+02  0.68874560831E+02  0.17770000000E+01 0. -1.
        -16    1    4    4    0    0  0.46912677876E+02  0.90593113005E+01 -0.45744541995E+01  0.47997875974E+02  0.00000000000E+00 0.  1.
<mgrwt>
<rscale>  2 0.17189756E+03</rscale>
<asrwt>0</asrwt>
<pdfrwt beam="1">  1       21 0.92024071E-02 0.17198760E+03</pdfrwt>
<pdfrwt beam="2">  1       21 0.76689814E-01 0.17198760E+03</pdfrwt>
<totfact> 0.14313337E+05</totfact>
</mgrwt>
</event>
<event>
12    2  0.4097182E-002  0.1794355E+03  0.7546771E-02  0.1168473E+00
         21   -1    0    0  503  502  0.00000000000E+00  0.00000000000E+00  0.88548504743E+02  0.88548504743E+02  0.00000000000E+00 0. -1.
         21   -1    0    0  501  503 -0.00000000000E+00 -0.00000000000E+00 -0.12553302974E+04  0.12553302974E+04  0.00000000000E+00 0.  1.
          6    2    1    2  501    0  0.14285707609E+02  0.43103771125E+02 -0.11498024220E+04  0.11636417670E+04  0.17307378689E+03 0.  0.
         24    2    3    3    0    0 -0.66004545709E+00  0.51370568145E+02 -0.11396353433E+04  0.11432169057E+04  0.74409723187E+02 0.  0.
         -6    2    1    2    0  502 -0.14285707609E+02 -0.43103771125E+02 -0.16979370620E+02  0.18023703512E+03  0.17359456580E+03 0.  0.
        -24    2    5    5    0    0  0.21105270083E+02 -0.88833351099E+02 -0.99410652554E+01  0.12179609460E+03  0.79991669493E+02 0.  0.
          5    1    3    3  501    0  0.14945753066E+02 -0.82667970201E+01 -0.10167078673E+02  0.20424861234E+02  0.47000000000E+01 0. -1.
        -15    1    4    4    0    0 -0.20745051027E+02  0.44607568525E+02 -0.36651710489E+03  0.36980824520E+03  0.17770000000E+01 0.  1.
         16    1    4    4    0    0  0.20085005570E+02  0.67629996200E+01 -0.77311823843E+03  0.77340866055E+03  0.00000000000E+00 0. -1.
         -5    1    5    5    0  502 -0.35390977692E+02  0.45729579974E+02 -0.70383053646E+01  0.58440940521E+02  0.47000000000E+01 0.  1.
         15    1    6    6    0    0  0.25587123164E+02  0.54533456232E+01  0.34858582303E+01  0.26452765204E+02  0.17770000000E+01 0. -1.
        -16    1    6    6    0    0 -0.44818530819E+01 -0.94286696722E+02 -0.13426923486E+02  0.95343329395E+02  0.00000000000E+00 0.  1.
<mgrwt>
<rscale>  2 0.17930940E+03</rscale>
<asrwt>0</asrwt>
<pdfrwt beam="1">  1       21 0.13622848E-01 0.17943548E+03</pdfrwt>
<pdfrwt beam="2">  1       21 0.19312772E+00 0.17943548E+03</pdfrwt>
<totfact> 0.70323040E+03</totfact>
</mgrwt>
</event>
<event>
12    2  0.4097182E-002  0.1738345E+03  0.7546771E-02  0.1173940E+00
         21   -1    0    0  501  502  0.00000000000E+00  0.00000000000E+00  0.26036002628E+03  0.26036002628E+03  0.00000000000E+00 0. -1.
         21   -1    0    0  502  503 -0.00000000000E+00 -0.00000000000E+00 -0.11611431826E+03  0.11611431826E+03  0.00000000000E+00 0. -1.
         -6    2    1    2    0  503  0.11335506879E+02 -0.23753271988E+01  0.78572324979E+02  0.19064802323E+03  0.17331740424E+03 0.  0.
        -24    2    3    3    0    0 -0.11577165913E+02 -0.59581395781E+02  0.78139882896E+02  0.12884347758E+03  0.82527734256E+02 0.  0.
          6    2    1    2  501    0 -0.11335506879E+02  0.23753271988E+01  0.65673383043E+02  0.18582632130E+03  0.17344824171E+03 0.  0.
         24    2    5    5    0    0 -0.28367087318E+01  0.88960034253E+01  0.11220386392E+03  0.13784794660E+03  0.79530896575E+02 0.  0.
          5    1    5    5  501    0 -0.84987981469E+01 -0.65206762264E+01 -0.46530480877E+02  0.47978374702E+02  0.47000000000E+01 0. -1.
        -15    1    6    6    0    0 -0.15523072946E+02 -0.15301964214E+02 -0.50448768994E+00  0.21875286040E+02  0.17770000000E+01 0.  1.
         16    1    6    6    0    0  0.12686364214E+02  0.24197967639E+02  0.11270835161E+03  0.11597266056E+03  0.00000000000E+00 0. -1.
         -5    1    3    3    0  503  0.22912672792E+02  0.57206068583E+02  0.43244208287E+00  0.61804545652E+02  0.47000000000E+01 0.  1.
         15    1    4    4    0    0 -0.32318573967E+02 -0.12909143961E+02 -0.76083929009E+00  0.34855025843E+02  0.17770000000E+01 0. -1.
        -16    1    4    4    0    0  0.20741408054E+02 -0.46672251820E+02  0.78900722186E+02  0.93988451735E+02  0.00000000000E+00 0.  1.
<mgrwt>
<rscale>  2 0.17380184E+03</rscale>
<asrwt>0</asrwt>
<pdfrwt beam="1">  1       21 0.40055388E-01 0.17383449E+03</pdfrwt>
<pdfrwt beam="2">  1       21 0.17863741E-01 0.17383449E+03</pdfrwt>
<totfact> 0.17202065E+05</totfact>
</mgrwt>
</event>
<event>
12    2  0.4097182E-002  0.1893428E+03  0.7546771E-02  0.1159340E+00
         21   -1    0    0  503  502  0.00000000000E+00  0.00000000000E+00  0.46273455258E+03  0.46273455258E+03  0.00000000000E+00 0. -1.
         21   -1    0    0  501  503 -0.00000000000E+00 -0.00000000000E+00 -0.80491316329E+02  0.80491316329E+02  0.00000000000E+00 0. -1.
          6    2    1    2  501    0  0.47670804640E+01  0.73566471746E+02  0.13366663448E+03  0.23075022495E+03  0.17304376996E+03 0.  0.
         24    2    3    3    0    0 -0.40189393640E+02  0.81786761422E+02  0.48442162395E+02  0.13393102041E+03  0.85361662509E+02 0.  0.
         -6    2    1    2    0  502 -0.47670804640E+01 -0.73566471746E+02  0.24857660177E+03  0.31247564395E+03  0.17440169235E+03 0.  0.
        -24    2    5    5    0    0  0.29498118024E+02 -0.49648849076E+02  0.54510495399E+02  0.11390600845E+03  0.81658052088E+02 0.  0.
          5    1    3    3  501    0  0.44956474104E+02 -0.82202896760E+01  0.85224472081E+02  0.96819204540E+02  0.47000000000E+01 0. -1.
        -15    1    4    4    0    0  0.16837890812E+02  0.46364066767E+01 -0.11332006920E+02  0.20894567325E+02  0.17770000000E+01 0.  1.
         16    1    4    4    0    0 -0.57027284453E+02  0.77150354745E+02  0.59774169315E+02  0.11303645309E+03  0.00000000000E+00 0. -1.
         -5    1    5    5    0  502 -0.34265198488E+02 -0.23917622670E+02  0.19406610637E+03  0.19856963550E+03  0.47000000000E+01 0.  1.
         15    1    6    6    0    0 -0.28578483582E+02 -0.15736241581E+02  0.15572283237E+02  0.36194098375E+02  0.17770000000E+01 0. -1.
        -16    1    6    6    0    0  0.58076601606E+02 -0.33912607495E+02  0.38938212162E+02  0.77711910075E+02  0.00000000000E+00 0.  1.
<mgrwt>
<rscale>  2 0.18902953E+03</rscale>
<asrwt>0</asrwt>
<pdfrwt beam="1">  1       21 0.71189929E-01 0.18934281E+03</pdfrwt>
<pdfrwt beam="2">  1       21 0.12383280E-01 0.18934281E+03</pdfrwt>
<totfact> 0.99152587E+04</totfact>
</mgrwt>
</event>
<event>
12    2  0.4097182E-002  0.2360966E+03  0.7546771E-02  0.1122618E+00
         21   -1    0    0  501  502  0.00000000000E+00  0.00000000000E+00  0.69889893991E+03  0.69889893991E+03  0.00000000000E+00 0.  1.
         21   -1    0    0  502  503 -0.00000000000E+00 -0.00000000000E+00 -0.13034837649E+03  0.13034837649E+03  0.00000000000E+00 0. -1.
         -6    2    1    2    0  503 -0.11245523804E+03  0.11435859622E+03  0.25396352987E+02  0.23745860006E+03  0.17325571536E+03 0.  0.
        -24    2    3    3    0    0 -0.14680765091E+03  0.74695617891E+02  0.15677765542E+02  0.18388826253E+03  0.80232032670E+02 0.  0.
          6    2    1    2  501    0  0.11245523804E+03 -0.11435859622E+03  0.54315421044E+03  0.59178871634E+03  0.17167795253E+03 0.  0.
         24    2    5    5    0    0  0.14308031033E+03 -0.70710652643E+02  0.37326914739E+03  0.41367060194E+03  0.79508105977E+02 0.  0.
          5    1    5    5  501    0 -0.30625072292E+02 -0.43647943579E+02  0.16988506305E+03  0.17811811440E+03  0.47000000000E+01 0. -1.
        -15    1    6    6    0    0  0.61677517248E+02 -0.10495373510E+02  0.22911041155E+03  0.23750580500E+03  0.17770000000E+01 0.  1.
         16    1    6    6    0    0  0.81402793082E+02 -0.60215279133E+02  0.14415873584E+03  0.17616479694E+03  0.00000000000E+00 0. -1.
         -5    1    3    3    0  503  0.34352412875E+02  0.39662978331E+02  0.97185874449E+01  0.53570337524E+02  0.47000000000E+01 0.  1.
         15    1    4    4    0    0 -0.11828862143E+03  0.33139891883E+02 -0.16697063573E+02  0.12398548324E+03  0.17770000000E+01 0. -1.
        -16    1    4    4    0    0 -0.28519029486E+02  0.41555726008E+02  0.32374829115E+02  0.59902779294E+02  0.00000000000E+00 0.  1.
<mgrwt>
<rscale>  2 0.23580724E+03</rscale>
<asrwt>0</asrwt>
<pdfrwt beam="1">  1       21 0.10752291E+00 0.23609662E+03</pdfrwt>
<pdfrwt beam="2">  1       21 0.20053597E-01 0.23609662E+03</pdfrwt>
<totfact> 0.15430211E+04</totfact>
</mgrwt>
</event>
<event>
12    2  0.4097182E-002  0.1861003E+03  0.7546771E-02  0.1162077E+00
         21   -1    0    0  503  502  0.00000000000E+00  0.00000000000E+00  0.39993139915E+02  0.39993139915E+02  0.00000000000E+00 0.  1.
         21   -1    0    0  501  503 -0.00000000000E+00 -0.00000000000E+00 -0.96258334068E+03  0.96258334068E+03  0.00000000000E+00 0.  1.
          6    2    1    2  501    0 -0.68036651196E+02 -0.73566204972E+01 -0.30189763918E+03  0.35464840187E+03  0.17306125689E+03 0.  0.
         24    2    3    3    0    0 -0.88464367301E+01  0.52784069878E+02 -0.20674864258E+03  0.22738565916E+03  0.78069323731E+02 0.  0.
         -6    2    1    2    0  502  0.68036651196E+02  0.73566204972E+01 -0.62069256159E+03  0.64792807873E+03  0.17282486344E+03 0.  0.
        -24    2    5    5    0    0  0.31310008722E+02  0.56660063347E+02 -0.52056334279E+03  0.53033715135E+03  0.77978335594E+02 0.  0.
          5    1    3    3  501    0 -0.59190214466E+02 -0.60140690375E+02 -0.95148996595E+02  0.12726274270E+03  0.47000000000E+01 0. -1.
        -15    1    4    4    0    0 -0.42881454492E+00  0.13407833592E+02  0.29553717558E+01  0.13850842385E+02  0.17770000000E+01 0.  1.
         16    1    4    4    0    0 -0.84176221852E+01  0.39376236286E+02 -0.20970401434E+03  0.21353481678E+03  0.00000000000E+00 0. -1.
         -5    1    5    5    0  502  0.36726642474E+02 -0.49303442850E+02 -0.10012921880E+03  0.11759092738E+03  0.47000000000E+01 0.  1.
         15    1    6    6    0    0 -0.45897720333E+01  0.14820464172E+02 -0.14597143083E+02  0.21376306528E+02  0.17770000000E+01 0. -1.
        -16    1    6    6    0    0  0.35899780755E+02  0.41839599175E+02 -0.50596619970E+03  0.50896084482E+03  0.00000000000E+00 0.  1.
<mgrwt>
<rscale>  2 0.18604528E+03</rscale>
<asrwt>0</asrwt>
<pdfrwt beam="1">  1       21 0.61527907E-02 0.18610025E+03</pdfrwt>
<pdfrwt beam="2">  1       21 0.14808975E+00 0.18610025E+03</pdfrwt>
<totfact> 0.58591018E+04</totfact>
</mgrwt>
</event>
<event>
12    2  0.4097182E-002  0.2449956E+03  0.7546771E-02  0.1116531E+00
         21   -1    0    0  503  502  0.00000000000E+00  0.00000000000E+00  0.35036479980E+03  0.35036479980E+03  0.00000000000E+00 0.  1.
         21   -1    0    0  501  503 -0.00000000000E+00 -0.00000000000E+00 -0.24202609603E+03  0.24202609603E+03  0.00000000000E+00 0.  1.
          6    2    1    2  501    0 -0.94967675452E+02  0.14347585329E+03 -0.10602713011E+03  0.26695426825E+03  0.17440942968E+03 0.  0.
         24    2    3    3    0    0 -0.11957894525E+03  0.78527747116E+02 -0.10851153910E+03  0.19729629395E+03  0.81763942378E+02 0.  0.
         -6    2    1    2    0  502  0.94967675452E+02 -0.14347585329E+03  0.21436583388E+03  0.32543662758E+03  0.17421856381E+03 0.  0.
        -24    2    5    5    0    0  0.47208036266E+02 -0.10665329339E+02  0.11600016238E+03  0.15333923150E+03  0.87832421735E+02 0.  0.
          5    1    3    3  501    0  0.24611269797E+02  0.64948106171E+02  0.24844089929E+01  0.69657974305E+02  0.47000000000E+01 0. -1.
        -15    1    4    4    0    0 -0.48455763592E+02  0.11967826869E+02 -0.82555914768E+02  0.96487443211E+02  0.17770000000E+01 0.  1.
         16    1    4    4    0    0 -0.71123181657E+02  0.66559920247E+02 -0.25955624335E+02  0.10080885074E+03  0.00000000000E+00 0. -1.
         -5    1    5    5    0  502  0.47759639186E+02 -0.13281052395E+03  0.98365671500E+02  0.17209739608E+03  0.47000000000E+01 0.  1.
         15    1    6    6    0    0  0.85061219499E+01 -0.36181285311E+02  0.11383973793E+02  0.38912621419E+02  0.17770000000E+01 0. -1.
        -16    1    6    6    0    0  0.38701914316E+02  0.25515955972E+02  0.10461618859E+03  0.11442661008E+03  0.00000000000E+00 0.  1.
<mgrwt>
<rscale>  2 0.24496160E+03</rscale>
<asrwt>0</asrwt>
<pdfrwt beam="1">  1       21 0.53902277E-01 0.24499557E+03</pdfrwt>
<pdfrwt beam="2">  1       21 0.37234784E-01 0.24499557E+03</pdfrwt>
<totfact> 0.22010283E+04</totfact>
</mgrwt>
</event>
<event>
12    2  0.4097182E-002  0.1865875E+03  0.7546771E-02  0.1161988E+00
         21   -1    0    0  503  502  0.00000000000E+00  0.00000000000E+00  0.35684386586E+03  0.35684386586E+03  0.00000000000E+00 0.  1.
         21   -1    0    0  501  503 -0.00000000000E+00 -0.00000000000E+00 -0.10105873244E+03  0.10105873244E+03  0.00000000000E+00 0.  1.
          6    2    1    2  501    0 -0.12482924433E+02 -0.64735249761E+02  0.17520160969E+03  0.25465741290E+03  0.17265085562E+03 0.  0.
         24    2    3    3    0    0  0.24850764038E+02  0.32727405476E+02  0.86356985509E+02  0.11751430988E+03  0.68289388185E+02 0.  0.
         -6    2    1    2    0  502  0.12482924433E+02  0.64735249761E+02  0.80583523738E+02  0.20324518540E+03  0.17455206995E+03 0.  0.
        -24    2    5    5    0    0 -0.23768244051E+02  0.61725622574E+02 -0.51191455086E+01  0.11002371476E+03  0.87772605354E+02 0.  0.
          5    1    3    3  501    0 -0.37333688471E+02 -0.97462655236E+02  0.88844624178E+02  0.13714310302E+03  0.47000000000E+01 0. -1.
        -15    1    4    4    0    0  0.43897712482E+02  0.42662975580E+01  0.37910367126E+02  0.58185600629E+02  0.17770000000E+01 0.  1.
         16    1    4    4    0    0 -0.19046948444E+02  0.28461107918E+02  0.48446618384E+02  0.59328709254E+02  0.00000000000E+00 0. -1.
         -5    1    5    5    0  502  0.36251168484E+02  0.30096271868E+01  0.85702669246E+02  0.93221470639E+02  0.47000000000E+01 0.  1.
         15    1    6    6    0    0 -0.15147567601E+02 -0.16400223144E+02  0.17287971529E+02  0.28292186412E+02  0.17770000000E+01 0. -1.
        -16    1    6    6    0    0 -0.86206764500E+01  0.78125845717E+02 -0.22407117037E+02  0.81731528344E+02  0.00000000000E+00 0.  1.
<mgrwt>
<rscale>  2 0.18614158E+03</rscale>
<asrwt>0</asrwt>
<pdfrwt beam="1">  1       21 0.54899056E-01 0.18658752E+03</pdfrwt>
<pdfrwt beam="2">  1       21 0.15547497E-01 0.18658752E+03</pdfrwt>
<totfact> 0.11531557E+05</totfact>
</mgrwt>
</event>
<event>
12    2  0.4097182E-002  0.2013095E+03  0.7546771E-02  0.1151282E+00
         21   -1    0    0  501  502  0.00000000000E+00  0.00000000000E+00  0.19364766660E+03  0.19364766660E+03  0.00000000000E+00 0. -1.
         21   -1    0    0  502  503 -0.00000000000E+00 -0.00000000000E+00 -0.20217588927E+03  0.20217588927E+03  0.00000000000E+00 0. -1.
         -6    2    1    2    0  503 -0.75477020788E+02  0.13365233016E+02  0.27975732949E+02  0.20324405396E+03  0.18614535642E+03 0.  0.
        -24    2    3    3    0    0  0.24101837338E+02  0.27969907848E+02 -0.19956314309E+02  0.91669788707E+02  0.81497738451E+02 0.  0.
          6    2    1    2  501    0  0.75477020788E+02 -0.13365233016E+02 -0.36503955620E+02  0.19257950191E+03  0.17285518696E+03 0.  0.
         24    2    5    5    0    0  0.90463589651E+02  0.40092858205E+02 -0.25765264978E+01  0.12734511520E+03  0.80118921259E+02 0.  0.
          5    1    5    5  501    0 -0.14986568863E+02 -0.53458091220E+02 -0.33927429122E+02  0.65234386715E+02  0.47000000000E+01 0. -1.
        -15    1    6    6    0    0  0.67985307305E+02  0.42889500040E+02  0.31561263991E+02  0.86375820325E+02  0.17770000000E+01 0.  1.
         16    1    6    6    0    0  0.22478282346E+02 -0.27966418351E+01 -0.34137790489E+02  0.40969294871E+02  0.00000000000E+00 0. -1.
         -5    1    3    3    0  503 -0.99578858126E+02 -0.14604674833E+02  0.47932047258E+02  0.11157426525E+03  0.47000000000E+01 0.  1.
         15    1    4    4    0    0 -0.64689136881E+01  0.27851286668E+02  0.24514318014E+02  0.37704781263E+02  0.17770000000E+01 0. -1.
        -16    1    4    4    0    0  0.30570751026E+02  0.11862118062E+00 -0.44470632323E+02  0.53965007444E+02  0.00000000000E+00 0.  1.
<mgrwt>
<rscale>  2 0.19818201E+03</rscale>
<asrwt>0</asrwt>
<pdfrwt beam="1">  1       21 0.29791949E-01 0.20130947E+03</pdfrwt>
<pdfrwt beam="2">  1       21 0.31103983E-01 0.20130947E+03</pdfrwt>
<totfact> 0.10689513E+05</totfact>
</mgrwt>
</event>
<event>
12    2  0.4097182E-002  0.1763142E+03  0.7546771E-02  0.1171793E+00
         21   -1    0    0  501  502  0.00000000000E+00  0.00000000000E+00  0.49683335308E+02  0.49683335308E+02  0.00000000000E+00 0.  1.
         21   -1    0    0  502  503 -0.00000000000E+00 -0.00000000000E+00 -0.62781039286E+03  0.62781039286E+03  0.00000000000E+00 0.  1.
         -6    2    1    2    0  503 -0.25677604497E+02  0.17408929681E+02 -0.25344501564E+03  0.30874108449E+03  0.17356344977E+03 0.  0.
        -24    2    3    3    0    0  0.19326221959E+02 -0.39730412145E+02 -0.81827186209E+02  0.12228728818E+03  0.79413373837E+02 0.  0.
          6    2    1    2  501    0  0.25677604497E+02 -0.17408929681E+02 -0.32468204191E+03  0.36875264367E+03  0.17203974445E+03 0.  0.
         24    2    5    5    0    0  0.53914565561E+02 -0.37291771876E+02 -0.10193759097E+03  0.14329791693E+03  0.76456287611E+02 0.  0.
          5    1    5    5  501    0 -0.28236961064E+02  0.19882842194E+02 -0.22274445094E+03  0.22545472674E+03  0.47000000000E+01 0. -1.
        -15    1    6    6    0    0  0.72487771753E+02 -0.25695678304E+02 -0.89863788785E+02  0.11829371581E+03  0.17770000000E+01 0.  1.
         16    1    6    6    0    0 -0.18573206192E+02 -0.11596093572E+02 -0.12073802183E+02  0.25004201118E+02  0.00000000000E+00 0. -1.
         -5    1    3    3    0  503 -0.45003826456E+02  0.57139341826E+02 -0.17161782943E+03  0.18645379631E+03  0.47000000000E+01 0.  1.
         15    1    4    4    0    0  0.30263501054E+02  0.15756118584E+02 -0.34326185972E+02  0.48431183563E+02  0.17770000000E+01 0. -1.
        -16    1    4    4    0    0 -0.10937279095E+02 -0.55486530729E+02 -0.47501000237E+02  0.73856104621E+02  0.00000000000E+00 0.  1.
<mgrwt>
<rscale>  2 0.17593802E+03</rscale>
<asrwt>0</asrwt>
<pdfrwt beam="1">  1       21 0.76435900E-02 0.17631416E+03</pdfrwt>
<pdfrwt beam="2">  1       21 0.96586215E-01 0.17631416E+03</pdfrwt>
<totfact> 0.11648788E+05</totfact>
</mgrwt>
</event>
<event>
12    2  0.4097182E-002  0.1795345E+03  0.7546771E-02  0.1168441E+00
         21   -1    0    0  501  502  0.00000000000E+00  0.00000000000E+00  0.90533714558E+03  0.90533714558E+03  0.00000000000E+00 0. -1.
         21   -1    0    0  502  503 -0.00000000000E+00 -0.00000000000E+00 -0.11306047341E+03  0.11306047341E+03  0.00000000000E+00 0. -1.
         -6    2    1    2    0  503 -0.26675229817E+02 -0.31493527318E+02 -0.26007457763E+02  0.18064971862E+03  0.17393827304E+03 0.  0.
        -24    2    3    3    0    0  0.49557434839E+02 -0.77819073825E+01  0.40214292596E+01  0.95224405414E+02  0.80839458576E+02 0.  0.
          6    2    1    2  501    0  0.26675229817E+02  0.31493527318E+02  0.81828412994E+03  0.83774790037E+03  0.17472612029E+03 0.  0.
         24    2    5    5    0    0  0.70592075239E+01  0.33245789158E+02  0.81155188532E+03  0.81641079959E+03  0.82188905620E+02 0.  0.
          5    1    5    5  501    0  0.19616022293E+02 -0.17522618406E+01  0.67322446182E+01  0.21337100781E+02  0.47000000000E+01 0. -1.
        -15    1    6    6    0    0 -0.28516053489E+01  0.26594709655E+02  0.73059502317E+02  0.77821968893E+02  0.17770000000E+01 0.  1.
         16    1    6    6    0    0  0.99108128728E+01  0.66510795038E+01  0.73849238300E+03  0.73858883069E+03  0.00000000000E+00 0. -1.
         -5    1    3    3    0  503 -0.76232664655E+02 -0.23711619935E+02 -0.30028887023E+02  0.85425313205E+02  0.47000000000E+01 0.  1.
         15    1    4    4    0    0 -0.55900628752E+01  0.15787666537E+02 -0.23764366530E+02  0.29127342192E+02  0.17770000000E+01 0. -1.
        -16    1    4    4    0    0  0.55147497714E+02 -0.23569573920E+02  0.27785795789E+02  0.66097063221E+02  0.00000000000E+00 0.  1.
<mgrwt>
<rscale>  2 0.17934250E+03</rscale>
<asrwt>0</asrwt>
<pdfrwt beam="1">  1       21 0.13928263E+00 0.17953447E+03</pdfrwt>
<pdfrwt beam="2">  1       21 0.17393920E-01 0.17953447E+03</pdfrwt>
<totfact> 0.10951017E+04</totfact>
</mgrwt>
</event>
<event>
12    2  0.4097182E-002  0.2394269E+03  0.7546771E-02  0.1120268E+00
         21   -1    0    0  503  502  0.00000000000E+00  0.00000000000E+00  0.12899143634E+03  0.12899143634E+03  0.00000000000E+00 0.  1.
         21   -1    0    0  501  503 -0.00000000000E+00 -0.00000000000E+00 -0.56104716099E+03  0.56104716099E+03  0.00000000000E+00 0.  1.
          6    2    1    2  501    0 -0.15933724455E+03 -0.41331355715E+02 -0.37422898242E+03  0.44426634843E+03  0.17386379323E+03 0.  0.
         24    2    3    3    0    0 -0.10480833190E+03  0.16127409450E+02 -0.32662856106E+03  0.35173093833E+03  0.76049696286E+02 0.  0.
         -6    2    1    2    0  502  0.15933724455E+03  0.41331355715E+02 -0.57826742239E+02  0.24577224891E+03  0.17309947357E+03 0.  0.
        -24    2    5    5    0    0  0.67339131173E+02  0.83878117031E+02 -0.51491214466E+02  0.14410559422E+03  0.80901050771E+02 0.  0.
          5    1    3    3  501    0 -0.54528912647E+02 -0.57458765165E+02 -0.47600421357E+02  0.92535410099E+02  0.47000000000E+01 0. -1.
        -15    1    4    4    0    0 -0.12978272693E+02 -0.26241683200E+02 -0.76645392312E+02  0.82065433594E+02  0.17770000000E+01 0.  1.
         16    1    4    4    0    0 -0.91830059205E+02  0.42369092650E+02 -0.24998316875E+03  0.26966550473E+03  0.00000000000E+00 0. -1.
         -5    1    5    5    0  502  0.91998113372E+02 -0.42546761315E+02 -0.63355277722E+01  0.10166665468E+03  0.47000000000E+01 0.  1.
         15    1    6    6    0    0 -0.11243929266E+02  0.39176993054E+02 -0.31427644421E+02  0.51498711566E+02  0.17770000000E+01 0. -1.
        -16    1    6    6    0    0  0.78583060439E+02  0.44701123977E+02 -0.20063570045E+02  0.92606882658E+02  0.00000000000E+00 0.  1.
<mgrwt>
<rscale>  2 0.23928820E+03</rscale>
<asrwt>0</asrwt>
<pdfrwt beam="1">  1       21 0.19844837E-01 0.23942693E+03</pdfrwt>
<pdfrwt beam="2">  1       21 0.86314946E-01 0.23942693E+03</pdfrwt>
<totfact> 0.26420747E+04</totfact>
</mgrwt>
</event>
<event>
12    2  0.4097182E-002  0.1767179E+03  0.7546771E-02  0.1171062E+00
         21   -1    0    0  501  502  0.00000000000E+00  0.00000000000E+00  0.43279473511E+02  0.43279473511E+02  0.00000000000E+00 0. -1.
         21   -1    0    0  502  503 -0.00000000000E+00 -0.00000000000E+00 -0.76373264610E+03  0.76373264610E+03  0.00000000000E+00 0. -1.
         -6    2    1    2    0  503  0.36761891094E+02  0.71531117530E+01 -0.45568051214E+03  0.48868246460E+03  0.17252019714E+03 0.  0.
        -24    2    3    3    0    0  0.84059691198E+01  0.98077886322E+00 -0.11516143216E+03  0.14689672787E+03  0.90801271783E+02 0.  0.
          6    2    1    2  501    0 -0.36761891094E+02 -0.71531117530E+01 -0.26477266045E+03  0.31832965501E+03  0.17270380393E+03 0.  0.
         24    2    5    5    0    0 -0.59786722993E+02  0.16191184083E+02 -0.26632664997E+03  0.28516937884E+03  0.80963469906E+02 0.  0.
          5    1    5    5  501    0  0.23024831899E+02 -0.23344295836E+02  0.15539895167E+01  0.33160276167E+02  0.47000000000E+01 0. -1.
        -15    1    6    6    0    0 -0.76087482040E+02  0.43253107071E+01 -0.16367730843E+03  0.18055866708E+03  0.17770000000E+01 0.  1.
         16    1    6    6    0    0  0.16300759047E+02  0.11865873376E+02 -0.10264934154E+03  0.10461071176E+03  0.00000000000E+00 0. -1.
         -5    1    3    3    0  503  0.28355921974E+02  0.61723328897E+01 -0.34051907998E+03  0.34178573673E+03  0.47000000000E+01 0.  1.
         15    1    4    4    0    0 -0.47724140870E+01  0.41432232903E+02 -0.85152152648E+02  0.94833816169E+02  0.17770000000E+01 0. -1.
        -16    1    4    4    0    0  0.13178383207E+02 -0.40451454040E+02 -0.30009279516E+02  0.52062911703E+02  0.00000000000E+00 0.  1.
<mgrwt>
<rscale>  2 0.17667300E+03</rscale>
<asrwt>0</asrwt>
<pdfrwt beam="1">  1       21 0.66583814E-02 0.17671788E+03</pdfrwt>
<pdfrwt beam="2">  1       21 0.11749731E+00 0.17671788E+03</pdfrwt>
<totfact> 0.92380101E+04</totfact>
</mgrwt>
</event>
<event>
12    2  0.4097182E-002  0.2145274E+03  0.7546771E-02  0.1138181E+00
         21   -1    0    0  503  502  0.00000000000E+00  0.00000000000E+00  0.10591790325E+03  0.10591790325E+03  0.00000000000E+00 0. -1.
         21   -1    0    0  501  503 -0.00000000000E+00 -0.00000000000E+00 -0.45987476079E+03  0.45987476079E+03  0.00000000000E+00 0.  1.
          6    2    1    2  501    0  0.31358379035E+02  0.12323926706E+03 -0.24576797951E+03  0.32622679113E+03  0.17277370928E+03 0.  0.
         24    2    3    3    0    0 -0.44083527642E+02  0.98650293037E+02 -0.16271522827E+03  0.21126615258E+03  0.80510272575E+02 0.  0.
         -6    2    1    2    0  502 -0.31358379035E+02 -0.12323926706E+03 -0.10818887804E+03  0.23956587292E+03  0.17180136569E+03 0.  0.
        -24    2    5    5    0    0  0.31312115696E+02 -0.35161350623E+02 -0.90310727018E+02  0.12989806288E+03  0.80626981584E+02 0.  0.
          5    1    3    3  501    0  0.75441906677E+02  0.24588974022E+02 -0.83052751241E+02  0.11496063855E+03  0.47000000000E+01 0. -1.
        -15    1    4    4    0    0 -0.11166246276E+02  0.19966748163E+02 -0.10689988225E+03  0.10933480069E+03  0.17770000000E+01 0.  1.
         16    1    4    4    0    0 -0.32917281366E+02  0.78683544874E+02 -0.55815346013E+02  0.10193135188E+03  0.00000000000E+00 0. -1.
         -5    1    5    5    0  502 -0.62670494731E+02 -0.88077916436E+02 -0.17878151020E+02  0.10966781003E+03  0.47000000000E+01 0.  1.
         15    1    6    6    0    0  0.46883198321E+02 -0.25868031334E+02 -0.19839222428E+02  0.57130918122E+02  0.17770000000E+01 0. -1.
        -16    1    6    6    0    0 -0.15571082625E+02 -0.92933192889E+01 -0.70471504590E+02  0.72767144761E+02  0.00000000000E+00 0.  1.
<mgrwt>
<rscale>  2 0.21433159E+03</rscale>
<asrwt>0</asrwt>
<pdfrwt beam="1">  1       21 0.16295062E-01 0.21452743E+03</pdfrwt>
<pdfrwt beam="2">  1       21 0.70749963E-01 0.21452743E+03</pdfrwt>
<totfact> 0.60411463E+04</totfact>
</mgrwt>
</event>
<event>
12    2  0.4097182E-002  0.1861363E+03  0.7546771E-02  0.1162086E+00
         21   -1    0    0  503  502  0.00000000000E+00  0.00000000000E+00  0.52177125189E+03  0.52177125189E+03  0.00000000000E+00 0.  1.
         21   -1    0    0  501  503 -0.00000000000E+00 -0.00000000000E+00 -0.66278905374E+02  0.66278905374E+02  0.00000000000E+00 0.  1.
          6    2    1    2  501    0 -0.25539453713E+02  0.62226832555E+02  0.23263359677E+03  0.29768357396E+03  0.17312618945E+03 0.  0.
         24    2    3    3    0    0  0.25178683220E+02  0.69910216781E+02  0.21780044483E+03  0.24407875884E+03  0.81338811469E+02 0.  0.
         -6    2    1    2    0  502  0.25539453713E+02 -0.62226832555E+02  0.22285874975E+03  0.29036658331E+03  0.17355773672E+03 0.  0.
        -24    2    5    5    0    0 -0.25705921071E+02 -0.11759238509E+02  0.19561104187E+03  0.21331079786E+03  0.80241776630E+02 0.  0.
          5    1    3    3  501    0 -0.50718136933E+02 -0.76833842265E+01  0.14833151934E+02  0.53604815114E+02  0.47000000000E+01 0. -1.
        -15    1    4    4    0    0 -0.11486999311E+02 -0.11263898561E+02  0.13043481004E+02  0.20787416619E+02  0.17770000000E+01 0.  1.
         16    1    4    4    0    0  0.36665682531E+02  0.81174115343E+02  0.20475696383E+03  0.22329134223E+03  0.00000000000E+00 0. -1.
         -5    1    5    5    0  502  0.51245374785E+02 -0.50467594046E+02  0.27247707889E+02  0.77055785447E+02  0.47000000000E+01 0.  1.
         15    1    6    6    0    0 -0.32130759325E+02  0.41909485018E+01  0.22833481835E+02  0.39679659347E+02  0.17770000000E+01 0. -1.
        -16    1    6    6    0    0  0.64248382542E+01 -0.15950187010E+02  0.17277756003E+03  0.17363113852E+03  0.00000000000E+00 0.  1.
<mgrwt>
<rscale>  2 0.18603566E+03</rscale>
<asrwt>0</asrwt>
<pdfrwt beam="1">  1       21 0.80272498E-01 0.18613632E+03</pdfrwt>
<pdfrwt beam="2">  1       21 0.10196755E-01 0.18613632E+03</pdfrwt>
<totfact> 0.10726681E+05</totfact>
</mgrwt>
</event>
<event>
12    2  0.4097182E-002  0.2635278E+03  0.7546771E-02  0.1105235E+00
         21   -1    0    0  501  502  0.00000000000E+00  0.00000000000E+00  0.31501998457E+03  0.31501998457E+03  0.00000000000E+00 0. -1.
         21   -1    0    0  502  503 -0.00000000000E+00 -0.00000000000E+00 -0.22134691868E+03  0.22134691868E+03  0.00000000000E+00 0.  1.
         -6    2    1    2    0  503 -0.14317870900E+03  0.13709455748E+03  0.21565580979E+02  0.26440867923E+03  0.17364277977E+03 0.  0.
        -24    2    3    3    0    0 -0.16754325219E+03  0.14469993372E+03  0.28299913855E+02  0.23759610845E+03  0.81499775794E+02 0.  0.
          6    2    1    2  501    0  0.14317870900E+03 -0.13709455748E+03  0.72107484915E+02  0.27195822403E+03  0.17165874820E+03 0.  0.
         24    2    5    5    0    0  0.15222953040E+03 -0.11869878062E+03  0.10473858255E+03  0.23313554371E+03  0.78222634960E+02 0.  0.
          5    1    5    5  501    0 -0.90508213996E+01 -0.18395776852E+02 -0.32631097634E+02  0.38822680315E+02  0.47000000000E+01 0. -1.
        -15    1    6    6    0    0  0.62834616895E+02 -0.84655559634E+02  0.24426374272E+02  0.10823381332E+03  0.17770000000E+01 0.  1.
         16    1    6    6    0    0  0.89394913506E+02 -0.34043220990E+02  0.80312208277E+02  0.12490173039E+03  0.00000000000E+00 0. -1.
         -5    1    3    3    0  503  0.24364543186E+02 -0.76053762408E+01 -0.67343328762E+01  0.26812570778E+02  0.47000000000E+01 0.  1.
         15    1    4    4    0    0 -0.13874743170E+03  0.72664495039E+02  0.32244180206E+02  0.15991817760E+03  0.17770000000E+01 0. -1.
        -16    1    4    4    0    0 -0.28795820489E+02  0.72035438678E+02 -0.39442663515E+01  0.77677930844E+02  0.00000000000E+00 0.  1.
<mgrwt>
<rscale>  2 0.26320138E+03</rscale>
<asrwt>0</asrwt>
<pdfrwt beam="1">  1       21 0.48464613E-01 0.26352775E+03</pdfrwt>
<pdfrwt beam="2">  1       21 0.34053372E-01 0.26352775E+03</pdfrwt>
<totfact> 0.32658636E+04</totfact>
</mgrwt>
</event>
<event>
12    2  0.4097182E-002  0.2236557E+03  0.7546771E-02  0.1132240E+00
         21   -1    0    0  501  502  0.00000000000E+00  0.00000000000E+00  0.13157845024E+03  0.13157845024E+03  0.00000000000E+00 0.  1.
         21   -1    0    0  502  503 -0.00000000000E+00 -0.00000000000E+00 -0.38226115572E+03  0.38226115572E+03  0.00000000000E+00 0. -1.
         -6    2    1    2    0  503 -0.10199241263E+03  0.98886659102E+02 -0.17187256312E+03  0.28206746079E+03  0.17274504595E+03 0.  0.
        -24    2    3    3    0    0 -0.12766671986E+02  0.95566173766E+02 -0.46886918734E+02  0.12839326088E+03  0.70643929739E+02 0.  0.
          6    2    1    2  501    0  0.10199241263E+03 -0.98886659102E+02 -0.78810142360E+02  0.23177214518E+03  0.16530657929E+03 0.  0.
         24    2    5    5    0    0  0.44718921632E+02 -0.11020128147E+03 -0.94052692045E+02  0.17125191078E+03  0.79606555482E+02 0.  0.
          5    1    5    5  501    0  0.57273490996E+02  0.11314622368E+02  0.15242549684E+02  0.60520234394E+02  0.47000000000E+01 0. -1.
        -15    1    6    6    0    0 -0.15157574212E+02 -0.20677558103E+02 -0.47319473747E+02  0.53847969227E+02  0.17770000000E+01 0.  1.
         16    1    6    6    0    0  0.59876495844E+02 -0.89523723367E+02 -0.46733218297E+02  0.11740394155E+03  0.00000000000E+00 0. -1.
         -5    1    3    3    0  503 -0.89225740642E+02  0.33204853360E+01 -0.12498564438E+03  0.15367419991E+03  0.47000000000E+01 0.  1.
         15    1    4    4    0    0  0.89951891217E+01  0.74558751992E+02 -0.59292436535E+02  0.95700949239E+02  0.17770000000E+01 0. -1.
        -16    1    4    4    0    0 -0.21761861108E+02  0.21007421775E+02  0.12405517801E+02  0.32692311641E+02  0.00000000000E+00 0.  1.
<mgrwt>
<rscale>  2 0.22221840E+03</rscale>
<asrwt>0</asrwt>
<pdfrwt beam="1">  1       21 0.20242839E-01 0.22365571E+03</pdfrwt>
<pdfrwt beam="2">  1       21 0.58809408E-01 0.22365571E+03</pdfrwt>
<totfact> 0.60197061E+04</totfact>
</mgrwt>
</event>
<event>
12    2  0.4097182E-002  0.1879328E+03  0.7546771E-02  0.1161021E+00
         21   -1    0    0  503  502  0.00000000000E+00  0.00000000000E+00  0.13067207567E+04  0.13067207567E+04  0.00000000000E+00 0. -1.
         21   -1    0    0  501  503 -0.00000000000E+00 -0.00000000000E+00 -0.43215661654E+02  0.43215661654E+02  0.00000000000E+00 0. -1.
          6    2    1    2  501    0  0.36524556457E+02 -0.52668332092E+02  0.21021390024E+03  0.28001067828E+03  0.17351685701E+03 0.  0.
         24    2    3    3    0    0 -0.26235108999E+02  0.94345052639E+01  0.57183243642E+02  0.10327355746E+03  0.81352403062E+02 0.  0.
         -6    2    1    2    0  502 -0.36524556457E+02  0.52668332092E+02  0.10532911948E+04  0.10699257401E+04  0.17666564972E+03 0.  0.
        -24    2    5    5    0    0 -0.58319953000E+02 -0.27406809373E+02  0.65617845455E+03  0.66420701231E+03  0.80302184649E+02 0.  0.
          5    1    3    3  501    0  0.62759665456E+02 -0.62102837356E+02  0.15303065660E+03  0.17673712082E+03  0.47000000000E+01 0. -1.
        -15    1    4    4    0    0 -0.30992519954E+02 -0.30136424929E+02  0.16455822626E+02  0.46289223670E+02  0.17770000000E+01 0.  1.
         16    1    4    4    0    0  0.47574109555E+01  0.39570930193E+02  0.40727421016E+02  0.56984333794E+02  0.00000000000E+00 0. -1.
         -5    1    5    5    0  502  0.21795396544E+02  0.80075141465E+02  0.39711274027E+03  0.40571872778E+03  0.47000000000E+01 0.  1.
         15    1    6    6    0    0 -0.22681862169E+01 -0.43360729411E+02  0.33198194759E+03  0.33481408091E+03  0.17770000000E+01 0. -1.
        -16    1    6    6    0    0 -0.56051766783E+02  0.15953920038E+02  0.32419650697E+03  0.32939293140E+03  0.00000000000E+00 0.  1.
<mgrwt>
<rscale>  2 0.18718920E+03</rscale>
<asrwt>0</asrwt>
<pdfrwt beam="1">  1       21 0.20103393E+00 0.18793283E+03</pdfrwt>
<pdfrwt beam="2">  1       21 0.66485644E-02 0.18793283E+03</pdfrwt>
<totfact> 0.21938850E+04</totfact>
</mgrwt>
</event>
<event>
12    2  0.4097182E-002  0.2721624E+03  0.7546771E-02  0.1100163E+00
         21   -1    0    0  501  502  0.00000000000E+00  0.00000000000E+00  0.51001658671E+03  0.51001658671E+03  0.00000000000E+00 0. -1.
         21   -1    0    0  502  503 -0.00000000000E+00 -0.00000000000E+00 -0.17174882848E+03  0.17174882848E+03  0.00000000000E+00 0. -1.
         -6    2    1    2    0  503  0.23182789467E+02 -0.20743044053E+03  0.33906165966E+02  0.27346609813E+03  0.17340487118E+03 0.  0.
        -24    2    3    3    0    0 -0.20427320087E+02 -0.52300072960E+02  0.53373729027E+02  0.11108275967E+03  0.79611880446E+02 0.  0.
          6    2    1    2  501    0 -0.23182789467E+02  0.20743044053E+03  0.30436159226E+03  0.40829931706E+03  0.17466403202E+03 0.  0.
         24    2    5    5    0    0  0.43384520724E+02  0.80566035488E+02  0.11258640455E+03  0.16887167313E+03  0.86422455330E+02 0.  0.
          5    1    5    5  501    0 -0.66567310191E+02  0.12686440505E+03  0.19177518771E+03  0.23942764393E+03  0.47000000000E+01 0. -1.
        -15    1    6    6    0    0 -0.10718531975E+02 -0.12991201173E+02  0.90331458140E+01  0.19194105551E+02  0.17770000000E+01 0.  1.
         16    1    6    6    0    0  0.54103052699E+02  0.93557236661E+02  0.10355325873E+03  0.14967756758E+03  0.00000000000E+00 0. -1.
         -5    1    3    3    0  503  0.43610109553E+02 -0.15513036757E+03 -0.19467563061E+02  0.16238333846E+03  0.47000000000E+01 0.  1.
         15    1    4    4    0    0 -0.78783113791E+01 -0.71989607272E+02  0.31170923742E+02  0.78862890901E+02  0.17770000000E+01 0. -1.
        -16    1    4    4    0    0 -0.12549008708E+02  0.19689534312E+02  0.22202805285E+02  0.32219868769E+02  0.00000000000E+00 0.  1.
<mgrwt>
<rscale>  2 0.27196055E+03</rscale>
<asrwt>0</asrwt>
<pdfrwt beam="1">  1       21 0.78464089E-01 0.27216237E+03</pdfrwt>
<pdfrwt beam="2">  1       21 0.26422897E-01 0.27216237E+03</pdfrwt>
<totfact> 0.18761590E+04</totfact>
</mgrwt>
</event>
<event>
12    2  0.4097182E-002  0.2091109E+03  0.7546771E-02  0.1143947E+00
         21   -1    0    0  503  502  0.00000000000E+00  0.00000000000E+00  0.91030272179E+03  0.91030272179E+03  0.00000000000E+00 0.  1.
         21   -1    0    0  501  503 -0.00000000000E+00 -0.00000000000E+00 -0.53275828757E+02  0.53275828757E+02  0.00000000000E+00 0.  1.
          6    2    1    2  501    0  0.88454307206E+02  0.77034383338E+02  0.25995683628E+03  0.33362389823E+03  0.17311524504E+03 0.  0.
         24    2    3    3    0    0  0.12863122849E+03  0.56009288778E+02  0.18616772587E+03  0.24688773265E+03  0.81314801903E+02 0.  0.
         -6    2    1    2    0  502 -0.88454307206E+02 -0.77034383338E+02  0.59707005676E+03  0.62995465231E+03  0.16306977223E+03 0.  0.
        -24    2    5    5    0    0 -0.86061373995E+02 -0.77014245243E+01  0.25487854238E+03  0.28077001946E+03  0.80017875688E+02 0.  0.
          5    1    3    3  501    0 -0.40176921281E+02  0.21025094560E+02  0.73789110410E+02  0.86736165582E+02  0.47000000000E+01 0. -1.
        -15    1    4    4    0    0  0.73345609353E+02  0.73609786360E+02  0.11338551308E+03  0.15380965953E+03  0.17770000000E+01 0.  1.
         16    1    4    4    0    0  0.55285619133E+02 -0.17600497582E+02  0.72782212783E+02  0.93078073120E+02  0.00000000000E+00 0. -1.
         -5    1    5    5    0  502 -0.23929332110E+01 -0.69332958813E+02  0.34219151437E+03  0.34918463285E+03  0.47000000000E+01 0.  1.
         15    1    6    6    0    0 -0.11848268389E+02  0.31593419716E+02  0.72295858825E+02  0.79802096246E+02  0.17770000000E+01 0. -1.
        -16    1    6    6    0    0 -0.74213105606E+02 -0.39294844240E+02  0.18258268356E+03  0.20096792322E+03  0.00000000000E+00 0.  1.
<mgrwt>
<rscale>  2 0.20702041E+03</rscale>
<asrwt>0</asrwt>
<pdfrwt beam="1">  1       21 0.14004656E+00 0.20911085E+03</pdfrwt>
<pdfrwt beam="2">  1       21 0.81962820E-02 0.20911085E+03</pdfrwt>
<totfact> 0.40743619E+04</totfact>
</mgrwt>
</event>
<event>
12    2  0.4097182E-002  0.2364219E+03  0.7546771E-02  0.1123007E+00
         21   -1    0    0  503  502  0.00000000000E+00  0.00000000000E+00  0.26788234962E+03  0.26788234962E+03  0.00000000000E+00 0.  1.
         21   -1    0    0  501  503 -0.00000000000E+00 -0.00000000000E+00 -0.40653994315E+03  0.40653994315E+03  0.00000000000E+00 0. -1.
          6    2    1    2  501    0  0.13610363233E+03  0.71457308035E+02 -0.30737836215E+03  0.38778445395E+03  0.17962455177E+03 0.  0.
         24    2    3    3    0    0  0.25681911755E+02  0.79129560263E+02 -0.21736184290E+03  0.24503683201E+03  0.76653965297E+02 0.  0.
         -6    2    1    2    0  502 -0.13610363233E+03 -0.71457308035E+02  0.16872076862E+03  0.28663783882E+03  0.17339033212E+03 0.  0.
        -24    2    5    5    0    0 -0.13346005730E+03 -0.10987186345E+03  0.12415683787E+03  0.22755568855E+03  0.80518679355E+02 0.  0.
          5    1    3    3  501    0  0.11042172058E+03 -0.76722522286E+01 -0.90016519252E+02  0.14274762193E+03  0.47000000000E+01 0. -1.
        -15    1    4    4    0    0 -0.46556620116E+00 -0.78165145615E+01  0.14289171768E+01  0.81556229115E+01  0.17770000000E+01 0.  1.
         16    1    4    4    0    0  0.26147477956E+02  0.86946074825E+02 -0.21879076008E+03  0.23688120910E+03  0.00000000000E+00 0. -1.
         -5    1    5    5    0  502 -0.26435750277E+01  0.38414555417E+02  0.44563930754E+02  0.59082150275E+02  0.47000000000E+01 0.  1.
         15    1    6    6    0    0 -0.10500671268E+02 -0.20091167212E+02 -0.98037057108E+01  0.24762662856E+02  0.17770000000E+01 0. -1.
        -16    1    6    6    0    0 -0.12295938604E+03 -0.89780696240E+02  0.13396054358E+03  0.20279302569E+03  0.00000000000E+00 0.  1.
<mgrwt>
<rscale>  2 0.23523779E+03</rscale>
<asrwt>0</asrwt>
<pdfrwt beam="1">  1       21 0.41212669E-01 0.23642192E+03</pdfrwt>
<pdfrwt beam="2">  1       21 0.62544607E-01 0.23642192E+03</pdfrwt>
<totfact> 0.13079301E+04</totfact>
</mgrwt>
</event>
<event>
12    2  0.4097182E-002  0.3512976E+03  0.7546771E-02  0.1062223E+00
         21   -1    0    0  503  502  0.00000000000E+00  0.00000000000E+00  0.49453243623E+03  0.49453243623E+03  0.00000000000E+00 0. -1.
         21   -1    0    0  501  503 -0.00000000000E+00 -0.00000000000E+00 -0.25485507584E+03  0.25485507584E+03  0.00000000000E+00 0. -1.
          6    2    1    2  501    0  0.27256962231E+03 -0.13556872575E+03  0.61285277040E+02  0.35660323642E+03  0.17531943600E+03 0.  0.
         24    2    3    3    0    0  0.21162822881E+03 -0.64449353483E+02  0.98289659585E+02  0.25579037573E+03  0.82629490754E+02 0.  0.
         -6    2    1    2    0  502 -0.27256962231E+03  0.13556872575E+03  0.17839208335E+03  0.39278427566E+03  0.17257657256E+03 0.  0.
        -24    2    5    5    0    0 -0.28773729531E+03  0.14198583189E+03  0.15728761001E+03  0.36560475487E+03  0.77296293258E+02 0.  0.
          5    1    3    3  501    0  0.60941393500E+02 -0.71119372267E+02 -0.37004382545E+02  0.10081286069E+03  0.47000000000E+01 0. -1.
        -15    1    4    4    0    0  0.24192695643E+01 -0.48199289131E+00  0.24831739875E+02  0.25017158444E+02  0.17770000000E+01 0.  1.
         16    1    4    4    0    0  0.20920895924E+03 -0.63967360592E+02  0.73457919710E+02  0.23077321729E+03  0.00000000000E+00 0. -1.
         -5    1    5    5    0  502  0.15167673000E+02 -0.64171061372E+01  0.21104473341E+02  0.27179520791E+02  0.47000000000E+01 0.  1.
         15    1    6    6    0    0 -0.23581514827E+03  0.12690902890E+03  0.97506128287E+02  0.28500050623E+03  0.17770000000E+01 0. -1.
        -16    1    6    6    0    0 -0.51922147042E+02  0.15076802987E+02  0.59781481721E+02  0.80604248638E+02  0.00000000000E+00 0.  1.
<mgrwt>
<rscale>  2 0.35095688E+03</rscale>
<asrwt>0</asrwt>
<pdfrwt beam="1">  1       21 0.76081913E-01 0.35129757E+03</pdfrwt>
<pdfrwt beam="2">  1       21 0.39208473E-01 0.35129757E+03</pdfrwt>
<totfact> 0.88830419E+03</totfact>
</mgrwt>
</event>
<event>
11    2  0.4097182E-002  0.2855483E+03  0.7546771E-02  0.1092781E+00
         21   -1    0    0  503  502  0.00000000000E+00  0.00000000000E+00  0.32359352352E+03  0.32359352352E+03  0.00000000000E+00 0.  1.
         21   -1    0    0  501  503 -0.00000000000E+00 -0.00000000000E+00 -0.80009663578E+03  0.80009663578E+03  0.00000000000E+00 0. -1.
          6    2    1    2  501    0  0.43393413569E+02 -0.22286783467E+03 -0.70360442318E+03  0.75933987291E+03  0.17316119141E+03 0.  0.
         24    2    3    3    0    0  0.35026619924E+02 -0.48501734083E+02 -0.16341865746E+03  0.19162842177E+03  0.80227876167E+02 0.  0.
         -6    2    1    2    0  502 -0.43393413569E+02  0.22286783467E+03  0.22710131092E+03  0.36435028638E+03  0.17211352559E+03 0.  0.
          5    1    3    3  501    0  0.83667936453E+01 -0.17436610059E+03 -0.54018576572E+03  0.56771145114E+03  0.47000000000E+01 0. -1.
        -15    1    4    4    0    0 -0.76750843450E+01 -0.51940262194E+02 -0.60356946067E+02  0.80017600714E+02  0.17770000000E+01 0.  1.
         16    1    4    4    0    0  0.42701704269E+02  0.34385281114E+01 -0.10306171139E+03  0.11161082106E+03  0.00000000000E+00 0. -1.
         -5    1    5    5    0  502  0.15712454191E+02  0.71321029389E+02  0.26526971844E+02  0.77841766970E+02  0.47000000000E+01 0.  1.
         15    1    5    5    0    0 -0.57263691258E+02  0.48455459725E+01  0.48768041267E+02  0.75392899071E+02  0.17770000000E+01 0. -1.
        -16    1    5    5    0    0 -0.18421765023E+01  0.14670125931E+03  0.15180629781E+03  0.21111562034E+03  0.00000000000E+00 0.  1.
<mgrwt>
<rscale>  2 0.28538969E+03</rscale>
<asrwt>0</asrwt>
<pdfrwt beam="1">  1       21 0.49783619E-01 0.28554835E+03</pdfrwt>
<pdfrwt beam="2">  1       21 0.12309179E+00 0.28554835E+03</pdfrwt>
<totfact> 0.17723441E+03</totfact>
</mgrwt>
</event>
<event>
12    2  0.4097182E-002  0.1800777E+03  0.7546771E-02  0.1168310E+00
         21   -1    0    0  503  502  0.00000000000E+00  0.00000000000E+00  0.61205705545E+02  0.61205705545E+02  0.00000000000E+00 0. -1.
         21   -1    0    0  501  503 -0.00000000000E+00 -0.00000000000E+00 -0.53859507192E+03  0.53859507192E+03  0.00000000000E+00 0. -1.
          6    2    1    2  501    0  0.94305492975E+01 -0.47400140557E+02 -0.28848739526E+03  0.33881812821E+03  0.17098841538E+03 0.  0.
         24    2    3    3    0    0 -0.25550245511E+02  0.31971789611E+02 -0.15862125734E+03  0.18257836668E+03  0.80617283035E+02 0.  0.
         -6    2    1    2    0  502 -0.94305492975E+01  0.47400140557E+02 -0.18890197112E+03  0.26098264925E+03  0.17347126545E+03 0.  0.
        -24    2    5    5    0    0  0.36806687816E+02  0.77242436463E+02 -0.86487812377E+02  0.14462460428E+03  0.78198517978E+02 0.  0.
          5    1    3    3  501    0  0.34980794808E+02 -0.79371930168E+02 -0.12986613792E+03  0.15623976153E+03  0.47000000000E+01 0. -1.
        -15    1    4    4    0    0  0.22543157804E+02  0.15641550570E+02 -0.17492157317E+02  0.32588116923E+02  0.17770000000E+01 0.  1.
         16    1    4    4    0    0 -0.48093403315E+02  0.16330239041E+02 -0.14112910002E+03  0.14999024976E+03  0.00000000000E+00 0. -1.
         -5    1    5    5    0  502 -0.46237237114E+02 -0.29842295906E+02 -0.10241415874E+03  0.11635804498E+03  0.47000000000E+01 0.  1.
         15    1    6    6    0    0  0.11594584556E+02  0.59357821254E+02 -0.94937532801E+02  0.11257920855E+03  0.17770000000E+01 0. -1.
        -16    1    6    6    0    0  0.25212103260E+02  0.17884615208E+02  0.84497204232E+01  0.32045395725E+02  0.00000000000E+00 0.  1.
<mgrwt>
<rscale>  2 0.17947710E+03</rscale>
<asrwt>0</asrwt>
<pdfrwt beam="1">  1       21 0.94162624E-02 0.18007773E+03</pdfrwt>
<pdfrwt beam="2">  1       21 0.82860780E-01 0.18007773E+03</pdfrwt>
<totfact> 0.11513058E+05</totfact>
</mgrwt>
</event>
<event>
12    2  0.4097182E-002  0.2327895E+03  0.7546771E-02  0.1124783E+00
         21   -1    0    0  503  502  0.00000000000E+00  0.00000000000E+00  0.93922135056E+03  0.93922135056E+03  0.00000000000E+00 0. -1.
         21   -1    0    0  501  503 -0.00000000000E+00 -0.00000000000E+00 -0.13018382613E+03  0.13018382613E+03  0.00000000000E+00 0. -1.
          6    2    1    2  501    0 -0.14308790096E+03 -0.57270039107E+02  0.53725814422E+01  0.23285151612E+03  0.17446191317E+03 0.  0.
         24    2    3    3    0    0 -0.17497161760E+03 -0.44486197862E+02  0.10967957411E+02  0.19773177500E+03  0.79896620621E+02 0.  0.
         -6    2    1    2    0  502  0.14308790096E+03  0.57270039107E+02  0.80366494298E+03  0.83655366057E+03  0.17375465937E+03 0.  0.
        -24    2    5    5    0    0  0.99588151850E+02  0.38686657669E+02  0.27097164067E+03  0.30174358721E+03  0.78797873732E+02 0.  0.
          5    1    3    3  501    0  0.31883716644E+02 -0.12783841245E+02 -0.55953759690E+01  0.35119741119E+02  0.47000000000E+01 0. -1.
        -15    1    4    4    0    0  0.37511794354E+01  0.96163577596E+01  0.27012047749E+01  0.10816650126E+02  0.17770000000E+01 0.  1.
         16    1    4    4    0    0 -0.17872279704E+03 -0.54102555622E+02  0.82667526363E+01  0.18691512487E+03  0.00000000000E+00 0. -1.
         -5    1    5    5    0  502  0.43499749109E+02  0.18583381438E+02  0.53269330231E+03  0.53481007336E+03  0.47000000000E+01 0.  1.
         15    1    6    6    0    0  0.11099230578E+01  0.32037391587E+02  0.90776823588E+02  0.96287152927E+02  0.17770000000E+01 0. -1.
        -16    1    6    6    0    0  0.98478228793E+02  0.66492660818E+01  0.18019481708E+03  0.20545643428E+03  0.00000000000E+00 0.  1.
<mgrwt>
<rscale>  2 0.23265702E+03</rscale>
<asrwt>0</asrwt>
<pdfrwt beam="1">  1       21 0.14449559E+00 0.23278953E+03</pdfrwt>
<pdfrwt beam="2">  1       21 0.20028282E-01 0.23278953E+03</pdfrwt>
<totfact> 0.73672835E+03</totfact>
</mgrwt>
</event>
<event>
12    2  0.4097182E-002  0.1915084E+03  0.7546771E-02  0.1157137E+00
         21   -1    0    0  501  502  0.00000000000E+00  0.00000000000E+00  0.65308828650E+03  0.65308828650E+03  0.00000000000E+00 0.  1.
         21   -1    0    0  502  503 -0.00000000000E+00 -0.00000000000E+00 -0.24611102078E+03  0.24611102078E+03  0.00000000000E+00 0.  1.
         -6    2    1    2    0  503  0.56195755179E+02 -0.60661500738E+02 -0.19152405881E+03  0.27084487037E+03  0.17273592021E+03 0.  0.
        -24    2    3    3    0    0  0.89988653206E+02  0.10408302010E+01 -0.13455252848E+03  0.18019729528E+03  0.79168436101E+02 0.  0.
          6    2    1    2  501    0 -0.56195755179E+02  0.60661500738E+02  0.59850132452E+03  0.62835443691E+03  0.17259108425E+03 0.  0.
         24    2    5    5    0    0 -0.83860877952E+02  0.50008192868E+02  0.57870903686E+03  0.59240062436E+03  0.80628060784E+02 0.  0.
          5    1    5    5  501    0  0.27665122773E+02  0.10653307870E+02  0.19792287660E+02  0.35953812557E+02  0.47000000000E+01 0. -1.
        -15    1    6    6    0    0 -0.20559194205E+02  0.58772114620E+02  0.31011034670E+03  0.31630432622E+03  0.17770000000E+01 0.  1.
         16    1    6    6    0    0 -0.63301683747E+02 -0.87639217514E+01  0.26859869016E+03  0.27609629814E+03  0.00000000000E+00 0. -1.
         -5    1    3    3    0  503 -0.33792898027E+02 -0.61702330939E+02 -0.56971530330E+02  0.90647575084E+02  0.47000000000E+01 0. -1.
         15    1    4    4    0    0 -0.83481256638E+01  0.15783187534E+02 -0.35859449204E+02  0.40098105155E+02  0.17770000000E+01 0. -1.
        -16    1    4    4    0    0  0.98336778870E+02 -0.14742357333E+02 -0.98693079272E+02  0.14009919013E+03  0.00000000000E+00 0.  1.
<mgrwt>
<rscale>  2 0.19147576E+03</rscale>
<asrwt>0</asrwt>
<pdfrwt beam="1">  1       21 0.10047512E+00 0.19150843E+03</pdfrwt>
<pdfrwt beam="2">  1       21 0.37863234E-01 0.19150843E+03</pdfrwt>
<totfact> 0.54659152E+03</totfact>
</mgrwt>
</event>
<event>
12    2  0.4097182E-002  0.1809533E+03  0.7546771E-02  0.1166961E+00
         21   -1    0    0  501  502  0.00000000000E+00  0.00000000000E+00  0.83828638927E+02  0.83828638927E+02  0.00000000000E+00 0. -1.
         21   -1    0    0  502  503 -0.00000000000E+00 -0.00000000000E+00 -0.42155218995E+03  0.42155218995E+03  0.00000000000E+00 0. -1.
         -6    2    1    2    0  503 -0.37755590172E+02  0.35364899409E+02 -0.23794923891E+03  0.29874340006E+03  0.17306535785E+03 0.  0.
        -24    2    3    3    0    0 -0.29567270476E+02  0.90300280160E+02 -0.17516187339E+03  0.21478336251E+03  0.80136426430E+02 0.  0.
          6    2    1    2  501    0  0.37755590172E+02 -0.35364899409E+02 -0.99774312118E+02  0.20663742882E+03  0.17340113301E+03 0.  0.
         24    2    5    5    0    0 -0.23784479222E+02 -0.31322217937E+02 -0.71967489232E+00  0.89858001816E+02  0.80790839642E+02 0.  0.
          5    1    5    5  501    0  0.61540069393E+02 -0.40426814720E+01 -0.99054637225E+02  0.11677942700E+03  0.47000000000E+01 0. -1.
        -15    1    6    6    0    0 -0.22380204891E+02 -0.18423809649E+02 -0.39464115806E+02  0.48998821397E+02  0.17770000000E+01 0.  1.
         16    1    6    6    0    0 -0.14042743308E+01 -0.12898408288E+02  0.38744440914E+02  0.40859180419E+02  0.00000000000E+00 0. -1.
         -5    1    3    3    0  503 -0.81883196961E+01 -0.54935380750E+02 -0.62787365516E+02  0.83960037554E+02  0.47000000000E+01 0.  1.
         15    1    4    4    0    0 -0.81947684235E+01 -0.11045100413E+02 -0.52209021720E+02  0.54019331268E+02  0.17770000000E+01 0. -1.
        -16    1    4    4    0    0 -0.21372502052E+02  0.10134538057E+03 -0.12295285167E+03  0.16076403124E+03  0.00000000000E+00 0.  1.
<mgrwt>
<rscale>  2 0.18087286E+03</rscale>
<asrwt>0</asrwt>
<pdfrwt beam="1">  1       21 0.12896714E-01 0.18095335E+03</pdfrwt>
<pdfrwt beam="2">  1       21 0.64854182E-01 0.18095335E+03</pdfrwt>
<totfact> 0.11342603E+05</totfact>
</mgrwt>
</event>
<event>
12    2  0.4097182E-002  0.2242268E+03  0.7546771E-02  0.1130885E+00
         21   -1    0    0  501  502  0.00000000000E+00  0.00000000000E+00  0.59929922699E+02  0.59929922699E+02  0.00000000000E+00 0.  1.
         21   -1    0    0  502  503 -0.00000000000E+00 -0.00000000000E+00 -0.98613356383E+03  0.98613356383E+03  0.00000000000E+00 0. -1.
         -6    2    1    2    0  503 -0.27354063764E+02  0.13995098112E+03 -0.66733597231E+03  0.70399926314E+03  0.17304086409E+03 0.  0.
        -24    2    3    3    0    0  0.18696375715E+00  0.10715864846E+03 -0.24400341151E+03  0.27848029493E+03  0.80812121240E+02 0.  0.
          6    2    1    2  501    0  0.27354063764E+02 -0.13995098112E+03 -0.25886766882E+03  0.34206422338E+03  0.17222352057E+03 0.  0.
         24    2    5    5    0    0  0.58788543276E+02 -0.66186411974E+02 -0.22435343624E+03  0.25464191265E+03  0.81678059330E+02 0.  0.
          5    1    5    5  501    0 -0.31434479511E+02 -0.73764569146E+02 -0.34514232581E+02  0.87422310734E+02  0.47000000000E+01 0. -1.
        -15    1    6    6    0    0  0.66470898371E+02 -0.79747374220E+02 -0.20497289481E+03  0.22977177669E+03  0.17770000000E+01 0.  1.
         16    1    6    6    0    0 -0.76823550951E+01  0.13560962246E+02 -0.19380541424E+02  0.24870135961E+02  0.00000000000E+00 0. -1.
         -5    1    3    3    0  503 -0.27541027521E+02  0.32792332663E+02 -0.42333256079E+03  0.42551896821E+03  0.47000000000E+01 0.  1.
         15    1    4    4    0    0  0.13541513627E+02  0.43218907614E+02 -0.18495288837E+03  0.19042577349E+03  0.17770000000E+01 0. -1.
        -16    1    4    4    0    0 -0.13354549870E+02  0.63939740844E+02 -0.59050523148E+02  0.88054521436E+02  0.00000000000E+00 0.  1.
<mgrwt>
<rscale>  2 0.22406910E+03</rscale>
<asrwt>0</asrwt>
<pdfrwt beam="1">  1       21 0.92199885E-02 0.22422681E+03</pdfrwt>
<pdfrwt beam="2">  1       21 0.15171285E+00 0.22422681E+03</pdfrwt>
<totfact> 0.26634953E+04</totfact>
</mgrwt>
</event>
<event>
12    2  0.4097182E-002  0.1893350E+03  0.7546771E-02  0.1159917E+00
         21   -1    0    0  501  502  0.00000000000E+00  0.00000000000E+00  0.71465889832E+02  0.71465889832E+02  0.00000000000E+00 0. -1.
         21   -1    0    0  502  503 -0.00000000000E+00 -0.00000000000E+00 -0.54333775847E+03  0.54333775847E+03  0.00000000000E+00 0. -1.
         -6    2    1    2    0  503 -0.78568424166E+02  0.20694825066E+02 -0.32851278918E+03  0.37731768060E+03  0.16687332434E+03 0.  0.
        -24    2    3    3    0    0  0.77606145404E+00 -0.27832222900E+02 -0.11913652411E+03  0.14816504117E+03  0.83571126263E+02 0.  0.
          6    2    1    2  501    0  0.78568424166E+02 -0.20694825066E+02 -0.14335907946E+03  0.23748596770E+03  0.17101604057E+03 0.  0.
         24    2    5    5    0    0  0.10107711910E+03 -0.55613609908E+02 -0.78749881006E+02  0.16052882764E+03  0.79110701749E+02 0.  0.
          5    1    5    5  501    0 -0.22508694934E+02  0.34918784842E+02 -0.64609198450E+02  0.76957140064E+02  0.47000000000E+01 0. -1.
        -15    1    6    6    0    0  0.40830010430E+02  0.72328928519E+01  0.23189981580E+01  0.41568497353E+02  0.17770000000E+01 0.  1.
         16    1    6    6    0    0  0.60247108670E+02 -0.62846502759E+02 -0.81068879164E+02  0.11896033028E+03  0.00000000000E+00 0. -1.
         -5    1    3    3    0  503 -0.79344485620E+02  0.48527047966E+02 -0.20937626507E+03  0.22915263943E+03  0.47000000000E+01 0.  1.
         15    1    4    4    0    0 -0.29113489833E+02  0.12997970675E+02 -0.22440105536E+02  0.39028945635E+02  0.17770000000E+01 0. -1.
        -16    1    4    4    0    0  0.29889551287E+02 -0.40830193575E+02 -0.96696418570E+02  0.10913609553E+03  0.00000000000E+00 0.  1.
<mgrwt>
<rscale>  2 0.18839472E+03</rscale>
<asrwt>0</asrwt>
<pdfrwt beam="1">  1       21 0.10994752E-01 0.18933504E+03</pdfrwt>
<pdfrwt beam="2">  1       21 0.83590425E-01 0.18933504E+03</pdfrwt>
<totfact> 0.85508761E+04</totfact>
</mgrwt>
</event>
<event>
12    2  0.4097182E-002  0.1965748E+03  0.7546771E-02  0.1155687E+00
         21   -1    0    0  501  502  0.00000000000E+00  0.00000000000E+00  0.47892786973E+03  0.47892786973E+03  0.00000000000E+00 0.  1.
         21   -1    0    0  502  503 -0.00000000000E+00 -0.00000000000E+00 -0.75268420171E+02  0.75268420171E+02  0.00000000000E+00 0.  1.
         -6    2    1    2    0  503 -0.30817130880E+01 -0.93594985046E+02  0.21468389519E+03  0.29108559920E+03  0.17283556645E+03 0.  0.
        -24    2    3    3    0    0  0.15404461830E+02  0.11085239021E+02  0.56300458863E+02  0.10027917668E+03  0.80783609969E+02 0.  0.
          6    2    1    2  501    0  0.30817130880E+01  0.93594985046E+02  0.18897555437E+03  0.26311069069E+03  0.15730847793E+03 0.  0.
         24    2    5    5    0    0 -0.21068269527E+02  0.35780431212E+02  0.17760428582E+03  0.19925820411E+03  0.80227416269E+02 0.  0.
          5    1    5    5  501    0  0.24149982615E+02  0.57814553834E+02  0.11371268544E+02  0.63852486589E+02  0.47000000000E+01 0. -1.
        -15    1    6    6    0    0 -0.40638300952E+02  0.40035720088E+02  0.16723423842E+03  0.17670534405E+03  0.17770000000E+01 0.  1.
         16    1    6    6    0    0  0.19570031425E+02 -0.42552888756E+01  0.10370047401E+02  0.22552860051E+02  0.00000000000E+00 0. -1.
         -5    1    3    3    0  503 -0.18486174918E+02 -0.10468022407E+03  0.15838343632E+03  0.19080642252E+03  0.47000000000E+01 0.  1.
         15    1    4    4    0    0 -0.24141048922E+02  0.28578138502E+02  0.37907441344E+02  0.53288198332E+02  0.17770000000E+01 0. -1.
        -16    1    4    4    0    0  0.39545510752E+02 -0.17492899481E+02  0.18393017519E+02  0.46990978350E+02  0.00000000000E+00 0.  1.
<mgrwt>
<rscale>  2 0.19310857E+03</rscale>
<asrwt>0</asrwt>
<pdfrwt beam="1">  1       21 0.73681209E-01 0.19657480E+03</pdfrwt>
<pdfrwt beam="2">  1       21 0.11579757E-01 0.19657480E+03</pdfrwt>
<totfact> 0.10328277E+05</totfact>
</mgrwt>
</event>
<event>
12    2  0.4097182E-002  0.1851767E+03  0.7546771E-02  0.1163467E+00
         21   -1    0    0  503  502  0.00000000000E+00  0.00000000000E+00  0.26110966265E+03  0.26110966265E+03  0.00000000000E+00 0.  1.
         21   -1    0    0  501  503 -0.00000000000E+00 -0.00000000000E+00 -0.14228371781E+03  0.14228371781E+03  0.00000000000E+00 0. -1.
          6    2    1    2  501    0 -0.38695536383E+02 -0.53534635145E+02 -0.12299844378E+01  0.18270392324E+03  0.17034056771E+03 0.  0.
         24    2    3    3    0    0  0.22625971061E+02 -0.73877842075E+02 -0.23738444645E+02  0.11412627291E+03  0.80569363274E+02 0.  0.
         -6    2    1    2    0  502  0.38695536383E+02  0.53534635145E+02  0.12005592928E+03  0.22068945723E+03  0.17299453368E+03 0.  0.
        -24    2    5    5    0    0  0.78863569875E+02  0.30579680317E+01  0.44155861532E+02  0.12096847087E+03  0.80341875847E+02 0.  0.
          5    1    3    3  501    0 -0.61321507445E+02  0.20343206930E+02  0.22508460208E+02  0.68577650327E+02  0.47000000000E+01 0. -1.
        -15    1    4    4    0    0  0.19789041618E+02 -0.71699176276E+02  0.14432515258E+02  0.75788081336E+02  0.17770000000E+01 0.  1.
         16    1    4    4    0    0  0.28369294428E+01 -0.21786657986E+01 -0.38170959904E+02  0.38338191576E+02  0.00000000000E+00 0. -1.
         -5    1    5    5    0  502 -0.40168033491E+02  0.50476667113E+02  0.75900067745E+02  0.99720986363E+02  0.47000000000E+01 0.  1.
         15    1    6    6    0    0 -0.51672855318E+01  0.24624145142E+02  0.46734901962E+01  0.25652458038E+02  0.17770000000E+01 0. -1.
        -16    1    6    6    0    0  0.84030855407E+02 -0.21566177111E+02  0.39482371336E+02  0.95316012830E+02  0.00000000000E+00 0.  1.
<mgrwt>
<rscale>  2 0.18455434E+03</rscale>
<asrwt>0</asrwt>
<pdfrwt beam="1">  1       21 0.40170717E-01 0.18517670E+03</pdfrwt>
<pdfrwt beam="2">  1       21 0.21889803E-01 0.18517670E+03</pdfrwt>
<totfact> 0.11668078E+05</totfact>
</mgrwt>
</event>
<event>
12    2  0.4097182E-002  0.2093153E+03  0.7546771E-02  0.1142344E+00
         21   -1    0    0  501  502  0.00000000000E+00  0.00000000000E+00  0.57357036533E+02  0.57357036533E+02  0.00000000000E+00 0.  1.
         21   -1    0    0  502  503 -0.00000000000E+00 -0.00000000000E+00 -0.78013428083E+03  0.78013428083E+03  0.00000000000E+00 0. -1.
         -6    2    1    2    0  503  0.49126485982E+02 -0.10539352288E+03 -0.42837346932E+03  0.47626220294E+03  0.17262864897E+03 0.  0.
        -24    2    3    3    0    0  0.11345297501E+01 -0.53484400929E+02 -0.36944035361E+03  0.38410479992E+03  0.90490077610E+02 0.  0.
          6    2    1    2  501    0 -0.49126485982E+02  0.10539352288E+03 -0.29440377498E+03  0.36122911442E+03  0.17404506340E+03 0.  0.
         24    2    5    5    0    0  0.34498226825E+02  0.77949458316E+02 -0.12773174559E+03  0.17268754168E+03  0.78989508888E+02 0.  0.
          5    1    5    5  501    0 -0.83624712807E+02  0.27444064561E+02 -0.16667202938E+03  0.18854157274E+03  0.47000000000E+01 0. -1.
        -15    1    6    6    0    0  0.75417343283E+01  0.76042913219E+02 -0.52447619543E+02  0.92700123691E+02  0.17770000000E+01 0.  1.
         16    1    6    6    0    0  0.26956492496E+02  0.19065450967E+01 -0.75284126050E+02  0.79987417992E+02  0.00000000000E+00 0. -1.
         -5    1    3    3    0  503  0.47991956232E+02 -0.51909121948E+02 -0.58933115712E+02  0.92157403023E+02  0.47000000000E+01 0.  1.
         15    1    4    4    0    0  0.43522778218E+02 -0.13204125387E+02 -0.13432862108E+03  0.14183059374E+03  0.17770000000E+01 0. -1.
        -16    1    4    4    0    0 -0.42388248468E+02 -0.40280275541E+02 -0.23511173252E+03  0.24227420617E+03  0.00000000000E+00 0.  1.
<mgrwt>
<rscale>  2 0.20902060E+03</rscale>
<asrwt>0</asrwt>
<pdfrwt beam="1">  1       21 0.88241590E-02 0.20931529E+03</pdfrwt>
<pdfrwt beam="2">  1       21 0.12002067E+00 0.20931529E+03</pdfrwt>
<totfact> 0.52918165E+04</totfact>
</mgrwt>
</event>
<event>
12    2  0.4097182E-002  0.1895241E+03  0.7546771E-02  0.1159014E+00
         21   -1    0    0  503  502  0.00000000000E+00  0.00000000000E+00  0.36476425148E+02  0.36476425148E+02  0.00000000000E+00 0.  1.
         21   -1    0    0  501  503 -0.00000000000E+00 -0.00000000000E+00 -0.10709143458E+04  0.10709143458E+04  0.00000000000E+00 0. -1.
          6    2    1    2  501    0 -0.17900260293E+02  0.74259802340E+02 -0.67751830664E+03  0.70352713853E+03  0.17344867038E+03 0.  0.
         24    2    3    3    0    0 -0.16667667534E+02  0.51425731330E+02 -0.17264540534E+03  0.19811478159E+03  0.80750317120E+02 0.  0.
         -6    2    1    2    0  502  0.17900260293E+02 -0.74259802340E+02 -0.35691961401E+03  0.40386363241E+03  0.17285625577E+03 0.  0.
        -24    2    5    5    0    0  0.44597589312E+02 -0.52706113687E+02 -0.10040389455E+03  0.14502060430E+03  0.78633035291E+02 0.  0.
          5    1    3    3  501    0 -0.12325927591E+01  0.22834071010E+02 -0.50487290130E+03  0.50541235695E+03  0.47000000000E+01 0. -1.
        -15    1    4    4    0    0  0.26479960746E+02  0.15203148238E+02 -0.10856589543E+03  0.11279200067E+03  0.17770000000E+01 0.  1.
         16    1    4    4    0    0 -0.43147628280E+02  0.36222583092E+02 -0.64079509911E+02  0.85322780912E+02  0.00000000000E+00 0. -1.
         -5    1    5    5    0  502 -0.26697329019E+02 -0.21553688653E+02 -0.25651571946E+03  0.25884302811E+03  0.47000000000E+01 0.  1.
         15    1    6    6    0    0  0.54474562665E+01  0.15939383265E+02  0.38832568157E+00  0.16942468665E+02  0.17770000000E+01 0. -1.
        -16    1    6    6    0    0  0.39150133046E+02 -0.68645496951E+02 -0.10079222023E+03  0.12807813564E+03  0.00000000000E+00 0.  1.
<mgrwt>
<rscale>  2 0.18938844E+03</rscale>
<asrwt>0</asrwt>
<pdfrwt beam="1">  1       21 0.56117573E-02 0.18952409E+03</pdfrwt>
<pdfrwt beam="2">  1       21 0.16475606E+00 0.18952409E+03</pdfrwt>
<totfact> 0.51485494E+04</totfact>
</mgrwt>
</event>
<event>
12    2  0.4097182E-002  0.2258159E+03  0.7546771E-02  0.1130336E+00
         21   -1    0    0  503  502  0.00000000000E+00  0.00000000000E+00  0.12951011278E+03  0.12951011278E+03  0.00000000000E+00 0.  1.
         21   -1    0    0  501  503 -0.00000000000E+00 -0.00000000000E+00 -0.41605951043E+03  0.41605951043E+03  0.00000000000E+00 0.  1.
          6    2    1    2  501    0  0.77133001632E+02  0.11515014621E+03 -0.21430986535E+03  0.30848027210E+03  0.17326945425E+03 0.  0.
         24    2    3    3    0    0  0.57691811211E+02  0.89633154978E+02 -0.23552584798E+03  0.26973385749E+03  0.76951161508E+02 0.  0.
         -6    2    1    2    0  502 -0.77133001632E+02 -0.11515014621E+03 -0.72239532298E+02  0.23708935110E+03  0.17827998841E+03 0.  0.
        -24    2    5    5    0    0 -0.21949495055E+02 -0.14097060834E+03 -0.63462984580E+02  0.17535578283E+03  0.79797289492E+02 0.  0.
          5    1    3    3  501    0  0.19441190421E+02  0.25516991235E+02  0.21215982626E+02  0.38746414614E+02  0.47000000000E+01 0. -1.
        -15    1    4    4    0    0  0.48631861739E+02  0.64493461735E+02 -0.86627117146E+02  0.11845623553E+03  0.17770000000E+01 0.  1.
         16    1    4    4    0    0  0.90599494716E+01  0.25139693243E+02 -0.14889873083E+03  0.15127762195E+03  0.00000000000E+00 0. -1.
         -5    1    5    5    0  502 -0.55183506577E+02  0.25820462126E+02 -0.87765477183E+01  0.61733568278E+02  0.47000000000E+01 0.  1.
         15    1    6    6    0    0  0.61328173449E+01 -0.80753586560E+01 -0.35123360352E+02  0.36600970443E+02  0.17770000000E+01 0. -1.
        -16    1    6    6    0    0 -0.28082312400E+02 -0.13289524968E+03 -0.28339624228E+02  0.13875481238E+03  0.00000000000E+00 0.  1.
<mgrwt>
<rscale>  2 0.22482577E+03</rscale>
<asrwt>0</asrwt>
<pdfrwt beam="1">  1       21 0.19924633E-01 0.22581588E+03</pdfrwt>
<pdfrwt beam="2">  1       21 0.64009155E-01 0.22581588E+03</pdfrwt>
<totfact> 0.51576969E+04</totfact>
</mgrwt>
</event>
<event>
12    2  0.4097182E-002  0.1916478E+03  0.7546771E-02  0.1157154E+00
         21   -1    0    0  503  502  0.00000000000E+00  0.00000000000E+00  0.25318779504E+03  0.25318779504E+03  0.00000000000E+00 0. -1.
         21   -1    0    0  501  503 -0.00000000000E+00 -0.00000000000E+00 -0.14766716596E+03  0.14766716596E+03  0.00000000000E+00 0. -1.
          6    2    1    2  501    0  0.70836317562E+02 -0.40759723863E+02  0.82063219350E+02  0.20777688673E+03  0.17250427159E+03 0.  0.
         24    2    3    3    0    0  0.73038379628E+02 -0.16535887148E+02 -0.11804888553E+02  0.11069467918E+03  0.80659259494E+02 0.  0.
         -6    2    1    2    0  502 -0.70836317562E+02  0.40759723863E+02  0.23457409725E+02  0.19307807427E+03  0.17334864787E+03 0.  0.
        -24    2    5    5    0    0  0.23581004974E+02  0.33509200424E+02  0.27915208319E+02  0.98161464271E+02  0.84720032482E+02 0.  0.
          5    1    3    3  501    0 -0.22020620654E+01 -0.24223836715E+02  0.93868107903E+02  0.97082207555E+02  0.47000000000E+01 0. -1.
        -15    1    4    4    0    0  0.32269471665E+01  0.15538311778E+02 -0.27949345096E+02  0.32189686877E+02  0.17770000000E+01 0.  1.
         16    1    4    4    0    0  0.69811432461E+02 -0.32074198926E+02  0.16144456543E+02  0.78504992301E+02  0.00000000000E+00 0. -1.
         -5    1    5    5    0  502 -0.94417322536E+02  0.72505234384E+01 -0.44577985941E+01  0.94916609997E+02  0.47000000000E+01 0.  1.
         15    1    6    6    0    0 -0.15721930164E+02  0.48228669012E+02  0.68981490133E+01  0.51224269556E+02  0.17770000000E+01 0. -1.
        -16    1    6    6    0    0  0.39302935137E+02 -0.14719468587E+02  0.21017059306E+02  0.46937194715E+02  0.00000000000E+00 0.  1.
<mgrwt>
<rscale>  2 0.19145670E+03</rscale>
<asrwt>0</asrwt>
<pdfrwt beam="1">  1       21 0.38951968E-01 0.19164784E+03</pdfrwt>
<pdfrwt beam="2">  1       21 0.22718026E-01 0.19164784E+03</pdfrwt>
<totfact> 0.11549764E+05</totfact>
</mgrwt>
</event>
<event>
12    2  0.4097182E-002  0.1867912E+03  0.7546771E-02  0.1161504E+00
         21   -1    0    0  503  502  0.00000000000E+00  0.00000000000E+00  0.88276251769E+03  0.88276251769E+03  0.00000000000E+00 0.  1.
         21   -1    0    0  501  503 -0.00000000000E+00 -0.00000000000E+00 -0.86891447726E+02  0.86891447726E+02  0.00000000000E+00 0. -1.
          6    2    1    2  501    0 -0.60403395074E+02 -0.36946734692E+02  0.39331752038E+02  0.19039619032E+03  0.17230812874E+03 0.  0.
         24    2    3    3    0    0  0.13296807492E+02 -0.48482633949E+02  0.59342534116E+02  0.11301842718E+03  0.82001570972E+02 0.  0.
         -6    2    1    2    0  502  0.60403395074E+02  0.36946734692E+02  0.75653931793E+03  0.77925777510E+03  0.17285053988E+03 0.  0.
        -24    2    5    5    0    0  0.35265170200E+02  0.21896795983E+02  0.18181267699E+03  0.20376560937E+03  0.82106468352E+02 0.  0.
          5    1    3    3  501    0 -0.73700202566E+02  0.11535899257E+02 -0.20010782078E+02  0.77377763145E+02  0.47000000000E+01 0. -1.
        -15    1    4    4    0    0 -0.34962821880E+00 -0.68004136967E+02  0.27790863494E+02  0.73485881006E+02  0.17770000000E+01 0.  1.
         16    1    4    4    0    0  0.13646435711E+02  0.19521503017E+02  0.31551670621E+02  0.39532546170E+02  0.00000000000E+00 0. -1.
         -5    1    5    5    0  502  0.25138224875E+02  0.15049938709E+02  0.57472664094E+03  0.57549216572E+03  0.47000000000E+01 0.  1.
         15    1    6    6    0    0 -0.20114583875E+02  0.21535439172E+02  0.10499281189E+03  0.10906429252E+03  0.17770000000E+01 0. -1.
        -16    1    6    6    0    0  0.55379754075E+02  0.36135681135E+00  0.76819865100E+02  0.94701316856E+02  0.00000000000E+00 0.  1.
<mgrwt>
<rscale>  2 0.18666559E+03</rscale>
<asrwt>0</asrwt>
<pdfrwt beam="1">  1       21 0.13580961E+00 0.18679117E+03</pdfrwt>
<pdfrwt beam="2">  1       21 0.13367916E-01 0.18679117E+03</pdfrwt>
<totfact> 0.18774079E+04</totfact>
</mgrwt>
</event>
<event>
12    2  0.4097182E-002  0.2370798E+03  0.7546771E-02  0.1121820E+00
         21   -1    0    0  501  502  0.00000000000E+00  0.00000000000E+00  0.11306737804E+04  0.11306737804E+04  0.00000000000E+00 0.  1.
         21   -1    0    0  502  503 -0.00000000000E+00 -0.00000000000E+00 -0.49775872673E+02  0.49775872673E+02  0.00000000000E+00 0.  1.
         -6    2    1    2    0  503  0.16091768205E+03  0.15224248915E+02  0.50886409574E+03  0.56138177809E+03  0.17343746621E+03 0.  0.
        -24    2    3    3    0    0  0.17682528096E+03 -0.21576532414E+02  0.44196977259E+03  0.48325182430E+03  0.80388550610E+02 0.  0.
          6    2    1    2  501    0 -0.16091768205E+03 -0.15224248915E+02  0.57203381202E+03  0.61906787501E+03  0.17290481090E+03 0.  0.
         24    2    5    5    0    0 -0.14640808670E+03  0.45159393126E+02  0.41372301255E+03  0.44894700089E+03  0.83138317642E+02 0.  0.
          5    1    5    5  501    0 -0.14509595350E+02 -0.60383642041E+02  0.15831079947E+03  0.17012087412E+03  0.47000000000E+01 0. -1.
        -15    1    6    6    0    0 -0.13051140735E+01  0.24963030437E+02  0.93547166347E+02  0.96845682774E+02  0.17770000000E+01 0.  1.
         16    1    6    6    0    0 -0.14510297262E+03  0.20196362689E+02  0.32017584620E+03  0.35210131812E+03  0.00000000000E+00 0. -1.
         -5    1    3    3    0  503 -0.15907598909E+02  0.36800781328E+02  0.66894323150E+02  0.78129953789E+02  0.47000000000E+01 0.  1.
         15    1    4    4    0    0 -0.21914799531E+01  0.82024730039E+00 -0.23105497207E+01  0.37378816234E+01  0.17770000000E+01 0. -1.
        -16    1    4    4    0    0  0.17901676091E+03 -0.22396779714E+02  0.44428032231E+03  0.47951394268E+03  0.00000000000E+00 0.  1.
<mgrwt>
<rscale>  2 0.23698240E+03</rscale>
<asrwt>0</asrwt>
<pdfrwt beam="1">  1       21 0.17394979E+00 0.23707980E+03</pdfrwt>
<pdfrwt beam="2">  1       21 0.76578274E-02 0.23707980E+03</pdfrwt>
<totfact> 0.25201926E+04</totfact>
</mgrwt>
</event>
<event>
12    2  0.4097182E-002  0.2934137E+03  0.7546771E-02  0.1088960E+00
         21   -1    0    0  503  502  0.00000000000E+00  0.00000000000E+00  0.37868933879E+03  0.37868933879E+03  0.00000000000E+00 0.  1.
         21   -1    0    0  501  503 -0.00000000000E+00 -0.00000000000E+00 -0.30855664841E+03  0.30855664841E+03  0.00000000000E+00 0. -1.
          6    2    1    2  501    0  0.10809284170E+03 -0.20656012198E+03 -0.14380169488E+03  0.32412130173E+03  0.17327591974E+03 0.  0.
         24    2    3    3    0    0  0.73762479768E+02 -0.22529167040E+03 -0.11822322590E+03  0.27715543400E+03  0.81493332741E+02 0.  0.
         -6    2    1    2    0  502 -0.10809284170E+03  0.20656012198E+03  0.21393438526E+03  0.36312468547E+03  0.17815855180E+03 0.  0.
        -24    2    5    5    0    0 -0.12751795954E+03  0.11098181048E+03  0.18037214340E+03  0.25987226219E+03  0.80135449605E+02 0.  0.
          5    1    3    3  501    0  0.34330361929E+02  0.18731548411E+02 -0.25578468977E+02  0.46965867726E+02  0.47000000000E+01 0. -1.
        -15    1    4    4    0    0  0.29255386867E+02 -0.52711730678E+02  0.49383577101E+01  0.60514042318E+02  0.17770000000E+01 0.  1.
         16    1    4    4    0    0  0.44507092902E+02 -0.17257993972E+03 -0.12316158361E+03  0.21664139168E+03  0.00000000000E+00 0. -1.
         -5    1    5    5    0  502  0.19425117839E+02  0.95578311506E+02  0.33562241868E+02  0.10325242328E+03  0.47000000000E+01 0.  1.
         15    1    6    6    0    0 -0.57089841155E+01 -0.11033651666E+02  0.24133552927E+02  0.27201471920E+02  0.17770000000E+01 0. -1.
        -16    1    6    6    0    0 -0.12180897542E+03  0.12201546214E+03  0.15623859047E+03  0.23267079027E+03  0.00000000000E+00 0.  1.
<mgrwt>
<rscale>  2 0.29267626E+03</rscale>
<asrwt>0</asrwt>
<pdfrwt beam="1">  1       21 0.58259898E-01 0.29341373E+03</pdfrwt>
<pdfrwt beam="2">  1       21 0.47470254E-01 0.29341373E+03</pdfrwt>
<totfact> 0.11072083E+04</totfact>
</mgrwt>
</event>
<event>
12    2  0.4097182E-002  0.2867274E+03  0.7546771E-02  0.1092289E+00
         21   -1    0    0  503  502  0.00000000000E+00  0.00000000000E+00  0.45553034921E+03  0.45553034921E+03  0.00000000000E+00 0.  1.
         21   -1    0    0  501  503 -0.00000000000E+00 -0.00000000000E+00 -0.39205317402E+03  0.39205317402E+03  0.00000000000E+00 0. -1.
          6    2    1    2  501    0 -0.21983241559E+03  0.58013877898E+02 -0.28030331433E+03  0.40097699138E+03  0.17470174189E+03 0.  0.
         24    2    3    3    0    0 -0.49443306212E+02 -0.76931756982E+01 -0.49046269999E+02  0.10627073756E+03  0.79900610634E+02 0.  0.
         -6    2    1    2    0  502  0.21983241559E+03 -0.58013877898E+02  0.34378048952E+03  0.44660653185E+03  0.17198973325E+03 0.  0.
        -24    2    5    5    0    0  0.14249373924E+03 -0.88091912544E+02  0.16205698027E+03  0.24677789816E+03  0.81069201224E+02 0.  0.
          5    1    3    3  501    0 -0.17038910938E+03  0.65707053597E+02 -0.23125704433E+03  0.29470625382E+03  0.47000000000E+01 0. -1.
        -15    1    4    4    0    0 -0.38794318379E+02 -0.41692817961E+02 -0.20280166628E+02  0.60479195559E+02  0.17770000000E+01 0.  1.
         16    1    4    4    0    0 -0.10648987834E+02  0.33999642263E+02 -0.28766103370E+02  0.45791542003E+02  0.00000000000E+00 0. -1.
         -5    1    5    5    0  502  0.77338676349E+02  0.30078034646E+02  0.18172350925E+03  0.19982863369E+03  0.47000000000E+01 0.  1.
         15    1    6    6    0    0  0.86190272930E+02 -0.12327829883E+02  0.50595342263E+02  0.10071635878E+03  0.17770000000E+01 0. -1.
        -16    1    6    6    0    0  0.56303466313E+02 -0.75764082661E+02  0.11146163800E+03  0.14606153938E+03  0.00000000000E+00 0.  1.
<mgrwt>
<rscale>  2 0.28631543E+03</rscale>
<asrwt>0</asrwt>
<pdfrwt beam="1">  1       21 0.70081593E-01 0.28672740E+03</pdfrwt>
<pdfrwt beam="2">  1       21 0.60315873E-01 0.28672740E+03</pdfrwt>
<totfact> 0.44490541E+03</totfact>
</mgrwt>
</event>
<event>
12    2  0.4097182E-002  0.2530852E+03  0.7546771E-02  0.1111435E+00
         21   -1    0    0  503  502  0.00000000000E+00  0.00000000000E+00  0.20829142588E+04  0.20829142588E+04  0.00000000000E+00 0.  1.
         21   -1    0    0  501  503 -0.00000000000E+00 -0.00000000000E+00 -0.13351436134E+03  0.13351436134E+03  0.00000000000E+00 0. -1.
          6    2    1    2  501    0 -0.12382797451E+03 -0.13764040406E+03  0.20242571333E+01  0.25267609519E+03  0.17193854531E+03 0.  0.
         24    2    3    3    0    0 -0.13640222806E+03 -0.14198888394E+03 -0.33584096488E+02  0.21437379790E+03  0.77857708079E+02 0.  0.
         -6    2    1    2    0  502  0.12382797451E+03  0.13764040406E+03  0.19473756403E+04  0.19637525250E+04  0.17255099720E+03 0.  0.
        -24    2    5    5    0    0  0.40985556679E+02  0.92480136375E+02  0.62628327238E+03  0.63928680225E+03  0.78895416797E+02 0.  0.
          5    1    3    3  501    0  0.12574253555E+02  0.43484798791E+01  0.35608353621E+02  0.38302297286E+02  0.47000000000E+01 0. -1.
        -15    1    4    4    0    0  0.98811572538E+01 -0.14610691170E+02 -0.38170612476E+01  0.18133870263E+02  0.17770000000E+01 0.  1.
         16    1    4    4    0    0 -0.14628338532E+03 -0.12737819277E+03 -0.29767035241E+02  0.19623992764E+03  0.00000000000E+00 0. -1.
         -5    1    5    5    0  502  0.82842417831E+02  0.45160267682E+02  0.13210923679E+04  0.13244657227E+04  0.47000000000E+01 0.  1.
         15    1    6    6    0    0 -0.23554686114E+02  0.29504682327E+02  0.16517221747E+03  0.16944134286E+03  0.17770000000E+01 0. -1.
        -16    1    6    6    0    0  0.64540242792E+02  0.62975454048E+02  0.46111105490E+03  0.46984545939E+03  0.00000000000E+00 0.  1.
<mgrwt>
<rscale>  2 0.25298080E+03</rscale>
<asrwt>0</asrwt>
<pdfrwt beam="1">  1       21 0.32044832E+00 0.25308515E+03</pdfrwt>
<pdfrwt beam="2">  1       21 0.20540673E-01 0.25308515E+03</pdfrwt>
<totfact> 0.52865412E+02</totfact>
</mgrwt>
</event>
<event>
12    2  0.4097182E-002  0.1939714E+03  0.7546771E-02  0.1155159E+00
         21   -1    0    0  503  502  0.00000000000E+00  0.00000000000E+00  0.20654988651E+04  0.20654988651E+04  0.00000000000E+00 0.  1.
         21   -1    0    0  501  503 -0.00000000000E+00 -0.00000000000E+00 -0.24736494134E+02  0.24736494134E+02  0.00000000000E+00 0.  1.
          6    2    1    2  501    0  0.44170408888E+02 -0.74216257092E+02  0.48178300287E+03  0.51936478901E+03  0.17368317238E+03 0.  0.
         24    2    3    3    0    0 -0.33175410847E+02 -0.78388824913E+02  0.29251159813E+03  0.31480296264E+03  0.79324992856E+02 0.  0.
         -6    2    1    2    0  502 -0.44170408888E+02  0.74216257092E+02  0.15589793681E+04  0.15708705702E+04  0.17250681269E+03 0.  0.
        -24    2    5    5    0    0  0.28217357214E+02  0.85402632937E+02  0.95345451070E+03  0.96091354993E+03  0.78673486690E+02 0.  0.
          5    1    3    3  501    0  0.77345819735E+02  0.41725678219E+01  0.18927140475E+03  0.20456182637E+03  0.47000000000E+01 0. -1.
        -15    1    4    4    0    0  0.12579110369E+02 -0.64139087682E+02  0.20300191237E+03  0.21327210493E+03  0.17770000000E+01 0.  1.
         16    1    4    4    0    0 -0.45754521217E+02 -0.14249737232E+02  0.89509685756E+02  0.10153085771E+03  0.00000000000E+00 0. -1.
         -5    1    5    5    0  502 -0.72387766102E+02 -0.11186375846E+02  0.60552485737E+03  0.60995702027E+03  0.47000000000E+01 0.  1.
         15    1    6    6    0    0  0.33591911921E+02  0.55504611190E+01  0.17022683639E+03  0.17360748175E+03  0.17770000000E+01 0. -1.
        -16    1    6    6    0    0 -0.53745547066E+01  0.79852171818E+02  0.78322767431E+03  0.78730606818E+03  0.00000000000E+00 0.  1.
<mgrwt>
<rscale>  2 0.19370776E+03</rscale>
<asrwt>0</asrwt>
<pdfrwt beam="1">  1       21 0.31776892E+00 0.19397145E+03</pdfrwt>
<pdfrwt beam="2">  1       21 0.38056161E-02 0.19397145E+03</pdfrwt>
<totfact> 0.11467134E+04</totfact>
</mgrwt>
</event>
<event>
12    2  0.4097182E-002  0.1769471E+03  0.7546771E-02  0.1171538E+00
         21   -1    0    0  501  502  0.00000000000E+00  0.00000000000E+00  0.38612666838E+03  0.38612666838E+03  0.00000000000E+00 0.  1.
         21   -1    0    0  502  503 -0.00000000000E+00 -0.00000000000E+00 -0.13405956058E+03  0.13405956058E+03  0.00000000000E+00 0.  1.
         -6    2    1    2    0  503  0.20713591113E+02  0.20288137361E+02 -0.38912250787E+02  0.18117517197E+03  0.17455548775E+03 0.  0.
        -24    2    3    3    0    0  0.58683227141E+02 -0.83539495646E+01 -0.72254274226E+02  0.12290131050E+03  0.79815677400E+02 0.  0.
          6    2    1    2  501    0 -0.20713591113E+02 -0.20288137361E+02  0.29097935859E+03  0.33901105699E+03  0.17151923585E+03 0.  0.
         24    2    5    5    0    0 -0.66361420266E+02 -0.23127598995E+02  0.27289202010E+03  0.28960428962E+03  0.66797200512E+02 0.  0.
          5    1    5    5  501    0  0.45647829153E+02  0.28394616340E+01  0.18087338486E+02  0.49406767373E+02  0.47000000000E+01 0. -1.
        -15    1    6    6    0    0 -0.93890468503E+01 -0.34527584711E+02  0.71123350000E+02  0.79636655825E+02  0.17770000000E+01 0.  1.
         16    1    6    6    0    0 -0.56972373416E+02  0.11399985716E+02  0.20176867010E+03  0.20996763380E+03  0.00000000000E+00 0. -1.
         -5    1    3    3    0  503 -0.37969636028E+02  0.28642086926E+02  0.33342023439E+02  0.58273861469E+02  0.47000000000E+01 0.  1.
         15    1    4    4    0    0  0.68446375171E+02 -0.30652754076E+02 -0.56342771385E+02  0.93819844504E+02  0.17770000000E+01 0. -1.
        -16    1    4    4    0    0 -0.97631480302E+01  0.22298804511E+02 -0.15911502842E+02  0.29081466001E+02  0.00000000000E+00 0.  1.
<mgrwt>
<rscale>  2 0.17619369E+03</rscale>
<asrwt>0</asrwt>
<pdfrwt beam="1">  1       21 0.59404102E-01 0.17694711E+03</pdfrwt>
<pdfrwt beam="2">  1       21 0.20624548E-01 0.17694711E+03</pdfrwt>
<totfact> 0.58107283E+04</totfact>
</mgrwt>
</event>
<event>
12    2  0.4097182E-002  0.1846144E+03  0.7546771E-02  0.1163640E+00
         21   -1    0    0  503  502  0.00000000000E+00  0.00000000000E+00  0.48872735440E+03  0.48872735440E+03  0.00000000000E+00 0.  1.
         21   -1    0    0  501  503 -0.00000000000E+00 -0.00000000000E+00 -0.71453379744E+02  0.71453379744E+02  0.00000000000E+00 0. -1.
          6    2    1    2  501    0  0.63172489906E+02 -0.11454256030E+02  0.25701142346E+03  0.31644485185E+03  0.17309104254E+03 0.  0.
         24    2    3    3    0    0  0.10357639619E+03  0.19666639420E+02  0.18498019304E+03  0.22806174298E+03  0.81729066073E+02 0.  0.
         -6    2    1    2    0  502 -0.63172489906E+02  0.11454256030E+02  0.16026255120E+03  0.24373588230E+03  0.17204979379E+03 0.  0.
        -24    2    5    5    0    0 -0.10072888839E+03 -0.23764073854E+02  0.11111481503E+03  0.17240283388E+03  0.81640644584E+02 0.  0.
          5    1    3    3  501    0 -0.40403906283E+02 -0.31120895450E+02  0.72031230421E+02  0.88383108864E+02  0.47000000000E+01 0. -1.
        -15    1    4    4    0    0  0.10022482228E+03 -0.16450521768E+01  0.17982108254E+03  0.20587982089E+03  0.17770000000E+01 0.  1.
         16    1    4    4    0    0  0.33515739131E+01  0.21311691597E+02  0.51591105031E+01  0.22181922090E+02  0.00000000000E+00 0. -1.
         -5    1    5    5    0  502  0.37556398482E+02  0.35218329884E+02  0.49147736170E+02  0.71333048423E+02  0.47000000000E+01 0.  1.
         15    1    6    6    0    0 -0.48936556075E+02 -0.48502450657E+02  0.84755049795E+02  0.10924216418E+03  0.17770000000E+01 0. -1.
        -16    1    6    6    0    0 -0.51792332313E+02  0.24738376803E+02  0.26359765231E+02  0.63160669694E+02  0.00000000000E+00 0.  1.
<mgrwt>
<rscale>  2 0.18436993E+03</rscale>
<asrwt>0</asrwt>
<pdfrwt beam="1">  1       21 0.75188822E-01 0.18461439E+03</pdfrwt>
<pdfrwt beam="2">  1       21 0.10992828E-01 0.18461439E+03</pdfrwt>
<totfact> 0.10880871E+05</totfact>
</mgrwt>
</event>
<event>
12    2  0.4097182E-002  0.2231464E+03  0.7546771E-02  0.1131749E+00
         21   -1    0    0  503  502  0.00000000000E+00  0.00000000000E+00  0.81860809130E+03  0.81860809130E+03  0.00000000000E+00 0. -1.
         21   -1    0    0  501  503 -0.00000000000E+00 -0.00000000000E+00 -0.57121054976E+03  0.57121054976E+03  0.00000000000E+00 0. -1.
          6    2    1    2  501    0 -0.37419032823E+02 -0.13759798465E+03 -0.53338062787E+03  0.57777870826E+03  0.17029372311E+03 0.  0.
         24    2    3    3    0    0 -0.41619594291E+02 -0.18629286416E+02 -0.13688216587E+03  0.16376866460E+03  0.77486819728E+02 0.  0.
         -6    2    1    2    0  502  0.37419032823E+02  0.13759798465E+03  0.78077816941E+03  0.81203993280E+03  0.17164181669E+03 0.  0.
        -24    2    5    5    0    0  0.82611749000E+02  0.72275961061E+02  0.38265123063E+03  0.40603931982E+03  0.79984056624E+02 0.  0.
          5    1    3    3  501    0  0.42005614680E+01 -0.11896869823E+03 -0.39649846200E+03  0.41401004365E+03  0.47000000000E+01 0. -1.
        -15    1    4    4    0    0 -0.64664511134E+02 -0.16080240013E+02 -0.10423398984E+03  0.12372532274E+03  0.17770000000E+01 0.  1.
         16    1    4    4    0    0  0.23044916843E+02 -0.25490464035E+01 -0.32648176028E+02  0.40043341866E+02  0.00000000000E+00 0. -1.
         -5    1    5    5    0  502 -0.45192716176E+02  0.65322023584E+02  0.39812693878E+03  0.40600061298E+03  0.47000000000E+01 0.  1.
         15    1    6    6    0    0  0.35744125301E+01  0.33422963282E+02  0.20511594297E+03  0.20785951672E+03  0.17770000000E+01 0. -1.
        -16    1    6    6    0    0  0.79037336470E+02  0.38852997779E+02  0.17753528766E+03  0.19817980310E+03  0.00000000000E+00 0.  1.
<mgrwt>
<rscale>  2 0.22288710E+03</rscale>
<asrwt>0</asrwt>
<pdfrwt beam="1">  1       21 0.12593971E+00 0.22314637E+03</pdfrwt>
<pdfrwt beam="2">  1       21 0.87878546E-01 0.22314637E+03</pdfrwt>
<totfact> 0.50316096E+02</totfact>
</mgrwt>
</event>
<event>
12    2  0.4097182E-002  0.2073659E+03  0.7546771E-02  0.1143700E+00
         21   -1    0    0  501  502  0.00000000000E+00  0.00000000000E+00  0.28501999916E+03  0.28501999916E+03  0.00000000000E+00 0.  1.
         21   -1    0    0  502  503 -0.00000000000E+00 -0.00000000000E+00 -0.55587671351E+03  0.55587671351E+03  0.00000000000E+00 0.  1.
         -6    2    1    2    0  503 -0.12672725310E+01  0.11340529991E+03 -0.49434968743E+03  0.53602013067E+03  0.17341741258E+03 0.  0.
        -24    2    3    3    0    0  0.29387562423E+01  0.47600494692E+01 -0.32227118821E+03  0.33241614982E+03  0.81304880240E+02 0.  0.
          6    2    1    2  501    0  0.12672725310E+01 -0.11340529991E+03  0.22349297309E+03  0.30487658200E+03  0.17360372463E+03 0.  0.
         24    2    5    5    0    0  0.59049904573E+02 -0.98367550001E+02  0.19107063988E+03  0.23677177910E+03  0.79936348608E+02 0.  0.
          5    1    5    5  501    0 -0.57782632042E+02 -0.15037749909E+02  0.32422333207E+02  0.68104802904E+02  0.47000000000E+01 0. -1.
        -15    1    6    6    0    0  0.20823783083E+02 -0.92600000552E+02  0.16428701130E+03  0.18974132353E+03  0.17770000000E+01 0.  1.
         16    1    6    6    0    0  0.38226121490E+02 -0.57675494497E+01  0.26783628581E+02  0.47030455567E+02  0.00000000000E+00 0. -1.
         -5    1    3    3    0  503 -0.42060287733E+01  0.10864525044E+03 -0.17207849922E+03  0.20360398085E+03  0.47000000000E+01 0.  1.
         15    1    4    4    0    0  0.17226260316E+02  0.14382416341E+02 -0.21424625261E+02  0.31076844126E+02  0.17770000000E+01 0. -1.
        -16    1    4    4    0    0 -0.14287504074E+02 -0.96223668721E+01 -0.30084656295E+03  0.30133930569E+03  0.00000000000E+00 0.  1.
<mgrwt>
<rscale>  2 0.20732691E+03</rscale>
<asrwt>0</asrwt>
<pdfrwt beam="1">  1       21 0.43849231E-01 0.20736591E+03</pdfrwt>
<pdfrwt beam="2">  1       21 0.85519493E-01 0.20736591E+03</pdfrwt>
<totfact> 0.58394387E+03</totfact>
</mgrwt>
</event>
<event>
12    2  0.4097182E-002  0.1761236E+03  0.7546771E-02  0.1172478E+00
         21   -1    0    0  501  502  0.00000000000E+00  0.00000000000E+00  0.13536947131E+03  0.13536947131E+03  0.00000000000E+00 0. -1.
         21   -1    0    0  502  503 -0.00000000000E+00 -0.00000000000E+00 -0.26119549900E+03  0.26119549900E+03  0.00000000000E+00 0.  1.
         -6    2    1    2    0  503  0.28527498102E+02 -0.13218972222E+02 -0.13758997487E+03  0.22349609913E+03  0.17329439046E+03 0.  0.
        -24    2    3    3    0    0 -0.36855468849E+01 -0.13305095781E+02  0.18128270863E+01  0.80342618984E+02  0.79126741709E+02 0.  0.
          6    2    1    2  501    0 -0.28527498102E+02  0.13218972222E+02  0.11763947178E+02  0.17306887119E+03  0.16978187285E+03 0.  0.
         24    2    5    5    0    0 -0.52048275216E+01 -0.49560779407E+02  0.36301029784E+02  0.10158878585E+03  0.80741287841E+02 0.  0.
          5    1    5    5  501    0 -0.23322670580E+02  0.62779751629E+02 -0.24537082606E+02  0.71480085341E+02  0.47000000000E+01 0. -1.
        -15    1    6    6    0    0  0.36006296822E+02 -0.92249319341E+01  0.14702138923E+02  0.40010791019E+02  0.17770000000E+01 0.  1.
         16    1    6    6    0    0 -0.41211124344E+02 -0.40335847472E+02  0.21598890861E+02  0.61577994831E+02  0.00000000000E+00 0. -1.
         -5    1    3    3    0  503  0.32213044987E+02  0.86123559199E-01 -0.13940280195E+03  0.14315348014E+03  0.47000000000E+01 0.  1.
         15    1    4    4    0    0 -0.36460235072E+02 -0.26243956869E+02 -0.12305411512E+01  0.44975170641E+02  0.17770000000E+01 0. -1.
        -16    1    4    4    0    0  0.32774688188E+02  0.12938861088E+02  0.30433682375E+01  0.35367448343E+02  0.00000000000E+00 0.  1.
<mgrwt>
<rscale>  2 0.17525338E+03</rscale>
<asrwt>0</asrwt>
<pdfrwt beam="1">  1       21 0.20826072E-01 0.17612355E+03</pdfrwt>
<pdfrwt beam="2">  1       21 0.40183923E-01 0.17612355E+03</pdfrwt>
<totfact> 0.12844017E+05</totfact>
</mgrwt>
</event>
<event>
12    2  0.4097182E-002  0.2284314E+03  0.7546771E-02  0.1127828E+00
         21   -1    0    0  503  502  0.00000000000E+00  0.00000000000E+00  0.99940655647E+03  0.99940655647E+03  0.00000000000E+00 0.  1.
         21   -1    0    0  501  503 -0.00000000000E+00 -0.00000000000E+00 -0.11199476016E+03  0.11199476016E+03  0.00000000000E+00 0. -1.
          6    2    1    2  501    0  0.14962689085E+03  0.49747692885E+01  0.37557687988E+02  0.23149837386E+03  0.17253394558E+03 0.  0.
         24    2    3    3    0    0  0.27537169896E+02  0.31535830789E+02  0.52868283731E+02  0.10553054347E+03  0.81171644252E+02 0.  0.
         -6    2    1    2    0  502 -0.14962689085E+03 -0.49747692885E+01  0.84985410832E+03  0.87990294277E+03  0.17194251500E+03 0.  0.
        -24    2    5    5    0    0 -0.10904493304E+03  0.38479001467E+02  0.36346189471E+03  0.38986763694E+03  0.80751436231E+02 0.  0.
          5    1    3    3  501    0  0.12208972096E+03 -0.26561061501E+02 -0.15310595743E+02  0.12596783039E+03  0.47000000000E+01 0. -1.
        -15    1    4    4    0    0  0.54375571482E+02  0.98385132437E+01  0.41722549121E+02  0.69263467651E+02  0.17770000000E+01 0.  1.
         16    1    4    4    0    0 -0.26838401586E+02  0.21697317546E+02  0.11145734609E+02  0.36267075818E+02  0.00000000000E+00 0. -1.
         -5    1    5    5    0  502 -0.40581957810E+02 -0.43453770756E+02  0.48639221361E+03  0.49003530583E+03  0.47000000000E+01 0.  1.
         15    1    6    6    0    0 -0.36706200225E+01  0.27288264198E+02  0.13818309306E+03  0.14091077940E+03  0.17770000000E+01 0. -1.
        -16    1    6    6    0    0 -0.10537431302E+03  0.11190737269E+02  0.22527880164E+03  0.24895685754E+03  0.00000000000E+00 0.  1.
<mgrwt>
<rscale>  2 0.22831975E+03</rscale>
<asrwt>0</asrwt>
<pdfrwt beam="1">  1       21 0.15375485E+00 0.22843143E+03</pdfrwt>
<pdfrwt beam="2">  1       21 0.17229964E-01 0.22843143E+03</pdfrwt>
<totfact> 0.82979649E+03</totfact>
</mgrwt>
</event>
<event>
12    2  0.4097182E-002  0.2219014E+03  0.7546771E-02  0.1132483E+00
         21   -1    0    0  503  502  0.00000000000E+00  0.00000000000E+00  0.11306285606E+03  0.11306285606E+03  0.00000000000E+00 0.  1.
         21   -1    0    0  501  503 -0.00000000000E+00 -0.00000000000E+00 -0.45100697193E+03  0.45100697193E+03  0.00000000000E+00 0.  1.
          6    2    1    2  501    0  0.13116020411E+03 -0.39647970557E+02 -0.22143196081E+03  0.31348423290E+03  0.17454309009E+03 0.  0.
         24    2    3    3    0    0  0.30298492004E+02 -0.74212585413E+02 -0.94071412218E+02  0.14731986576E+03  0.80176092446E+02 0.  0.
         -6    2    1    2    0  502 -0.13116020411E+03  0.39647970557E+02 -0.11651215507E+03  0.25058559509E+03  0.17447950446E+03 0.  0.
        -24    2    5    5    0    0  0.98795746549E+00  0.24432577111E+02 -0.71307911650E+02  0.11001476444E+03  0.80128042830E+02 0.  0.
          5    1    3    3  501    0  0.10086171210E+03  0.34564614856E+02 -0.12736054859E+03  0.16616436714E+03  0.47000000000E+01 0. -1.
        -15    1    4    4    0    0  0.47767940902E+02 -0.17992100882E+02 -0.61830325481E+02  0.80197498403E+02  0.17770000000E+01 0.  1.
         16    1    4    4    0    0 -0.17469448898E+02 -0.56220484531E+02 -0.32241086737E+02  0.67122367358E+02  0.00000000000E+00 0. -1.
         -5    1    5    5    0  502 -0.13214816157E+03  0.15215393446E+02 -0.45204243417E+02  0.14057083064E+03  0.47000000000E+01 0.  1.
         15    1    6    6    0    0 -0.79190246651E+01 -0.28053105470E+02 -0.34964111749E+02  0.45555839555E+02  0.17770000000E+01 0. -1.
        -16    1    6    6    0    0  0.89069821306E+01  0.52485682581E+02 -0.36343799901E+02  0.64458924890E+02  0.00000000000E+00 0.  1.
<mgrwt>
<rscale>  2 0.22188894E+03</rscale>
<asrwt>0</asrwt>
<pdfrwt beam="1">  1       21 0.17394286E-01 0.22190144E+03</pdfrwt>
<pdfrwt beam="2">  1       21 0.69385687E-01 0.22190144E+03</pdfrwt>
<totfact> 0.55736767E+04</totfact>
</mgrwt>
</event>
<event>
12    2  0.4097182E-002  0.2217386E+03  0.7546771E-02  0.1132690E+00
         21   -1    0    0  501  502  0.00000000000E+00  0.00000000000E+00  0.55922137034E+02  0.55922137034E+02  0.00000000000E+00 0. -1.
         21   -1    0    0  502  503 -0.00000000000E+00 -0.00000000000E+00 -0.87924131273E+03  0.87924131273E+03  0.00000000000E+00 0. -1.
         -6    2    1    2    0  503  0.13336487734E+03  0.34786770771E+02 -0.43489246708E+03  0.48815925112E+03  0.17369999022E+03 0.  0.
        -24    2    3    3    0    0  0.10255017768E+03  0.15474646204E+01 -0.42115347455E+03  0.44056463898E+03  0.78790979213E+02 0.  0.
          6    2    1    2  501    0 -0.13336487734E+03 -0.34786770771E+02 -0.38842670861E+03  0.44700419864E+03  0.17303507075E+03 0.  0.
         24    2    5    5    0    0 -0.73396394605E+02  0.41235831031E+02 -0.15897490561E+03  0.19791410488E+03  0.82519984225E+02 0.  0.
          5    1    5    5  501    0 -0.59968482739E+02 -0.76022601802E+02 -0.22945180300E+03  0.24909009376E+03  0.47000000000E+01 0. -1.
        -15    1    6    6    0    0 -0.65427262396E+02  0.29935244466E+02 -0.16705442692E+03  0.18189883125E+03  0.17770000000E+01 0.  1.
         16    1    6    6    0    0 -0.79691322089E+01  0.11300586564E+02  0.80795213156E+01  0.16015273633E+02  0.00000000000E+00 0. -1.
         -5    1    3    3    0  503  0.30814699667E+02  0.33239306150E+02 -0.13738992528E+02  0.47594612138E+02  0.47000000000E+01 0.  1.
         15    1    4    4    0    0 -0.44340346509E+00  0.20562875596E+02 -0.36780576315E+02  0.42178157647E+02  0.17770000000E+01 0. -1.
        -16    1    4    4    0    0  0.10299358114E+03 -0.19015410976E+02 -0.38437289824E+03  0.39838648134E+03  0.00000000000E+00 0.  1.
<mgrwt>
<rscale>  2 0.22160834E+03</rscale>
<asrwt>0</asrwt>
<pdfrwt beam="1">  1       21 0.86034059E-02 0.22173858E+03</pdfrwt>
<pdfrwt beam="2">  1       21 0.13526789E+00 0.22173858E+03</pdfrwt>
<totfact> 0.40655433E+04</totfact>
</mgrwt>
</event>
<event>
12    2  0.4097182E-002  0.2069009E+03  0.7546771E-02  0.1146712E+00
         21   -1    0    0  503  502  0.00000000000E+00  0.00000000000E+00  0.92618959163E+03  0.92618959163E+03  0.00000000000E+00 0. -1.
         21   -1    0    0  501  503 -0.00000000000E+00 -0.00000000000E+00 -0.11267394631E+03  0.11267394631E+03  0.00000000000E+00 0. -1.
          6    2    1    2  501    0 -0.12255743040E+02 -0.88543188935E+02  0.45700585445E+01  0.20695138665E+03  0.18659552904E+03 0.  0.
         24    2    3    3    0    0  0.55210382877E+02 -0.51293935986E+02  0.46073044461E+02  0.11929425441E+03  0.80181914818E+02 0.  0.
         -6    2    1    2    0  502  0.12255743040E+02  0.88543188935E+02  0.80894558678E+03  0.83191215129E+03  0.17232169204E+03 0.  0.
        -24    2    5    5    0    0 -0.17798224547E+02  0.19237276773E+02  0.65134304379E+03  0.65707736646E+03  0.82559404136E+02 0.  0.
          5    1    3    3  501    0 -0.67466125917E+02 -0.37249252949E+02 -0.41502985916E+02  0.87657132234E+02  0.47000000000E+01 0. -1.
        -15    1    4    4    0    0  0.87480126685E+01 -0.37869688444E+02  0.57663422449E+02  0.69561979889E+02  0.17770000000E+01 0.  1.
         16    1    4    4    0    0  0.46462370209E+02 -0.13424247542E+02 -0.11590377989E+02  0.49732274525E+02  0.00000000000E+00 0. -1.
         -5    1    5    5    0  502  0.30053967586E+02  0.69305912162E+02  0.15760254299E+03  0.17483478483E+03  0.47000000000E+01 0.  1.
         15    1    6    6    0    0 -0.12214707798E+02 -0.30463625272E+02  0.35755790158E+03  0.35906551250E+03  0.17770000000E+01 0. -1.
        -16    1    6    6    0    0 -0.55835167488E+01  0.49700902045E+02  0.29378514221E+03  0.29801185397E+03  0.00000000000E+00 0.  1.
<mgrwt>
<rscale>  2 0.20363043E+03</rscale>
<asrwt>0</asrwt>
<pdfrwt beam="1">  1       21 0.14249070E+00 0.20690092E+03</pdfrwt>
<pdfrwt beam="2">  1       21 0.17334454E-01 0.20690092E+03</pdfrwt>
<totfact> 0.10181230E+04</totfact>
</mgrwt>
</event>
<event>
12    2  0.4097182E-002  0.2037542E+03  0.7546771E-02  0.1146627E+00
         21   -1    0    0  503  502  0.00000000000E+00  0.00000000000E+00  0.24101578348E+03  0.24101578348E+03  0.00000000000E+00 0. -1.
         21   -1    0    0  501  503 -0.00000000000E+00 -0.00000000000E+00 -0.59526016163E+03  0.59526016163E+03  0.00000000000E+00 0. -1.
          6    2    1    2  501    0 -0.10560850314E+03 -0.21440379968E+02 -0.52962577960E+03  0.56743694333E+03  0.17282468689E+03 0.  0.
         24    2    3    3    0    0 -0.82308145372E+02  0.29198005430E+02 -0.47309826872E+03  0.48790957549E+03  0.81281164313E+02 0.  0.
         -6    2    1    2    0  502  0.10560850314E+03  0.21440379968E+02  0.17538140145E+03  0.26883900179E+03  0.17292462831E+03 0.  0.
        -24    2    5    5    0    0  0.12399974406E+03  0.60306344559E+02  0.13290636382E+03  0.20821706048E+03  0.81715671757E+02 0.  0.
          5    1    3    3  501    0 -0.23300357771E+02 -0.50638385398E+02 -0.56527510880E+02  0.79527367832E+02  0.47000000000E+01 0. -1.
        -15    1    4    4    0    0  0.12302821592E+02 -0.62911066350E+01 -0.25609624367E+02  0.29153868200E+02  0.17770000000E+01 0.  1.
         16    1    4    4    0    0 -0.94610966964E+02  0.35489112065E+02 -0.44748864436E+03  0.45875570729E+03  0.00000000000E+00 0. -1.
         -5    1    5    5    0  502 -0.18391240913E+02 -0.38865964591E+02  0.42475037636E+02  0.60621941309E+02  0.47000000000E+01 0.  1.
         15    1    6    6    0    0  0.96197889940E+02  0.49126314039E+02  0.14057047576E+03  0.17728690066E+03  0.17770000000E+01 0. -1.
        -16    1    6    6    0    0  0.27801854117E+02  0.11180030520E+02 -0.76641119421E+01  0.30930159822E+02  0.00000000000E+00 0.  1.
<mgrwt>
<rscale>  2 0.20373299E+03</rscale>
<asrwt>0</asrwt>
<pdfrwt beam="1">  1       21 0.37079352E-01 0.20375420E+03</pdfrwt>
<pdfrwt beam="2">  1       21 0.91578485E-01 0.20375420E+03</pdfrwt>
<totfact> 0.70203306E+03</totfact>
</mgrwt>
</event>
<event>
12    2  0.4097182E-002  0.2389714E+03  0.7546771E-02  0.1120613E+00
         21   -1    0    0  503  502  0.00000000000E+00  0.00000000000E+00  0.59899539540E+02  0.59899539540E+02  0.00000000000E+00 0.  1.
         21   -1    0    0  501  503 -0.00000000000E+00 -0.00000000000E+00 -0.10314856238E+04  0.10314856238E+04  0.00000000000E+00 0. -1.
          6    2    1    2  501    0  0.18393902022E+02 -0.16382520732E+03 -0.63970959658E+03  0.68288776586E+03  0.17300375318E+03 0.  0.
         24    2    3    3    0    0  0.52607312556E+02 -0.12290379988E+03 -0.28719110556E+03  0.32632571577E+03  0.78338166328E+02 0.  0.
         -6    2    1    2    0  502 -0.18393902022E+02  0.16382520732E+03 -0.33187648765E+03  0.40849739746E+03  0.17190429456E+03 0.  0.
        -24    2    5    5    0    0  0.68935666355E+01  0.13193797470E+03 -0.33347808251E+03  0.36749853428E+03  0.79952428098E+02 0.  0.
          5    1    3    3  501    0 -0.34213410534E+02 -0.40921407440E+02 -0.35251849103E+03  0.35656205009E+03  0.47000000000E+01 0. -1.
        -15    1    4    4    0    0  0.56732552551E+02 -0.13048642713E+03 -0.28293180617E+03  0.31669994452E+03  0.17770000000E+01 0.  1.
         16    1    4    4    0    0 -0.41252399952E+01  0.75826272497E+01 -0.42592993871E+01  0.96257712572E+01  0.00000000000E+00 0. -1.
         -5    1    5    5    0  502 -0.25287468657E+02  0.31887232625E+02  0.16015948549E+01  0.40998863175E+02  0.47000000000E+01 0.  1.
         15    1    6    6    0    0 -0.23756294197E+02  0.11529026840E+02 -0.32702474941E+02  0.42070055504E+02  0.17770000000E+01 0. -1.
        -16    1    6    6    0    0  0.30649860832E+02  0.12040894786E+03 -0.30077560757E+03  0.32542847878E+03  0.00000000000E+00 0.  1.
<mgrwt>
<rscale>  2 0.23877247E+03</rscale>
<asrwt>0</asrwt>
<pdfrwt beam="1">  1       21 0.92153140E-02 0.23897141E+03</pdfrwt>
<pdfrwt beam="2">  1       21 0.15869009E+00 0.23897141E+03</pdfrwt>
<totfact> 0.23429944E+04</totfact>
</mgrwt>
</event>
<event>
12    2  0.4097182E-002  0.2155483E+03  0.7546771E-02  0.1137697E+00
         21   -1    0    0  503  502  0.00000000000E+00  0.00000000000E+00  0.25482180789E+03  0.25482180789E+03  0.00000000000E+00 0. -1.
         21   -1    0    0  501  503 -0.00000000000E+00 -0.00000000000E+00 -0.26641702141E+03  0.26641702141E+03  0.00000000000E+00 0. -1.
          6    2    1    2  501    0 -0.12150630619E+03 -0.41812036119E+02 -0.15394516464E+03  0.26487766611E+03  0.17305789633E+03 0.  0.
         24    2    3    3    0    0 -0.26783712621E+02 -0.22383620807E+02 -0.14348353606E+03  0.16750534599E+03  0.79070361528E+02 0.  0.
         -6    2    1    2    0  502  0.12150630619E+03  0.41812036119E+02  0.14234995113E+03  0.25636116319E+03  0.17013379617E+03 0.  0.
        -24    2    5    5    0    0  0.43661504060E+01  0.22404358997E+02  0.99460261099E+02  0.13002791523E+03  0.80584717105E+02 0.  0.
          5    1    3    3  501    0 -0.94722593568E+02 -0.19428415312E+02 -0.10461628580E+02  0.97372320124E+02  0.47000000000E+01 0. -1.
        -15    1    4    4    0    0  0.24698137726E+02 -0.22556453698E+02 -0.72028695467E+02  0.79436026526E+02  0.17770000000E+01 0.  1.
         16    1    4    4    0    0 -0.51481850347E+02  0.17283289046E+00 -0.71454840594E+02  0.88069319463E+02  0.00000000000E+00 0. -1.
         -5    1    5    5    0  502  0.11714015578E+03  0.19407677123E+02  0.42889690028E+02  0.12633324796E+03  0.47000000000E+01 0.  1.
         15    1    6    6    0    0  0.11025538850E+02  0.43313585108E+02  0.22637055497E+02  0.50132057333E+02  0.17770000000E+01 0. -1.
        -16    1    6    6    0    0 -0.66593884441E+01 -0.20909226111E+02  0.76823205602E+02  0.79895857902E+02  0.00000000000E+00 0.  1.
<mgrwt>
<rscale>  2 0.21496075E+03</rscale>
<asrwt>0</asrwt>
<pdfrwt beam="1">  1       21 0.39203355E-01 0.21554829E+03</pdfrwt>
<pdfrwt beam="2">  1       21 0.40987234E-01 0.21554829E+03</pdfrwt>
<totfact> 0.35542227E+04</totfact>
</mgrwt>
</event>
<event>
12    2  0.4097182E-002  0.1941918E+03  0.7546771E-02  0.1155232E+00
         21   -1    0    0  501  502  0.00000000000E+00  0.00000000000E+00  0.44836305641E+03  0.44836305641E+03  0.00000000000E+00 0.  1.
         21   -1    0    0  502  503 -0.00000000000E+00 -0.00000000000E+00 -0.99849165354E+02  0.99849165354E+02  0.00000000000E+00 0.  1.
         -6    2    1    2    0  503 -0.80253001694E+02  0.21855877953E+02  0.62948624884E+02  0.20413963661E+03  0.17547717281E+03 0.  0.
        -24    2    3    3    0    0 -0.10493865704E+03  0.43143843727E+02  0.87216061958E+02  0.16323049865E+03  0.78511408286E+02 0.  0.
          6    2    1    2  501    0  0.80253001694E+02 -0.21855877953E+02  0.28556526617E+03  0.34407258515E+03  0.17297456150E+03 0.  0.
         24    2    5    5    0    0  0.55398201558E+02 -0.81213814319E+02  0.18719506743E+03  0.22642943108E+03  0.81016354010E+02 0.  0.
          5    1    5    5  501    0  0.24854800136E+02  0.59357936366E+02  0.98370198744E+02  0.11764315407E+03  0.47000000000E+01 0. -1.
        -15    1    6    6    0    0  0.72698376748E+02 -0.82567396544E+02  0.16061935526E+03  0.19468991748E+03  0.17770000000E+01 0.  1.
         16    1    6    6    0    0 -0.17300175190E+02  0.13535822247E+01  0.26575712161E+02  0.31739513596E+02  0.00000000000E+00 0. -1.
         -5    1    3    3    0  503  0.24685655351E+02 -0.21287965774E+02 -0.24267437073E+02  0.40909137965E+02  0.47000000000E+01 0.  1.
         15    1    4    4    0    0 -0.89062744103E+02 -0.68903543494E+00  0.42767010391E+02  0.98817114225E+02  0.17770000000E+01 0. -1.
        -16    1    4    4    0    0 -0.15875912941E+02  0.43832879162E+02  0.44449051567E+02  0.64413384421E+02  0.00000000000E+00 0.  1.
<mgrwt>
<rscale>  2 0.19362473E+03</rscale>
<asrwt>0</asrwt>
<pdfrwt beam="1">  1       21 0.68978930E-01 0.19419182E+03</pdfrwt>
<pdfrwt beam="2">  1       21 0.15361410E-01 0.19419182E+03</pdfrwt>
<totfact> 0.71842859E+04</totfact>
</mgrwt>
</event>
<event>
12    2  0.4097182E-002  0.1767838E+03  0.7546771E-02  0.1171192E+00
         21   -1    0    0  503  502  0.00000000000E+00  0.00000000000E+00  0.12125926077E+02  0.12125926077E+02  0.00000000000E+00 0. -1.
         21   -1    0    0  501  503 -0.00000000000E+00 -0.00000000000E+00 -0.28838391961E+04  0.28838391961E+04  0.00000000000E+00 0. -1.
          6    2    1    2  501    0 -0.25775331495E+02  0.20528392356E+02 -0.94961877775E+03  0.96575794048E+03  0.17270435416E+03 0.  0.
         24    2    3    3    0    0 -0.19375498562E+02  0.45962649452E+01 -0.94309141372E+03  0.94679779738E+03  0.81290337043E+02 0.  0.
         -6    2    1    2    0  502  0.25775331495E+02 -0.20528392356E+02 -0.19220944922E+04  0.19302071816E+04  0.17368576345E+03 0.  0.
        -24    2    5    5    0    0 -0.25355692661E+02 -0.43710888121E+02 -0.16356446105E+04  0.16382698006E+04  0.77724479022E+02 0.  0.
          5    1    3    3  501    0 -0.63998329329E+01  0.15932127411E+02 -0.65273640343E+01  0.18960143107E+02  0.47000000000E+01 0. -1.
        -15    1    4    4    0    0 -0.25563621572E+02 -0.14869851904E+02 -0.12543974610E+03  0.12889103488E+03  0.17770000000E+01 0.  1.
         16    1    4    4    0    0  0.61881230102E+01  0.19466116849E+02 -0.81765166762E+03  0.81790676249E+03  0.00000000000E+00 0. -1.
         -5    1    5    5    0  502  0.51131024156E+02  0.23182495765E+02 -0.28644988170E+03  0.29193738107E+03  0.47000000000E+01 0.  1.
         15    1    6    6    0    0  0.13187780605E+02 -0.37504470717E+02 -0.12544949905E+04  0.12551260262E+04  0.17770000000E+01 0. -1.
        -16    1    6    6    0    0 -0.38543473265E+02 -0.62064174036E+01 -0.38114962006E+03  0.38314377434E+03  0.00000000000E+00 0.  1.
<mgrwt>
<rscale>  2 0.17654232E+03</rscale>
<asrwt>0</asrwt>
<pdfrwt beam="1">  1       21 0.18655282E-02 0.17678384E+03</pdfrwt>
<pdfrwt beam="2">  1       21 0.44366729E+00 0.17678384E+03</pdfrwt>
<totfact> 0.64623048E+03</totfact>
</mgrwt>
</event>
<event>
12    2  0.4097182E-002  0.2061075E+03  0.7546771E-02  0.1145328E+00
         21   -1    0    0  503  502  0.00000000000E+00  0.00000000000E+00  0.72639094869E+02  0.72639094869E+02  0.00000000000E+00 0.  1.
         21   -1    0    0  501  503 -0.00000000000E+00 -0.00000000000E+00 -0.59671911939E+03  0.59671911939E+03  0.00000000000E+00 0. -1.
          6    2    1    2  501    0  0.10587673808E+03 -0.28590533253E+02 -0.32255072479E+03  0.38109728897E+03  0.17078896726E+03 0.  0.
         24    2    3    3    0    0  0.29821969922E+02 -0.23584709109E+02 -0.71112051725E+02  0.11831813769E+03  0.86583309080E+02 0.  0.
         -6    2    1    2    0  502 -0.10587673808E+03  0.28590533253E+02 -0.20152929973E+03  0.28826092529E+03  0.17450787989E+03 0.  0.
        -24    2    5    5    0    0 -0.44556918815E+02  0.42504112285E+02 -0.30002057410E+02  0.10551138966E+03  0.80253419386E+02 0.  0.
          5    1    3    3  501    0  0.76054768159E+02 -0.50058241439E+01 -0.25143867306E+03  0.26277915128E+03  0.47000000000E+01 0. -1.
        -15    1    4    4    0    0  0.49285196902E+02 -0.25832034420E+02 -0.79458961009E+02  0.97021692675E+02  0.17770000000E+01 0.  1.
         16    1    4    4    0    0 -0.19463226980E+02  0.22473253116E+01  0.83469092837E+01  0.21296445011E+02  0.00000000000E+00 0. -1.
         -5    1    5    5    0  502 -0.61319819266E+02 -0.13913579033E+02 -0.17152724232E+03  0.18274953564E+03  0.47000000000E+01 0.  1.
         15    1    6    6    0    0 -0.38166852166E+02  0.21676871937E+02 -0.56268874459E+02  0.71385848339E+02  0.17770000000E+01 0. -1.
        -16    1    6    6    0    0 -0.63900666497E+01  0.20827240349E+02  0.26266817050E+02  0.34125541318E+02  0.00000000000E+00 0.  1.
<mgrwt>
<rscale>  2 0.20531821E+03</rscale>
<asrwt>0</asrwt>
<pdfrwt beam="1">  1       21 0.11175246E-01 0.20610750E+03</pdfrwt>
<pdfrwt beam="2">  1       21 0.91802939E-01 0.20610750E+03</pdfrwt>
<totfact> 0.66432572E+04</totfact>
</mgrwt>
</event>
<event>
12    2  0.4097182E-002  0.2077587E+03  0.7546771E-02  0.1144144E+00
         21   -1    0    0  503  502  0.00000000000E+00  0.00000000000E+00  0.18885123736E+03  0.18885123736E+03  0.00000000000E+00 0.  1.
         21   -1    0    0  501  503 -0.00000000000E+00 -0.00000000000E+00 -0.25232742114E+03  0.25232742114E+03  0.00000000000E+00 0.  1.
          6    2    1    2  501    0 -0.99740793520E+02  0.46716546929E+02 -0.10553107822E+03  0.23302465666E+03  0.17616191555E+03 0.  0.
         24    2    3    3    0    0 -0.30674690876E+01  0.18682483837E+02 -0.10279752034E+03  0.13222186558E+03  0.80974360019E+02 0.  0.
         -6    2    1    2    0  502  0.99740793520E+02 -0.46716546929E+02  0.42054894449E+02  0.20815400184E+03  0.17154828092E+03 0.  0.
        -24    2    5    5    0    0  0.12731936998E+03 -0.70332932009E+02  0.42857684834E+02  0.17153370697E+03  0.80187830634E+02 0.  0.
          5    1    3    3  501    0 -0.96673324432E+02  0.28034063092E+02 -0.27335578808E+01  0.10080279108E+03  0.47000000000E+01 0. -1.
        -15    1    4    4    0    0 -0.13176914881E+02 -0.21201778203E+02 -0.82751377487E+02  0.86452846626E+02  0.17770000000E+01 0.  1.
         16    1    4    4    0    0  0.10109445793E+02  0.39884262040E+02 -0.20046142854E+02  0.45769018955E+02  0.00000000000E+00 0. -1.
         -5    1    5    5    0  502 -0.27578576461E+02  0.23616385080E+02 -0.80279038584E+00  0.36620294869E+02  0.47000000000E+01 0.  1.
         15    1    6    6    0    0  0.31022218842E+02 -0.61848012051E+02  0.22125359098E+02  0.72665286766E+02  0.17770000000E+01 0. -1.
        -16    1    6    6    0    0  0.96297151138E+02 -0.84849199578E+01  0.20732325736E+02  0.98868420208E+02  0.00000000000E+00 0.  1.
<mgrwt>
<rscale>  2 0.20677746E+03</rscale>
<asrwt>0</asrwt>
<pdfrwt beam="1">  1       21 0.29054037E-01 0.20775871E+03</pdfrwt>
<pdfrwt beam="2">  1       21 0.38819603E-01 0.20775871E+03</pdfrwt>
<totfact> 0.72087302E+04</totfact>
</mgrwt>
</event>
<event>
12    2  0.4097182E-002  0.1872957E+03  0.7546771E-02  0.1161037E+00
         21   -1    0    0  503  502  0.00000000000E+00  0.00000000000E+00  0.11117840829E+04  0.11117840829E+04  0.00000000000E+00 0.  1.
         21   -1    0    0  501  503 -0.00000000000E+00 -0.00000000000E+00 -0.54876479772E+02  0.54876479772E+02  0.00000000000E+00 0.  1.
          6    2    1    2  501    0 -0.35155888900E+02  0.61344156813E+02  0.14788081365E+03  0.23863864356E+03  0.17343766908E+03 0.  0.
         24    2    3    3    0    0 -0.64618499691E+02  0.21398855118E+02  0.30565497375E+02  0.11116846668E+03  0.82405805933E+02 0.  0.
         -6    2    1    2    0  502  0.35155888900E+02 -0.61344156813E+02  0.90902678952E+03  0.92802191915E+03  0.17290441365E+03 0.  0.
        -24    2    5    5    0    0  0.57522366548E+02 -0.22381591438E+02  0.27958405949E+03  0.29696044733E+03  0.78794052262E+02 0.  0.
          5    1    3    3  501    0  0.29462610791E+02  0.39945301695E+02  0.11731531627E+03  0.12747017688E+03  0.47000000000E+01 0. -1.
        -15    1    4    4    0    0  0.16895481553E+02  0.17131160467E+02  0.34775323482E+00  0.24129082394E+02  0.17770000000E+01 0.  1.
         16    1    4    4    0    0 -0.81513981244E+02  0.42676946513E+01  0.30217744140E+02  0.87039384286E+02  0.00000000000E+00 0. -1.
         -5    1    5    5    0  502 -0.22366477648E+02 -0.38962565375E+02  0.62944273003E+03  0.63106147181E+03  0.47000000000E+01 0.  1.
         15    1    6    6    0    0  0.57203114967E+02 -0.26262518089E+01  0.26800391436E+03  0.27405902540E+03  0.17770000000E+01 0. -1.
        -16    1    6    6    0    0  0.31925158091E+00 -0.19755339629E+02  0.11580145126E+02  0.22901421933E+02  0.00000000000E+00 0.  1.
<mgrwt>
<rscale>  2 0.18717212E+03</rscale>
<asrwt>0</asrwt>
<pdfrwt beam="1">  1       21 0.17104369E+00 0.18729567E+03</pdfrwt>
<pdfrwt beam="2">  1       21 0.84425361E-02 0.18729567E+03</pdfrwt>
<totfact> 0.23006624E+04</totfact>
</mgrwt>
</event>
<event>
12    2  0.4097182E-002  0.1887049E+03  0.7546771E-02  0.1159999E+00
         21   -1    0    0  503  502  0.00000000000E+00  0.00000000000E+00  0.69525611717E+03  0.69525611717E+03  0.00000000000E+00 0.  1.
         21   -1    0    0  501  503 -0.00000000000E+00 -0.00000000000E+00 -0.17517014031E+03  0.17517014031E+03  0.00000000000E+00 0.  1.
          6    2    1    2  501    0  0.39478468054E+02 -0.64015734779E+02 -0.10637299191E+03  0.21662124329E+03  0.17306930952E+03 0.  0.
         24    2    3    3    0    0  0.30976808775E+02  0.16238963010E+02 -0.10357601350E+03  0.13573238240E+03  0.80448881024E+02 0.  0.
         -6    2    1    2    0  502 -0.39478468054E+02  0.64015734779E+02  0.62645896876E+03  0.65380501419E+03  0.17132890387E+03 0.  0.
        -24    2    5    5    0    0  0.23668203667E+02  0.16275250261E+02  0.48298633937E+03  0.48987471987E+03  0.76657481805E+02 0.  0.
          5    1    3    3  501    0  0.85016592799E+01 -0.80254697788E+02 -0.27969784074E+01  0.80888860888E+02  0.47000000000E+01 0. -1.
        -15    1    4    4    0    0  0.56512200457E+02  0.22193146247E+02 -0.80198678449E+02  0.10060392783E+03  0.17770000000E+01 0.  1.
         16    1    4    4    0    0 -0.25535391683E+02 -0.59541832368E+01 -0.23377335052E+02  0.35128454571E+02  0.00000000000E+00 0. -1.
         -5    1    5    5    0  502 -0.63146671721E+02  0.47740484518E+02  0.14347262940E+03  0.16393029433E+03  0.47000000000E+01 0.  1.
         15    1    6    6    0    0 -0.16867723547E+02  0.42739219315E+01  0.28590633891E+02  0.33516691091E+02  0.17770000000E+01 0. -1.
        -16    1    6    6    0    0  0.40535927214E+02  0.12001328329E+02  0.45439570548E+03  0.45635802878E+03  0.00000000000E+00 0.  1.
<mgrwt>
<rscale>  2 0.18830493E+03</rscale>
<asrwt>0</asrwt>
<pdfrwt beam="1">  1       21 0.10696248E+00 0.18870493E+03</pdfrwt>
<pdfrwt beam="2">  1       21 0.26949253E-01 0.18870493E+03</pdfrwt>
<totfact> 0.91919959E+03</totfact>
</mgrwt>
</event>
<event>
12    2  0.4097182E-002  0.3259253E+03  0.7546771E-02  0.1072957E+00
         21   -1    0    0  503  502  0.00000000000E+00  0.00000000000E+00  0.20683013087E+03  0.20683013087E+03  0.00000000000E+00 0.  1.
         21   -1    0    0  501  503 -0.00000000000E+00 -0.00000000000E+00 -0.51362243260E+03  0.51362243260E+03  0.00000000000E+00 0.  1.
          6    2    1    2  501    0 -0.22438065430E+03  0.16137425032E+03 -0.14928101503E+03  0.35848589933E+03  0.17273966505E+03 0.  0.
         24    2    3    3    0    0 -0.22102349397E+03  0.10900855259E+03 -0.79691928848E+02  0.27120378353E+03  0.80414173209E+02 0.  0.
         -6    2    1    2    0  502  0.22438065430E+03 -0.16137425032E+03 -0.15751128671E+03  0.36196666414E+03  0.17268970386E+03 0.  0.
        -24    2    5    5    0    0  0.66553132275E+02 -0.12206967650E+02 -0.78550784463E+02  0.13084493032E+03  0.79823809586E+02 0.  0.
          5    1    3    3  501    0 -0.33571603347E+01  0.52365697728E+02 -0.69589086179E+02  0.87282115804E+02  0.47000000000E+01 0. -1.
        -15    1    4    4    0    0 -0.10582438318E+03  0.70140287045E+02 -0.79154597518E+02  0.14962308639E+03  0.17770000000E+01 0.  1.
         16    1    4    4    0    0 -0.11519911079E+03  0.38868265543E+02 -0.53733133031E+00  0.12158069714E+03  0.00000000000E+00 0. -1.
         -5    1    5    5    0  502  0.15782752203E+03 -0.14916728267E+03 -0.78960502242E+02  0.23112173382E+03  0.47000000000E+01 0.  1.
         15    1    6    6    0    0 -0.12142275539E+02 -0.14498576979E+02 -0.37546944602E+02  0.42078193493E+02  0.17770000000E+01 0. -1.
        -16    1    6    6    0    0  0.78695407814E+02  0.22916093286E+01 -0.41003839862E+02  0.88766736831E+02  0.00000000000E+00 0.  1.
<mgrwt>
<rscale>  2 0.32591871E+03</rscale>
<asrwt>0</asrwt>
<pdfrwt beam="1">  1       21 0.31820020E-01 0.32592533E+03</pdfrwt>
<pdfrwt beam="2">  1       21 0.79018835E-01 0.32592533E+03</pdfrwt>
<totfact> 0.12532639E+04</totfact>
</mgrwt>
</event>
<event>
12    2  0.4097182E-002  0.1996357E+03  0.7546771E-02  0.1150057E+00
         21   -1    0    0  501  502  0.00000000000E+00  0.00000000000E+00  0.78480098927E+02  0.78480098927E+02  0.00000000000E+00 0. -1.
         21   -1    0    0  502  503 -0.00000000000E+00 -0.00000000000E+00 -0.50793843371E+03  0.50793843371E+03  0.00000000000E+00 0. -1.
         -6    2    1    2    0  503 -0.37723102348E+02 -0.92499353501E+02 -0.22101634684E+03  0.29782988194E+03  0.17284458381E+03 0.  0.
        -24    2    3    3    0    0 -0.37123873527E+02 -0.22374683638E+02 -0.35124174103E+02  0.99094333317E+02  0.81897318855E+02 0.  0.
          6    2    1    2  501    0  0.37723102348E+02  0.92499353501E+02 -0.20844198794E+03  0.28858865070E+03  0.17278942134E+03 0.  0.
         24    2    5    5    0    0  0.15409020626E+01  0.50813032397E+02 -0.26840464252E+02  0.98725267211E+02  0.80261629837E+02 0.  0.
          5    1    5    5  501    0  0.36182200285E+02  0.41686321105E+02 -0.18160152368E+03  0.18986338349E+03  0.47000000000E+01 0. -1.
        -15    1    6    6    0    0  0.53676853386E+01  0.69919168469E+02 -0.63267683379E+01  0.70432150982E+02  0.17770000000E+01 0.  1.
         16    1    6    6    0    0 -0.38267832759E+01 -0.19106136073E+02 -0.20513695915E+02  0.28293116229E+02  0.00000000000E+00 0. -1.
         -5    1    3    3    0  503 -0.59922882105E+00 -0.70124669864E+02 -0.18589217274E+03  0.19873554862E+03  0.47000000000E+01 0.  1.
         15    1    4    4    0    0 -0.95294557673E+01 -0.43421622686E+02  0.64313715230E+01  0.44952954437E+02  0.17770000000E+01 0. -1.
        -16    1    4    4    0    0 -0.27594417760E+02  0.21046939048E+02 -0.41555545626E+02  0.54141378881E+02  0.00000000000E+00 0.  1.
<mgrwt>
<rscale>  2 0.19962376E+03</rscale>
<asrwt>0</asrwt>
<pdfrwt beam="1">  1       21 0.12073861E-01 0.19963570E+03</pdfrwt>
<pdfrwt beam="2">  1       21 0.78144374E-01 0.19963570E+03</pdfrwt>
<totfact> 0.83908828E+04</totfact>
</mgrwt>
</event>
<event>
12    2  0.4097182E-002  0.2152047E+03  0.7546771E-02  0.1137686E+00
         21   -1    0    0  501  502  0.00000000000E+00  0.00000000000E+00  0.29274795263E+03  0.29274795263E+03  0.00000000000E+00 0.  1.
         21   -1    0    0  502  503 -0.00000000000E+00 -0.00000000000E+00 -0.23082969188E+03  0.23082969188E+03  0.00000000000E+00 0.  1.
         -6    2    1    2    0  503  0.27101953593E+02 -0.12301102760E+03  0.17843754098E+03  0.27885368701E+03  0.17335857038E+03 0.  0.
        -24    2    3    3    0    0  0.37325458343E+02 -0.40119718280E+02  0.17648384140E+02  0.97605977590E+02  0.78820554191E+02 0.  0.
          6    2    1    2  501    0 -0.27101953593E+02  0.12301102760E+03 -0.11651928023E+03  0.24472395751E+03  0.17449024016E+03 0.  0.
         24    2    5    5    0    0 -0.81633042920E+02  0.65315532417E+02 -0.10505969909E+03  0.16437582830E+03  0.71076016232E+02 0.  0.
          5    1    5    5  501    0  0.54531089327E+02  0.57695495184E+02 -0.11459581140E+02  0.80348129210E+02  0.47000000000E+01 0. -1.
        -15    1    6    6    0    0 -0.66769555002E+02  0.66659498284E+02 -0.11320170512E+03  0.14737518773E+03  0.17770000000E+01 0.  1.
         16    1    6    6    0    0 -0.14863487918E+02 -0.13439658665E+01  0.81420060340E+01  0.17000640565E+02  0.00000000000E+00 0. -1.
         -5    1    3    3    0  503 -0.10223504750E+02 -0.82891309321E+02  0.16078915684E+03  0.18124770942E+03  0.47000000000E+01 0.  1.
         15    1    4    4    0    0  0.31977276248E+02 -0.62052696781E+02  0.14943249888E+01  0.69846074407E+02  0.17770000000E+01 0. -1.
        -16    1    4    4    0    0  0.53481820956E+01  0.21932978500E+02  0.16154059151E+02  0.27759903182E+02  0.00000000000E+00 0.  1.
<mgrwt>
<rscale>  2 0.21497522E+03</rscale>
<asrwt>0</asrwt>
<pdfrwt beam="1">  1       21 0.45038147E-01 0.21520472E+03</pdfrwt>
<pdfrwt beam="2">  1       21 0.35512260E-01 0.21520472E+03</pdfrwt>
<totfact> 0.35746119E+04</totfact>
</mgrwt>
</event>
<event>
11    2  0.4097182E-002  0.2231351E+03  0.7546771E-02  0.1131643E+00
         21   -1    0    0  503  502  0.00000000000E+00  0.00000000000E+00  0.56945448355E+03  0.56945448355E+03  0.00000000000E+00 0.  1.
         21   -1    0    0  501  503 -0.00000000000E+00 -0.00000000000E+00 -0.12246569035E+03  0.12246569035E+03  0.00000000000E+00 0. -1.
          6    2    1    2  501    0 -0.52637291561E+02  0.13056731587E+03  0.40910458978E+03  0.46599984248E+03  0.17312070753E+03 0.  0.
         24    2    3    3    0    0 -0.50313534602E+02  0.15717193846E+03  0.39487876152E+03  0.43537844506E+03  0.79941754587E+02 0.  0.
         -6    2    1    2    0  502  0.52637291561E+02 -0.13056731587E+03  0.37884203414E+02  0.22592033143E+03  0.17258700660E+03 0.  0.
          5    1    3    3  501    0 -0.23237569593E+01 -0.26604622594E+02  0.14225828266E+02  0.30621397414E+02  0.47000000000E+01 0. -1.
        -15    1    4    4    0    0 -0.65454237736E+02  0.13442011019E+03  0.36723095861E+03  0.39650316260E+03  0.17770000000E+01 0.  1.
         16    1    4    4    0    0  0.15140703134E+02  0.22751828273E+02  0.27647802903E+02  0.38875282463E+02  0.00000000000E+00 0. -1.
         -5    1    5    5    0  502  0.18345575110E+02 -0.45382682961E+02  0.98927433311E+02  0.11047567651E+03  0.47000000000E+01 0.  1.
         15    1    5    5    0    0  0.39245082123E+02 -0.68235177134E+02 -0.41136663329E+02  0.88834670418E+02  0.17770000000E+01 0. -1.
        -16    1    5    5    0    0 -0.49533656720E+01 -0.16949455773E+02 -0.19906566568E+02  0.26609984498E+02  0.00000000000E+00 0.  1.
<mgrwt>
<rscale>  2 0.22303161E+03</rscale>
<asrwt>0</asrwt>
<pdfrwt beam="1">  1       21 0.87608381E-01 0.22313513E+03</pdfrwt>
<pdfrwt beam="2">  1       21 0.18840876E-01 0.22313513E+03</pdfrwt>
<totfact> 0.28361646E+04</totfact>
</mgrwt>
</event>
<event>
12    2  0.4097182E-002  0.1988351E+03  0.7546771E-02  0.1151002E+00
         21   -1    0    0  503  502  0.00000000000E+00  0.00000000000E+00  0.25553317695E+03  0.25553317695E+03  0.00000000000E+00 0. -1.
         21   -1    0    0  501  503 -0.00000000000E+00 -0.00000000000E+00 -0.33932102837E+03  0.33932102837E+03  0.00000000000E+00 0. -1.
          6    2    1    2  501    0  0.95166364097E+02  0.97080746226E+01 -0.26180747022E+03  0.32797151184E+03  0.17283309159E+03 0.  0.
         24    2    3    3    0    0  0.25722301607E+02 -0.36041433973E+02 -0.15499756761E+03  0.19252432417E+03  0.10526513036E+03 0.  0.
         -6    2    1    2    0  502 -0.95166364097E+02 -0.97080746226E+01  0.17801961880E+03  0.26688269348E+03  0.17431151377E+03 0.  0.
        -24    2    5    5    0    0 -0.12718130621E+03  0.18305982283E+02  0.12403100583E+03  0.19798708961E+03  0.85469313829E+02 0.  0.
          5    1    3    3  501    0  0.69444062490E+02  0.45749508596E+02 -0.10680990261E+03  0.13544718767E+03  0.47000000000E+01 0. -1.
        -15    1    4    4    0    0  0.28874661213E+02 -0.59130180556E+02 -0.44170042637E+02  0.79273417412E+02  0.17770000000E+01 0.  1.
         16    1    4    4    0    0 -0.31523596057E+01  0.23088746582E+02 -0.11082752497E+03  0.11325090676E+03  0.00000000000E+00 0. -1.
         -5    1    5    5    0  502  0.32014942112E+02 -0.28014056906E+02  0.53988612965E+02  0.68895603871E+02  0.47000000000E+01 0.  1.
         15    1    6    6    0    0 -0.10433299507E+03  0.49011771703E+02  0.84292346128E+02  0.14281416236E+03  0.17770000000E+01 0. -1.
        -16    1    6    6    0    0 -0.22848311141E+02 -0.30705789421E+02  0.39738659705E+02  0.55172927248E+02  0.00000000000E+00 0.  1.
<mgrwt>
<rscale>  2 0.19851058E+03</rscale>
<asrwt>0</asrwt>
<pdfrwt beam="1">  1       21 0.39312796E-01 0.19883508E+03</pdfrwt>
<pdfrwt beam="2">  1       21 0.52203235E-01 0.19883508E+03</pdfrwt>
<totfact> 0.21639485E+04</totfact>
</mgrwt>
</event>
<event>
12    2  0.4097182E-002  0.2426390E+03  0.7546771E-02  0.1119405E+00
         21   -1    0    0  503  502  0.00000000000E+00  0.00000000000E+00  0.54660825800E+03  0.54660825800E+03  0.00000000000E+00 0. -1.
         21   -1    0    0  501  503 -0.00000000000E+00 -0.00000000000E+00 -0.10414525818E+03  0.10414525818E+03  0.00000000000E+00 0. -1.
          6    2    1    2  501    0 -0.11610857451E+03  0.10736475097E+03  0.22851160680E+03  0.33330352004E+03  0.18402524610E+03 0.  0.
         24    2    3    3    0    0 -0.29599999390E+01  0.96961182261E+02  0.14707771812E+03  0.19343071212E+03  0.79833281022E+02 0.  0.
         -6    2    1    2    0  502  0.11610857451E+03 -0.10736475097E+03  0.21395139302E+03  0.31744999613E+03  0.17317884005E+03 0.  0.
        -24    2    5    5    0    0  0.95975040889E+02 -0.11347012994E+03  0.23368218846E+03  0.28822621956E+03  0.79876840061E+02 0.  0.
          5    1    3    3  501    0 -0.11314857457E+03  0.10403568711E+02  0.81433888678E+02  0.13987280792E+03  0.47000000000E+01 0. -1.
        -15    1    4    4    0    0 -0.11230225691E+02  0.10270993760E+03  0.94939628657E+02  0.14032868584E+03  0.17770000000E+01 0.  1.
         16    1    4    4    0    0  0.82702257521E+01 -0.57487553422E+01  0.52138089464E+02  0.53102026278E+02  0.00000000000E+00 0. -1.
         -5    1    5    5    0  502  0.20133533623E+02  0.61053789661E+01 -0.19730795438E+02  0.29223776571E+02  0.47000000000E+01 0.  1.
         15    1    6    6    0    0  0.40619426428E+02 -0.22003980368E+02  0.22262919762E+02  0.51311872707E+02  0.17770000000E+01 0. -1.
        -16    1    6    6    0    0  0.55355614462E+02 -0.91466149571E+02  0.21141926870E+03  0.23691434685E+03  0.00000000000E+00 0.  1.
<mgrwt>
<rscale>  2 0.24058309E+03</rscale>
<asrwt>0</asrwt>
<pdfrwt beam="1">  1       21 0.84093576E-01 0.24263900E+03</pdfrwt>
<pdfrwt beam="2">  1       21 0.16022348E-01 0.24263900E+03</pdfrwt>
<totfact> 0.41686784E+04</totfact>
</mgrwt>
</event>
<event>
12    2  0.4097182E-002  0.2267488E+03  0.7546771E-02  0.1129022E+00
         21   -1    0    0  503  502  0.00000000000E+00  0.00000000000E+00  0.26361428568E+03  0.26361428568E+03  0.00000000000E+00 0. -1.
         21   -1    0    0  501  503 -0.00000000000E+00 -0.00000000000E+00 -0.40026340852E+03  0.40026340852E+03  0.00000000000E+00 0.  1.
          6    2    1    2  501    0 -0.27184006597E+02 -0.14280065139E+03 -0.30623865981E+03  0.38104743701E+03  0.17402309112E+03 0.  0.
         24    2    3    3    0    0  0.34317484629E+02 -0.89176700564E+02 -0.10333898850E+03  0.16230482995E+03  0.80831538451E+02 0.  0.
         -6    2    1    2    0  502  0.27184006597E+02  0.14280065139E+03  0.16958953696E+03  0.28283025720E+03  0.17349739793E+03 0.  0.
        -24    2    5    5    0    0  0.10419889568E+02  0.10535438414E+02  0.12298017555E+03  0.14151626371E+03  0.68433615690E+02 0.  0.
          5    1    3    3  501    0 -0.61501491226E+02 -0.53623950824E+02 -0.20289967131E+03  0.21874260706E+03  0.47000000000E+01 0. -1.
        -15    1    4    4    0    0  0.14027650686E+02 -0.79361926630E+02 -0.11214097119E+03  0.13810809364E+03  0.17770000000E+01 0.  1.
         16    1    4    4    0    0  0.20289833943E+02 -0.98147739342E+01  0.88019826906E+01  0.24196736311E+02  0.00000000000E+00 0. -1.
         -5    1    5    5    0  502  0.16764117029E+02  0.13226521297E+03  0.46609361417E+02  0.14131399348E+03  0.47000000000E+01 0.  1.
         15    1    6    6    0    0 -0.22216343548E+02 -0.90740396903E+01  0.82525688089E+02  0.85962497872E+02  0.17770000000E+01 0. -1.
        -16    1    6    6    0    0  0.32636233116E+02  0.19609478104E+02  0.40454487458E+02  0.55553765840E+02  0.00000000000E+00 0.  1.
<mgrwt>
<rscale>  2 0.22664796E+03</rscale>
<asrwt>0</asrwt>
<pdfrwt beam="1">  1       21 0.40556044E-01 0.22674883E+03</pdfrwt>
<pdfrwt beam="2">  1       21 0.61578986E-01 0.22674883E+03</pdfrwt>
<totfact> 0.14054455E+04</totfact>
</mgrwt>
</event>
<event>
12    2  0.4097182E-002  0.2315243E+03  0.7546771E-02  0.1126101E+00
         21   -1    0    0  501  502  0.00000000000E+00  0.00000000000E+00  0.14635215489E+04  0.14635215489E+04  0.00000000000E+00 0.  1.
         21   -1    0    0  502  503 -0.00000000000E+00 -0.00000000000E+00 -0.50543711174E+02  0.50543711174E+02  0.00000000000E+00 0. -1.
         -6    2    1    2    0  503 -0.12072873639E+03 -0.89262685701E+02  0.11071442384E+04  0.11304799637E+04  0.17225948116E+03 0.  0.
        -24    2    3    3    0    0 -0.26834788368E+01 -0.25524975666E+02  0.28359201229E+03  0.29605948357E+03  0.81043586669E+02 0.  0.
          6    2    1    2  501    0  0.12072873639E+03  0.89262685701E+02  0.30583359931E+03  0.38358529636E+03  0.17623913943E+03 0.  0.
         24    2    5    5    0    0  0.68624955698E+02 -0.13388500875E+02  0.94998079516E+02  0.14332340493E+03  0.81414536713E+02 0.  0.
          5    1    5    5  501    0  0.52103780692E+02  0.10265118658E+03  0.21083551980E+03  0.24026189143E+03  0.47000000000E+01 0. -1.
        -15    1    6    6    0    0 -0.11682828372E+01 -0.18568290896E+01  0.67292767510E+02  0.67351963500E+02  0.17770000000E+01 0.  1.
         16    1    6    6    0    0  0.69793238535E+02 -0.11531671786E+02  0.27705312006E+02  0.75971441429E+02  0.00000000000E+00 0. -1.
         -5    1    3    3    0  503 -0.11804525755E+03 -0.63737710035E+02  0.82355222612E+03  0.83442048013E+03  0.47000000000E+01 0.  1.
         15    1    4    4    0    0 -0.34816092169E+01  0.18654887309E+02  0.20510666858E+03  0.20599036300E+03  0.17770000000E+01 0. -1.
        -16    1    4    4    0    0  0.79813038009E+00 -0.44179862975E+02  0.78485343708E+02  0.90069120577E+02  0.00000000000E+00 0.  1.
<mgrwt>
<rscale>  2 0.23076687E+03</rscale>
<asrwt>0</asrwt>
<pdfrwt beam="1">  1       21 0.22515713E+00 0.23152427E+03</pdfrwt>
<pdfrwt beam="2">  1       21 0.77759567E-02 0.23152427E+03</pdfrwt>
<totfact> 0.11423565E+04</totfact>
</mgrwt>
</event>
<event>
10    2  0.4097182E-002  0.1828186E+03  0.7546771E-02  0.1165841E+00
         21   -1    0    0  503  502  0.00000000000E+00  0.00000000000E+00  0.87455006517E+02  0.87455006517E+02  0.00000000000E+00 0.  1.
         21   -1    0    0  501  503 -0.00000000000E+00 -0.00000000000E+00 -0.40052301174E+03  0.40052301174E+03  0.00000000000E+00 0.  1.
          6    2    1    2  501    0 -0.41950671545E+02  0.88675353285E+01 -0.21596286089E+03  0.28097069156E+03  0.17454535287E+03 0.  0.
         -6    2    1    2    0  502  0.41950671545E+02 -0.88675353285E+01 -0.97105144341E+02  0.20700732670E+03  0.17771925113E+03 0.  0.
          5    1    3    3  501    0  0.30158867475E+02 -0.21110773496E+02  0.88641822939E+01  0.38156071243E+02  0.47000000000E+01 0. -1.
        -15    1    3    3    0    0 -0.62331315150E+02  0.42737631866E+02 -0.18248448102E+03  0.19752326842E+03  0.17770000000E+01 0.  1.
         16    1    3    3    0    0 -0.97782238701E+01 -0.12759323041E+02 -0.42342562157E+02  0.45291351896E+02  0.00000000000E+00 0. -1.
         -5    1    4    4    0  502 -0.22593335145E+02 -0.35894978887E+02  0.31786553703E+02  0.53210744203E+02  0.47000000000E+01 0.  1.
         15    1    4    4    0    0  0.59228911159E+02  0.14919455891E+02 -0.67724238313E+02  0.91216140377E+02  0.17770000000E+01 0. -1.
        -16    1    4    4    0    0  0.53150955309E+01  0.12107987668E+02 -0.61167459731E+02  0.62580442119E+02  0.00000000000E+00 0.  1.
<mgrwt>
<rscale>  2 0.18204267E+03</rscale>
<asrwt>0</asrwt>
<pdfrwt beam="1">  1       21 0.13454617E-01 0.18281856E+03</pdfrwt>
<pdfrwt beam="2">  1       21 0.61618924E-01 0.18281856E+03</pdfrwt>
<totfact> 0.11732065E+05</totfact>
</mgrwt>
</event>
<event>
12    2  0.4097182E-002  0.1928367E+03  0.7546771E-02  0.1156535E+00
         21   -1    0    0  503  502  0.00000000000E+00  0.00000000000E+00  0.74060310992E+03  0.74060310992E+03  0.00000000000E+00 0.  1.
         21   -1    0    0  501  503 -0.00000000000E+00 -0.00000000000E+00 -0.88261047298E+02  0.88261047298E+02  0.00000000000E+00 0.  1.
          6    2    1    2  501    0  0.65369900431E+02 -0.44543334823E+02  0.52847404788E+02  0.19994706785E+03  0.17586542921E+03 0.  0.
         24    2    3    3    0    0  0.42682913773E+02 -0.14962586576E+02 -0.38268786947E+02  0.10138759126E+03  0.82275351601E+02 0.  0.
         -6    2    1    2    0  502 -0.65369900431E+02  0.44543334823E+02  0.59949465783E+03  0.62891708937E+03  0.17287431263E+03 0.  0.
        -24    2    5    5    0    0 -0.73466648573E+02  0.81155698522E+02  0.55450980353E+03  0.57016549686E+03  0.74993171255E+02 0.  0.
          5    1    3    3  501    0  0.22686986659E+02 -0.29580748247E+02  0.91116191735E+02  0.98559476595E+02  0.47000000000E+01 0. -1.
        -15    1    4    4    0    0 -0.16180289518E+02 -0.20314134274E+02  0.69790083332E+01  0.26950512175E+02  0.17770000000E+01 0.  1.
         16    1    4    4    0    0  0.58863203291E+02  0.53515476978E+01 -0.45247795280E+02  0.74437079081E+02  0.00000000000E+00 0. -1.
         -5    1    5    5    0  502  0.80967481416E+01 -0.36612363699E+02  0.44984854301E+02  0.58751592511E+02  0.47000000000E+01 0.  1.
         15    1    6    6    0    0  0.27669844087E+00  0.11505142755E+01 -0.21153792394E+01  0.30054622693E+01  0.17770000000E+01 0. -1.
        -16    1    6    6    0    0 -0.73743347014E+02  0.80005184247E+02  0.55662518277E+03  0.56716003459E+03  0.00000000000E+00 0.  1.
<mgrwt>
<rscale>  2 0.19215206E+03</rscale>
<asrwt>0</asrwt>
<pdfrwt beam="1">  1       21 0.11393894E+00 0.19283667E+03</pdfrwt>
<pdfrwt beam="2">  1       21 0.13578623E-01 0.19283667E+03</pdfrwt>
<totfact> 0.28176920E+04</totfact>
</mgrwt>
</event>
<event>
12    2  0.4097182E-002  0.2930574E+03  0.7546771E-02  0.1088833E+00
         21   -1    0    0  501  502  0.00000000000E+00  0.00000000000E+00  0.46457322763E+03  0.46457322763E+03  0.00000000000E+00 0. -1.
         21   -1    0    0  502  503 -0.00000000000E+00 -0.00000000000E+00 -0.51213551254E+03  0.51213551254E+03  0.00000000000E+00 0.  1.
         -6    2    1    2    0  503  0.28726868232E+02  0.23472571691E+03 -0.41436527152E+03  0.50721210877E+03  0.17217476556E+03 0.  0.
        -24    2    3    3    0    0  0.60212184151E+02  0.82886749796E+02 -0.13267825459E+03  0.18562842982E+03  0.79741296109E+02 0.  0.
          6    2    1    2  501    0 -0.28726868232E+02 -0.23472571691E+03  0.36680298661E+03  0.46949663141E+03  0.17309321413E+03 0.  0.
         24    2    5    5    0    0  0.38117462099E+01 -0.52179014398E+02  0.59463945339E+02  0.11052387991E+03  0.77086887873E+02 0.  0.
          5    1    5    5  501    0 -0.32538614442E+02 -0.18254670252E+03  0.30733904127E+03  0.35897275150E+03  0.47000000000E+01 0. -1.
        -15    1    6    6    0    0  0.25921904595E+02 -0.59242562433E+02  0.25825132501E+02  0.69654300221E+02  0.17770000000E+01 0.  1.
         16    1    6    6    0    0 -0.22110158385E+02  0.70635480358E+01  0.33638812838E+02  0.40869579687E+02  0.00000000000E+00 0. -1.
         -5    1    3    3    0  503 -0.31485315919E+02  0.15183896712E+03 -0.28168701694E+03  0.32158367895E+03  0.47000000000E+01 0.  1.
         15    1    4    4    0    0  0.39719285505E+02 -0.44974928449E+01 -0.38395105064E+02  0.55454403836E+02  0.17770000000E+01 0. -1.
        -16    1    4    4    0    0  0.20492898646E+02  0.87384242641E+02 -0.94283149522E+02  0.13017402598E+03  0.00000000000E+00 0.  1.
<mgrwt>
<rscale>  2 0.29292195E+03</rscale>
<asrwt>0</asrwt>
<pdfrwt beam="1">  1       21 0.71472804E-01 0.29305743E+03</pdfrwt>
<pdfrwt beam="2">  1       21 0.78790079E-01 0.29305743E+03</pdfrwt>
<totfact> 0.23426926E+03</totfact>
</mgrwt>
</event>
<event>
12    2  0.4097182E-002  0.2120345E+03  0.7546771E-02  0.1139999E+00
         21   -1    0    0  501  502  0.00000000000E+00  0.00000000000E+00  0.34746696280E+03  0.34746696280E+03  0.00000000000E+00 0.  1.
         21   -1    0    0  502  503 -0.00000000000E+00 -0.00000000000E+00 -0.14791201591E+03  0.14791201591E+03  0.00000000000E+00 0.  1.
         -6    2    1    2    0  503 -0.66925820922E+02  0.10102475897E+03  0.11838068807E+02  0.21218952921E+03  0.17377913857E+03 0.  0.
        -24    2    3    3    0    0 -0.56880743653E+02  0.98116820335E+00 -0.42261006328E+02  0.97916069645E+02  0.67566133154E+02 0.  0.
          6    2    1    2  501    0  0.66925820922E+02 -0.10102475897E+03  0.18771687808E+03  0.28318944951E+03  0.17399301873E+03 0.  0.
         24    2    5    5    0    0 -0.18038394793E+00 -0.11269678074E+03  0.11006202184E+03  0.17978806885E+03  0.86657395070E+02 0.  0.
          5    1    5    5  501    0  0.67106204870E+02  0.11672021780E+02  0.77654856241E+02  0.10340138066E+03  0.47000000000E+01 0. -1.
        -15    1    6    6    0    0  0.23291844543E+02 -0.11581180027E+03  0.86867721514E+02  0.14664256501E+03  0.17770000000E+01 0.  1.
         16    1    6    6    0    0 -0.23472228491E+02  0.31150195232E+01  0.23194300325E+02  0.33145503835E+02  0.00000000000E+00 0. -1.
         -5    1    3    3    0  503 -0.10045077269E+02  0.10004359076E+03  0.54099075135E+02  0.11427345956E+03  0.47000000000E+01 0.  1.
         15    1    4    4    0    0  0.14831215663E+02 -0.21448683689E+01 -0.10035515888E+01  0.15123830968E+02  0.17770000000E+01 0. -1.
        -16    1    4    4    0    0 -0.71711959316E+02  0.31260365722E+01 -0.41257454739E+02  0.82792238677E+02  0.00000000000E+00 0.  1.
<mgrwt>
<rscale>  2 0.21199064E+03</rscale>
<asrwt>0</asrwt>
<pdfrwt beam="1">  1       21 0.53456456E-01 0.21203452E+03</pdfrwt>
<pdfrwt beam="2">  1       21 0.22755695E-01 0.21203452E+03</pdfrwt>
<totfact> 0.59453822E+04</totfact>
</mgrwt>
</event>
<event>
12    2  0.4097182E-002  0.2051715E+03  0.7546771E-02  0.1145793E+00
         21   -1    0    0  501  502  0.00000000000E+00  0.00000000000E+00  0.17021589157E+03  0.17021589157E+03  0.00000000000E+00 0.  1.
         21   -1    0    0  502  503 -0.00000000000E+00 -0.00000000000E+00 -0.25002156661E+03  0.25002156661E+03  0.00000000000E+00 0.  1.
         -6    2    1    2    0  503 -0.50456325455E+02 -0.94731072651E+02 -0.68993866685E+02  0.21646130995E+03  0.17485859476E+03 0.  0.
        -24    2    3    3    0    0 -0.74698179733E+02 -0.74347447654E+02  0.81438545346E+01  0.13294198463E+03  0.80621882155E+02 0.  0.
          6    2    1    2  501    0  0.50456325455E+02  0.94731072651E+02 -0.10811808357E+02  0.20377614824E+03  0.17288148104E+03 0.  0.
         24    2    5    5    0    0  0.10049124295E+03  0.69975665715E+02 -0.19821256943E+01  0.14706304184E+03  0.81415758630E+02 0.  0.
          5    1    5    5  501    0 -0.50034917491E+02  0.24755406937E+02 -0.88296826622E+01  0.56713106393E+02  0.47000000000E+01 0. -1.
        -15    1    6    6    0    0  0.10394115631E+02 -0.54615453483E+01  0.23945139422E+02  0.26728141505E+02  0.17770000000E+01 0.  1.
         16    1    6    6    0    0  0.90097127314E+02  0.75437211063E+02 -0.25927265117E+02  0.12033490034E+03  0.00000000000E+00 0. -1.
         -5    1    3    3    0  503  0.24241854278E+02 -0.20383624997E+02 -0.77137721220E+02  0.83519325319E+02  0.47000000000E+01 0.  1.
         15    1    4    4    0    0  0.98182460414E+01 -0.53260693630E+00 -0.15331536936E+02  0.18300146975E+02  0.17770000000E+01 0. -1.
        -16    1    4    4    0    0 -0.84516425774E+02 -0.73814840718E+02  0.23475391471E+02  0.11464183765E+03  0.00000000000E+00 0.  1.
<mgrwt>
<rscale>  2 0.20474961E+03</rscale>
<asrwt>0</asrwt>
<pdfrwt beam="1">  1       21 0.26187060E-01 0.20517150E+03</pdfrwt>
<pdfrwt beam="2">  1       21 0.38464857E-01 0.20517150E+03</pdfrwt>
<totfact> 0.89865691E+04</totfact>
</mgrwt>
</event>
<event>
12    2  0.4097182E-002  0.2225798E+03  0.7546771E-02  0.1132272E+00
         21   -1    0    0  501  502  0.00000000000E+00  0.00000000000E+00  0.98228204814E+03  0.98228204814E+03  0.00000000000E+00 0.  1.
         21   -1    0    0  502  503 -0.00000000000E+00 -0.00000000000E+00 -0.55384393161E+02  0.55384393161E+02  0.00000000000E+00 0.  1.
         -6    2    1    2    0  503  0.12538137979E+03 -0.64121942608E+02  0.30425920431E+03  0.37698203261E+03  0.17236494883E+03 0.  0.
        -24    2    3    3    0    0  0.45222986480E+02 -0.98460939282E+02  0.18902249377E+03  0.23239253034E+03  0.80852396001E+02 0.  0.
          6    2    1    2  501    0 -0.12538137979E+03  0.64121942608E+02  0.62263845067E+03  0.66068440868E+03  0.17027370234E+03 0.  0.
         24    2    5    5    0    0 -0.10195229360E+03  0.18492534183E+02  0.57779096597E+03  0.59238834821E+03  0.79657458810E+02 0.  0.
          5    1    5    5  501    0 -0.23429086191E+02  0.45629408424E+02  0.44847484692E+02  0.68296060473E+02  0.47000000000E+01 0. -1.
        -15    1    6    6    0    0 -0.80743178264E+02  0.29836508052E+02  0.26416960411E+03  0.27784602843E+03  0.17770000000E+01 0.  1.
         16    1    6    6    0    0 -0.21209115331E+02 -0.11343973868E+02  0.31362136186E+03  0.31454231978E+03  0.00000000000E+00 0. -1.
         -5    1    3    3    0  503  0.80158393306E+02  0.34338996675E+02  0.11523671054E+03  0.14458950227E+03  0.47000000000E+01 0.  1.
         15    1    4    4    0    0  0.28946787020E+02 -0.20159625893E+02  0.12515931259E+03  0.13004744615E+03  0.17770000000E+01 0. -1.
        -16    1    4    4    0    0  0.16276199460E+02 -0.78301313389E+02  0.63863181179E+02  0.10234508419E+03  0.00000000000E+00 0.  1.
<mgrwt>
<rscale>  2 0.22217487E+03</rscale>
<asrwt>0</asrwt>
<pdfrwt beam="1">  1       21 0.15112030E+00 0.22257985E+03</pdfrwt>
<pdfrwt beam="2">  1       21 0.85206766E-02 0.22257985E+03</pdfrwt>
<totfact> 0.30945905E+04</totfact>
</mgrwt>
</event>
<event>
12    2  0.4097182E-002  0.2018712E+03  0.7546771E-02  0.1149222E+00
         21   -1    0    0  501  502  0.00000000000E+00  0.00000000000E+00  0.49503960614E+03  0.49503960614E+03  0.00000000000E+00 0.  1.
         21   -1    0    0  502  503 -0.00000000000E+00 -0.00000000000E+00 -0.81118962970E+02  0.81118962970E+02  0.00000000000E+00 0. -1.
         -6    2    1    2    0  503  0.97848525638E+02 -0.33803144410E+02  0.23331257824E+03  0.30528728990E+03  0.16747711387E+03 0.  0.
        -24    2    3    3    0    0  0.87365705136E+02 -0.38926321233E+02  0.53065209615E+02  0.12460153960E+03  0.59679161196E+02 0.  0.
          6    2    1    2  501    0 -0.97848525638E+02  0.33803144410E+02  0.18060806494E+03  0.27087127921E+03  0.17330605944E+03 0.  0.
         24    2    5    5    0    0 -0.81558642108E+02  0.71907647331E+02  0.18494580326E+03  0.22894015208E+03  0.79913210699E+02 0.  0.
          5    1    5    5  501    0 -0.16289883530E+02 -0.38104502921E+02 -0.43377383275E+01  0.41931127126E+02  0.47000000000E+01 0. -1.
        -15    1    6    6    0    0 -0.66565369856E+02  0.19727850833E+02  0.14736740870E+03  0.16291239191E+03  0.17770000000E+01 0.  1.
         16    1    6    6    0    0 -0.14993272252E+02  0.52179796498E+02  0.37578394565E+02  0.66027760174E+02  0.00000000000E+00 0. -1.
         -5    1    3    3    0  503  0.10482820502E+02  0.51231768225E+01  0.18024736862E+03  0.18068575030E+03  0.47000000000E+01 0.  1.
         15    1    4    4    0    0  0.25395670743E+02 -0.16871291042E+02  0.50201346890E+02  0.58761496854E+02  0.17770000000E+01 0. -1.
        -16    1    4    4    0    0  0.61970034393E+02 -0.22055030191E+02  0.28638627247E+01  0.65840042748E+02  0.00000000000E+00 0.  1.
<mgrwt>
<rscale>  2 0.20061413E+03</rscale>
<asrwt>0</asrwt>
<pdfrwt beam="1">  1       21 0.76159938E-01 0.20187119E+03</pdfrwt>
<pdfrwt beam="2">  1       21 0.12479841E-01 0.20187119E+03</pdfrwt>
<totfact> 0.83698911E+04</totfact>
</mgrwt>
</event>
<event>
12    2  0.4097182E-002  0.1766948E+03  0.7546771E-02  0.1171423E+00
         21   -1    0    0  503  502  0.00000000000E+00  0.00000000000E+00  0.12447490071E+03  0.12447490071E+03  0.00000000000E+00 0. -1.
         21   -1    0    0  501  503 -0.00000000000E+00 -0.00000000000E+00 -0.36633127228E+03  0.36633127228E+03  0.00000000000E+00 0. -1.
          6    2    1    2  501    0 -0.14915078487E+02 -0.18444909282E+02 -0.25965972470E+03  0.31321677132E+03  0.17354797307E+03 0.  0.
         24    2    3    3    0    0  0.55953727256E+02  0.11259148742E+02 -0.14910006849E+03  0.17849392146E+03  0.79822688201E+02 0.  0.
         -6    2    1    2    0  502  0.14915078487E+02  0.18444909282E+02  0.17803353140E+02  0.17758940167E+03  0.17509529394E+03 0.  0.
        -24    2    5    5    0    0 -0.11037466272E+02  0.77180588124E+02  0.12063072341E+02  0.11294842881E+03  0.80827971719E+02 0.  0.
          5    1    3    3  501    0 -0.70868805743E+02 -0.29704058024E+02 -0.11055965621E+03  0.13472284985E+03  0.47000000000E+01 0. -1.
        -15    1    4    4    0    0 -0.37246786577E+01 -0.24866967438E+02 -0.21773050687E+02  0.33308598978E+02  0.17770000000E+01 0.  1.
         16    1    4    4    0    0  0.59678405914E+02  0.36126116180E+02 -0.12732701780E+03  0.14518532249E+03  0.00000000000E+00 0. -1.
         -5    1    5    5    0  502  0.25952544759E+02 -0.58735678842E+02  0.57402807988E+01  0.64640972859E+02  0.47000000000E+01 0.  1.
         15    1    6    6    0    0 -0.35603262559E+02  0.34138501217E+02  0.32761073135E+02  0.59240823864E+02  0.17770000000E+01 0. -1.
        -16    1    6    6    0    0  0.24565796287E+02  0.43042086907E+02 -0.20698000793E+02  0.53707604949E+02  0.00000000000E+00 0.  1.
<mgrwt>
<rscale>  2 0.17631020E+03</rscale>
<asrwt>0</asrwt>
<pdfrwt beam="1">  1       21 0.19149985E-01 0.17669475E+03</pdfrwt>
<pdfrwt beam="2">  1       21 0.56358657E-01 0.17669475E+03</pdfrwt>
<totfact> 0.74637697E+04</totfact>
</mgrwt>
</event>
<event>
12    2  0.4097182E-002  0.1987706E+03  0.7546771E-02  0.1154180E+00
         21   -1    0    0  503  502  0.00000000000E+00  0.00000000000E+00  0.88055044406E+02  0.88055044406E+02  0.00000000000E+00 0. -1.
         21   -1    0    0  501  503 -0.00000000000E+00 -0.00000000000E+00 -0.45003287154E+03  0.45003287154E+03  0.00000000000E+00 0. -1.
          6    2    1    2  501    0 -0.31953146410E+02 -0.52304796129E+02 -0.24955079507E+03  0.30972504036E+03  0.17290808553E+03 0.  0.
         24    2    3    3    0    0  0.52558008383E+00 -0.28595413259E+02 -0.36612036796E+02  0.92971707548E+02  0.80531504842E+02 0.  0.
         -6    2    1    2    0  502  0.31953146410E+02  0.52304796129E+02 -0.11242703207E+03  0.22836287559E+03  0.18908455819E+03 0.  0.
        -24    2    5    5    0    0 -0.53614234405E+02 -0.28450227273E+01 -0.56868039677E+02  0.11229319473E+03  0.80580440311E+02 0.  0.
          5    1    3    3  501    0 -0.32478726494E+02 -0.23709382870E+02 -0.21293875827E+03  0.21675333281E+03  0.47000000000E+01 0. -1.
        -15    1    4    4    0    0  0.37906351127E+02 -0.28581743355E+02 -0.15133689124E+02  0.49859741119E+02  0.17770000000E+01 0.  1.
         16    1    4    4    0    0 -0.37380771043E+02 -0.13669904354E-01 -0.21478347672E+02  0.43111966429E+02  0.00000000000E+00 0. -1.
         -5    1    5    5    0  502  0.85567380816E+02  0.55149818857E+02 -0.55558992396E+02  0.11606968086E+03  0.47000000000E+01 0.  1.
         15    1    6    6    0    0 -0.11496952880E+02 -0.15577898765E+02  0.17320216614E+02  0.26038404099E+02  0.17770000000E+01 0. -1.
        -16    1    6    6    0    0 -0.42117281525E+02  0.12732876038E+02 -0.74188256291E+02  0.86254790630E+02  0.00000000000E+00 0.  1.
<mgrwt>
<rscale>  2 0.19482458E+03</rscale>
<asrwt>0</asrwt>
<pdfrwt beam="1">  1       21 0.13546930E-01 0.19877064E+03</pdfrwt>
<pdfrwt beam="2">  1       21 0.69235826E-01 0.19877064E+03</pdfrwt>
<totfact> 0.89346307E+04</totfact>
</mgrwt>
</event>
<event>
12    2  0.4097182E-002  0.1982450E+03  0.7546771E-02  0.1151570E+00
         21   -1    0    0  501  502  0.00000000000E+00  0.00000000000E+00  0.25133015666E+04  0.25133015666E+04  0.00000000000E+00 0. -1.
         21   -1    0    0  502  503 -0.00000000000E+00 -0.00000000000E+00 -0.17276874602E+02  0.17276874602E+02  0.00000000000E+00 0. -1.
         -6    2    1    2    0  503  0.80741546300E+02  0.52252229558E+02  0.84808765566E+03  0.87094990804E+03  0.17335390920E+03 0.  0.
        -24    2    3    3    0    0  0.89471869843E+02  0.94022396382E+02  0.70098146436E+03  0.71770733267E+03  0.82966110441E+02 0.  0.
          6    2    1    2  501    0 -0.80741546300E+02 -0.52252229558E+02  0.16479370363E+04  0.16596285331E+04  0.17152521554E+03 0.  0.
         24    2    5    5    0    0 -0.87616588431E+02  0.15824915524E+02  0.12462893813E+04  0.12521672556E+04  0.82210216080E+02 0.  0.
          5    1    5    5  501    0  0.68750421305E+01 -0.68077145082E+02  0.40164765501E+03  0.40746127750E+03  0.47000000000E+01 0. -1.
        -15    1    6    6    0    0 -0.69426849596E+02 -0.18240816292E+01  0.43757380136E+03  0.44305462878E+03  0.17770000000E+01 0.  1.
         16    1    6    6    0    0 -0.18189738835E+02  0.17648997153E+02  0.80871557995E+03  0.80911262687E+03  0.00000000000E+00 0. -1.
         -5    1    3    3    0  503 -0.87303235429E+01 -0.41770166825E+02  0.14710619130E+03  0.15324257537E+03  0.47000000000E+01 0.  1.
         15    1    4    4    0    0  0.24028981147E+01  0.55181511918E+02  0.18852548056E+03  0.19645810680E+03  0.17770000000E+01 0. -1.
        -16    1    4    4    0    0  0.87068971729E+02  0.38840884464E+02  0.51245598380E+03  0.52124922588E+03  0.00000000000E+00 0.  1.
<mgrwt>
<rscale>  2 0.19784449E+03</rscale>
<asrwt>0</asrwt>
<pdfrwt beam="1">  1       21 0.38666149E+00 0.19824498E+03</pdfrwt>
<pdfrwt beam="2">  1       21 0.26579827E-02 0.19824498E+03</pdfrwt>
<totfact> 0.80792576E+03</totfact>
</mgrwt>
</event>
<event>
12    2  0.4097182E-002  0.1871772E+03  0.7546771E-02  0.1161471E+00
         21   -1    0    0  503  502  0.00000000000E+00  0.00000000000E+00  0.82576134061E+03  0.82576134061E+03  0.00000000000E+00 0.  1.
         21   -1    0    0  501  503 -0.00000000000E+00 -0.00000000000E+00 -0.43042042128E+02  0.43042042128E+02  0.00000000000E+00 0.  1.
          6    2    1    2  501    0  0.26850008526E+02 -0.60547338756E+02  0.32568316050E+03  0.37563923842E+03  0.17506688212E+03 0.  0.
         24    2    3    3    0    0  0.64022731914E+01  0.27521633524E+02  0.99774560388E+02  0.13226496006E+03  0.82101323656E+02 0.  0.
         -6    2    1    2    0  502 -0.26850008526E+02  0.60547338756E+02  0.45703613799E+03  0.49316414433E+03  0.17303739086E+03 0.  0.
        -24    2    5    5    0    0 -0.12149739708E+02 -0.36842569394E+02  0.18841783129E+03  0.20701946623E+03  0.76490451394E+02 0.  0.
          5    1    3    3  501    0  0.20447735334E+02 -0.88068972280E+02  0.22590860011E+03  0.24337427835E+03  0.47000000000E+01 0. -1.
        -15    1    4    4    0    0 -0.20158404843E+02 -0.21348107699E+02  0.47881492845E+02  0.56195178390E+02  0.17770000000E+01 0.  1.
         16    1    4    4    0    0  0.26560678035E+02  0.48869741223E+02  0.51893067542E+02  0.76069781673E+02  0.00000000000E+00 0. -1.
         -5    1    5    5    0  502 -0.14700268817E+02  0.97389908151E+02  0.26861830669E+03  0.28614467810E+03  0.47000000000E+01 0.  1.
         15    1    6    6    0    0 -0.38578307850E+02 -0.45098356095E+01  0.56012865778E+02  0.68185213320E+02  0.17770000000E+01 0. -1.
        -16    1    6    6    0    0  0.26428568142E+02 -0.32332733785E+02  0.13240496551E+03  0.13883425291E+03  0.00000000000E+00 0.  1.
<mgrwt>
<rscale>  2 0.18670122E+03</rscale>
<asrwt>0</asrwt>
<pdfrwt beam="1">  1       21 0.12704019E+00 0.18717723E+03</pdfrwt>
<pdfrwt beam="2">  1       21 0.66218533E-02 0.18717723E+03</pdfrwt>
<totfact> 0.76448791E+04</totfact>
</mgrwt>
</event>
<event>
12    2  0.4097182E-002  0.2103464E+03  0.7546771E-02  0.1141688E+00
         21   -1    0    0  503  502  0.00000000000E+00  0.00000000000E+00  0.10537811890E+04  0.10537811890E+04  0.00000000000E+00 0. -1.
         21   -1    0    0  501  503 -0.00000000000E+00 -0.00000000000E+00 -0.98693607932E+02  0.98693607932E+02  0.00000000000E+00 0.  1.
          6    2    1    2  501    0  0.10798152919E+03 -0.51072697014E+02  0.38271212920E+02  0.21183785472E+03  0.17071074930E+03 0.  0.
         24    2    3    3    0    0  0.64684002254E+02  0.24092744735E+02 -0.20146014316E+02  0.10715174336E+03  0.79442770072E+02 0.  0.
         -6    2    1    2    0  502 -0.10798152919E+03  0.51072697014E+02  0.91681636812E+03  0.94063694219E+03  0.17313917272E+03 0.  0.
        -24    2    5    5    0    0 -0.14188155234E+03  0.52967285909E+02  0.66637392267E+03  0.68785974875E+03  0.78491533753E+02 0.  0.
          5    1    3    3  501    0  0.43297526933E+02 -0.75165441750E+02  0.58417227236E+02  0.10468611135E+03  0.47000000000E+01 0. -1.
        -15    1    4    4    0    0  0.60679724178E+02  0.29151530775E+02  0.16995598131E+02  0.69453932629E+02  0.17770000000E+01 0.  1.
         16    1    4    4    0    0  0.40042780762E+01 -0.50587860392E+01 -0.37141612447E+02  0.37697810736E+02  0.00000000000E+00 0. -1.
         -5    1    5    5    0  502  0.33900023157E+02 -0.18945888950E+01  0.25044244545E+03  0.25277719344E+03  0.47000000000E+01 0.  1.
         15    1    6    6    0    0 -0.57978774576E+02 -0.23655796143E+01  0.37892891204E+03  0.38335024765E+03  0.17770000000E+01 0. -1.
        -16    1    6    6    0    0 -0.83902777768E+02  0.55332865524E+02  0.28744501063E+03  0.30450950110E+03  0.00000000000E+00 0.  1.
<mgrwt>
<rscale>  2 0.20984603E+03</rscale>
<asrwt>0</asrwt>
<pdfrwt beam="1">  1       21 0.16212018E+00 0.21034639E+03</pdfrwt>
<pdfrwt beam="2">  1       21 0.15183633E-01 0.21034639E+03</pdfrwt>
<totfact> 0.91931045E+03</totfact>
</mgrwt>
</event>
<event>
12    2  0.4097182E-002  0.2032426E+03  0.7546771E-02  0.1147905E+00
         21   -1    0    0  501  502  0.00000000000E+00  0.00000000000E+00  0.12514901099E+03  0.12514901099E+03  0.00000000000E+00 0. -1.
         21   -1    0    0  502  503 -0.00000000000E+00 -0.00000000000E+00 -0.36144519892E+03  0.36144519892E+03  0.00000000000E+00 0. -1.
         -6    2    1    2    0  503 -0.98372104084E+02 -0.15522564470E+02 -0.19607421628E+03  0.27940986077E+03  0.17235646532E+03 0.  0.
        -24    2    3    3    0    0 -0.77132515854E+01  0.43953667617E+02 -0.47950521679E+02  0.95782061618E+02  0.69882269936E+02 0.  0.
          6    2    1    2  501    0  0.98372104084E+02  0.15522564470E+02 -0.40221971649E+02  0.20718434913E+03  0.17717089674E+03 0.  0.
         24    2    5    5    0    0  0.10464371509E+03 -0.39487028451E+02  0.85491387236E+00  0.13808450151E+03  0.80975713365E+02 0.  0.
          5    1    5    5  501    0 -0.62716110036E+01  0.55009592921E+02 -0.41076885521E+02  0.69099847627E+02  0.47000000000E+01 0. -1.
        -15    1    6    6    0    0  0.13188600359E+01  0.18419577956E+02 -0.58428089866E+01  0.19450357059E+02  0.17770000000E+01 0.  1.
         16    1    6    6    0    0  0.10332485505E+03 -0.57906606407E+02  0.66977228590E+01  0.11863414445E+03  0.00000000000E+00 0. -1.
         -5    1    3    3    0  503 -0.90658852499E+02 -0.59476232087E+02 -0.14812369460E+03  0.18362779916E+03  0.47000000000E+01 0.  1.
         15    1    4    4    0    0 -0.38059834611E+02  0.16075525758E+02 -0.19599580288E+02  0.45763247431E+02  0.17770000000E+01 0. -1.
        -16    1    4    4    0    0  0.30346583026E+02  0.27878141860E+02 -0.28350941391E+02  0.50018814187E+02  0.00000000000E+00 0.  1.
<mgrwt>
<rscale>  2 0.20218870E+03</rscale>
<asrwt>0</asrwt>
<pdfrwt beam="1">  1       21 0.19253694E-01 0.20324258E+03</pdfrwt>
<pdfrwt beam="2">  1       21 0.55606953E-01 0.20324258E+03</pdfrwt>
<totfact> 0.75163771E+04</totfact>
</mgrwt>
</event>
<event>
12    2  0.4097182E-002  0.1753146E+03  0.7546771E-02  0.1172532E+00
         21   -1    0    0  503  502  0.00000000000E+00  0.00000000000E+00  0.36978045799E+03  0.36978045799E+03  0.00000000000E+00 0. -1.
         21   -1    0    0  501  503 -0.00000000000E+00 -0.00000000000E+00 -0.11744076710E+03  0.11744076710E+03  0.00000000000E+00 0. -1.
          6    2    1    2  501    0  0.14832242868E+02 -0.22933973163E+02  0.25817053069E+03  0.31180966430E+03  0.17270576505E+03 0.  0.
         24    2    3    3    0    0  0.58448430203E+02 -0.85050627000E+01  0.78109322119E+02  0.12592073486E+03  0.79160660572E+02 0.  0.
         -6    2    1    2    0  502 -0.14832242868E+02  0.22933973163E+02 -0.58308397943E+01  0.17541156079E+03  0.17317405814E+03 0.  0.
        -24    2    5    5    0    0 -0.28608901683E+02 -0.50036690211E+02 -0.22495472212E+02  0.99159911527E+02  0.77488722800E+02 0.  0.
          5    1    3    3  501    0 -0.43616187335E+02 -0.14428910463E+02  0.18006120857E+03  0.18588892943E+03  0.47000000000E+01 0. -1.
        -15    1    4    4    0    0  0.31218205355E+02  0.35218704150E+02  0.40900940334E+02  0.62377705287E+02  0.17770000000E+01 0.  1.
         16    1    4    4    0    0  0.27230224848E+02 -0.43723766850E+02  0.37208381784E+02  0.63543029577E+02  0.00000000000E+00 0. -1.
         -5    1    5    5    0  502  0.13776658815E+02  0.72970663374E+02  0.16664632418E+02  0.76251649261E+02  0.47000000000E+01 0.  1.
         15    1    6    6    0    0 -0.33289299398E+02 -0.32892098044E+02 -0.48656817448E+02  0.67533037703E+02  0.17770000000E+01 0. -1.
        -16    1    6    6    0    0  0.46803977150E+01 -0.17144592168E+02  0.26161345236E+02  0.31626873825E+02  0.00000000000E+00 0.  1.
<mgrwt>
<rscale>  2 0.17519887E+03</rscale>
<asrwt>0</asrwt>
<pdfrwt beam="1">  1       21 0.56889301E-01 0.17531462E+03</pdfrwt>
<pdfrwt beam="2">  1       21 0.18067811E-01 0.17531462E+03</pdfrwt>
<totfact> 0.81534252E+04</totfact>
</mgrwt>
</event>
<event>
12    2  0.4097182E-002  0.1851036E+03  0.7546771E-02  0.1163172E+00
         21   -1    0    0  501  502  0.00000000000E+00  0.00000000000E+00  0.22370499095E+02  0.22370499095E+02  0.00000000000E+00 0. -1.
         21   -1    0    0  502  503 -0.00000000000E+00 -0.00000000000E+00 -0.20006590293E+04  0.20006590293E+04  0.00000000000E+00 0. -1.
         -6    2    1    2    0  503  0.50925014094E+02 -0.39828532422E+02 -0.14810203543E+04  0.14924270651E+04  0.17244589255E+03 0.  0.
        -24    2    3    3    0    0  0.53386399640E+02 -0.97823537995E+01 -0.14278276183E+04  0.14311050590E+04  0.80150984472E+02 0.  0.
          6    2    1    2  501    0 -0.50925014094E+02  0.39828532422E+02 -0.49726817593E+03  0.53060246328E+03  0.17344643608E+03 0.  0.
         24    2    5    5    0    0 -0.15196986806E+02  0.91980708578E+02 -0.30947215044E+03  0.33239605924E+03  0.77606244227E+02 0.  0.
          5    1    5    5  501    0 -0.35728027288E+02 -0.52152176156E+02 -0.18779602549E+03  0.19820640404E+03  0.47000000000E+01 0. -1.
        -15    1    6    6    0    0 -0.23950886040E+02  0.13466844107E+02 -0.16904133797E+03  0.17126918142E+03  0.17770000000E+01 0.  1.
         16    1    6    6    0    0  0.87538992349E+01  0.78513864471E+02 -0.14043081248E+03  0.16112687783E+03  0.00000000000E+00 0. -1.
         -5    1    3    3    0  503 -0.24613855462E+01 -0.30046178622E+02 -0.53192735960E+02  0.61322006063E+02  0.47000000000E+01 0.  1.
         15    1    4    4    0    0  0.40766854979E+01  0.31849195846E+02 -0.50702377309E+03  0.50804257188E+03  0.17770000000E+01 0. -1.
        -16    1    4    4    0    0  0.49309714142E+02 -0.41631549646E+02 -0.92080384521E+03  0.92306248715E+03  0.00000000000E+00 0.  1.
<mgrwt>
<rscale>  2 0.18486883E+03</rscale>
<asrwt>0</asrwt>
<pdfrwt beam="1">  1       21 0.34416140E-02 0.18510358E+03</pdfrwt>
<pdfrwt beam="2">  1       21 0.30779381E+00 0.18510358E+03</pdfrwt>
<totfact> 0.15632790E+04</totfact>
</mgrwt>
</event>
<event>
12    2  0.4097182E-002  0.2157323E+03  0.7546771E-02  0.1137409E+00
         21   -1    0    0  503  502  0.00000000000E+00  0.00000000000E+00  0.82337465738E+03  0.82337465738E+03  0.00000000000E+00 0.  1.
         21   -1    0    0  501  503 -0.00000000000E+00 -0.00000000000E+00 -0.98574877511E+02  0.98574877511E+02  0.00000000000E+00 0.  1.
          6    2    1    2  501    0  0.27985286815E+02  0.12287959072E+03  0.59087148444E+02  0.22215402837E+03  0.17314315209E+03 0.  0.
         24    2    3    3    0    0  0.10777126596E+02  0.11393628328E+03  0.10320775153E+03  0.17373067509E+03  0.80205264086E+02 0.  0.
         -6    2    1    2    0  502 -0.27985286815E+02 -0.12287959072E+03  0.66571263143E+03  0.69979550652E+03  0.17509389826E+03 0.  0.
        -24    2    5    5    0    0 -0.80265339496E+02 -0.11586461298E+03  0.53001450962E+03  0.55412984796E+03  0.79229885332E+02 0.  0.
          5    1    3    3  501    0  0.17208160219E+02  0.89433074434E+01 -0.44120603087E+02  0.48423353280E+02  0.47000000000E+01 0. -1.
        -15    1    4    4    0    0 -0.11131120765E+02  0.88545411283E+02  0.31651675612E+02  0.94705744318E+02  0.17770000000E+01 0.  1.
         16    1    4    4    0    0  0.21908247361E+02  0.25390871997E+02  0.71556075919E+02  0.79024930776E+02  0.00000000000E+00 0. -1.
         -5    1    5    5    0  502  0.52280052680E+02 -0.70149777452E+01  0.13569812181E+03  0.14566565856E+03  0.47000000000E+01 0.  1.
         15    1    6    6    0    0 -0.20381238983E+02  0.93361604705E+01  0.88748627411E+02  0.91553456467E+02  0.17770000000E+01 0. -1.
        -16    1    6    6    0    0 -0.59884100513E+02 -0.12520077345E+03  0.44126588221E+03  0.46257639149E+03  0.00000000000E+00 0.  1.
<mgrwt>
<rscale>  2 0.21533619E+03</rscale>
<asrwt>0</asrwt>
<pdfrwt beam="1">  1       21 0.12667302E+00 0.21573234E+03</pdfrwt>
<pdfrwt beam="2">  1       21 0.15165366E-01 0.21573234E+03</pdfrwt>
<totfact> 0.17479109E+04</totfact>
</mgrwt>
</event>
<event>
12    2  0.4097182E-002  0.2245957E+03  0.7546771E-02  0.1130842E+00
         21   -1    0    0  501  502  0.00000000000E+00  0.00000000000E+00  0.74299693363E+03  0.74299693363E+03  0.00000000000E+00 0. -1.
         21   -1    0    0  502  503 -0.00000000000E+00 -0.00000000000E+00 -0.59629662297E+03  0.59629662297E+03  0.00000000000E+00 0.  1.
         -6    2    1    2    0  503  0.14079059703E+03  0.16532827426E+02 -0.55732317038E+03  0.60087632202E+03  0.17420651974E+03 0.  0.
        -24    2    3    3    0    0  0.12371679961E+03  0.66901318011E+02 -0.33208975128E+03  0.36940130720E+03  0.79950547214E+02 0.  0.
          6    2    1    2  501    0 -0.14079059703E+03 -0.16532827426E+02  0.70402348104E+03  0.73841723459E+03  0.17180111726E+03 0.  0.
         24    2    5    5    0    0 -0.10342075363E+03  0.33951531887E+02  0.61749131990E+03  0.63138882415E+03  0.74214272932E+02 0.  0.
          5    1    5    5  501    0 -0.37369843393E+02 -0.50484359313E+02  0.86532161139E+02  0.10702841044E+03  0.47000000000E+01 0. -1.
        -15    1    6    6    0    0  0.66044579349E+01 -0.15135345090E+01  0.64937963904E+01  0.95517941710E+01  0.17770000000E+01 0.  1.
         16    1    6    6    0    0 -0.11002521157E+03  0.35465066396E+02  0.61099752351E+03  0.62183702998E+03  0.00000000000E+00 0. -1.
         -5    1    3    3    0  503  0.17073797417E+02 -0.50368490585E+02 -0.22523341910E+03  0.23147501481E+03  0.47000000000E+01 0.  1.
         15    1    4    4    0    0  0.93934249917E+01 -0.79804352487E+01 -0.94444405862E+02  0.95261888011E+02  0.17770000000E+01 0. -1.
        -16    1    4    4    0    0  0.11432337462E+03  0.74881753259E+02 -0.23764534542E+03  0.27413941919E+03  0.00000000000E+00 0.  1.
<mgrwt>
<rscale>  2 0.22412913E+03</rscale>
<asrwt>0</asrwt>
<pdfrwt beam="1">  1       21 0.11430722E+00 0.22459572E+03</pdfrwt>
<pdfrwt beam="2">  1       21 0.91737943E-01 0.22459572E+03</pdfrwt>
<totfact> 0.57853051E+02</totfact>
</mgrwt>
</event>
<event>
12    2  0.4097182E-002  0.2158728E+03  0.7546771E-02  0.1137174E+00
         21   -1    0    0  503  502  0.00000000000E+00  0.00000000000E+00  0.12766955885E+04  0.12766955885E+04  0.00000000000E+00 0. -1.
         21   -1    0    0  501  503 -0.00000000000E+00 -0.00000000000E+00 -0.49117985835E+02  0.49117985835E+02  0.00000000000E+00 0. -1.
          6    2    1    2  501    0 -0.36863465019E+02  0.12127544348E+03  0.27477872900E+03  0.34886589589E+03  0.17360131095E+03 0.  0.
         24    2    3    3    0    0 -0.45340843005E+01  0.11881777461E+03  0.28048787596E+03  0.31561062033E+03  0.82452371833E+02 0.  0.
         -6    2    1    2    0  502  0.36863465019E+02 -0.12127544348E+03  0.95279887363E+03  0.97694767841E+03  0.17474102126E+03 0.  0.
        -24    2    5    5    0    0  0.99268933922E+01 -0.23130815997E+02  0.68873047828E+03  0.69390677285E+03  0.80767319124E+02 0.  0.
          5    1    3    3  501    0 -0.32329380719E+02  0.24576688660E+01 -0.57091469570E+01  0.33255275565E+02  0.47000000000E+01 0. -1.
        -15    1    4    4    0    0  0.74756894335E+01  0.15757507598E+02  0.13929234822E+03  0.14039124254E+03  0.17770000000E+01 0.  1.
         16    1    4    4    0    0 -0.12009773734E+02  0.10306026701E+03  0.14119552774E+03  0.17521937779E+03  0.00000000000E+00 0. -1.
         -5    1    5    5    0  502  0.26936571627E+02 -0.98144627479E+02  0.26406839535E+03  0.28304090556E+03  0.47000000000E+01 0.  1.
         15    1    6    6    0    0  0.43700981847E+02 -0.24445537340E+02  0.45370982878E+03  0.45646810028E+03  0.17770000000E+01 0. -1.
        -16    1    6    6    0    0 -0.33774088455E+02  0.13147213427E+01  0.23502064950E+03  0.23743867257E+03  0.00000000000E+00 0.  1.
<mgrwt>
<rscale>  2 0.21564207E+03</rscale>
<asrwt>0</asrwt>
<pdfrwt beam="1">  1       21 0.19641468E+00 0.21587282E+03</pdfrwt>
<pdfrwt beam="2">  1       21 0.75566142E-02 0.21587282E+03</pdfrwt>
<totfact> 0.18443791E+04</totfact>
</mgrwt>
</event>
<event>
12    2  0.4097182E-002  0.2354947E+03  0.7546771E-02  0.1122968E+00
         21   -1    0    0  501  502  0.00000000000E+00  0.00000000000E+00  0.14293808808E+03  0.14293808808E+03  0.00000000000E+00 0. -1.
         21   -1    0    0  502  503 -0.00000000000E+00 -0.00000000000E+00 -0.56627448895E+03  0.56627448895E+03  0.00000000000E+00 0.  1.
         -6    2    1    2    0  503 -0.84996099253E+02  0.13365551409E+03 -0.41113112669E+03  0.47340180793E+03  0.17318295265E+03 0.  0.
        -24    2    3    3    0    0 -0.70425854695E+02  0.26621718476E+02 -0.13185182316E+03  0.17392301936E+03  0.84828040683E+02 0.  0.
          6    2    1    2  501    0  0.84996099253E+02 -0.13365551409E+03 -0.12205274184E+02  0.23581076910E+03  0.17426880607E+03 0.  0.
         24    2    5    5    0    0 -0.18850168187E+02 -0.82063697939E+02 -0.24616666934E+02  0.11909789310E+03  0.80551526919E+02 0.  0.
          5    1    5    5  501    0  0.10384626744E+03 -0.51591816155E+02  0.12411392750E+02  0.11671287601E+03  0.47000000000E+01 0. -1.
        -15    1    6    6    0    0 -0.38310072850E+02 -0.87245073881E+02 -0.13975923470E+02  0.96321590332E+02  0.17770000000E+01 0.  1.
         16    1    6    6    0    0  0.19459904663E+02  0.51813759422E+01 -0.10640743464E+02  0.22776302764E+02  0.00000000000E+00 0. -1.
         -5    1    3    3    0  503 -0.14570244558E+02  0.10703379562E+03 -0.27927930352E+03  0.29947878858E+03  0.47000000000E+01 0.  1.
         15    1    4    4    0    0 -0.55543798120E+02  0.33267016207E+02 -0.14104893545E+03  0.15520878776E+03  0.17770000000E+01 0. -1.
        -16    1    4    4    0    0 -0.14882056575E+02 -0.66452977311E+01  0.91971122869E+01  0.18714231597E+02  0.00000000000E+00 0.  1.
<mgrwt>
<rscale>  2 0.23529383E+03</rscale>
<asrwt>0</asrwt>
<pdfrwt beam="1">  1       21 0.21990475E-01 0.23549469E+03</pdfrwt>
<pdfrwt beam="2">  1       21 0.87119152E-01 0.23549469E+03</pdfrwt>
<totfact> 0.21352323E+04</totfact>
</mgrwt>
</event>
<event>
12    2  0.4097182E-002  0.1820937E+03  0.7546771E-02  0.1166315E+00
         21   -1    0    0  503  502  0.00000000000E+00  0.00000000000E+00  0.73970352135E+02  0.73970352135E+02  0.00000000000E+00 0.  1.
         21   -1    0    0  501  503 -0.00000000000E+00 -0.00000000000E+00 -0.47908532393E+03  0.47908532393E+03  0.00000000000E+00 0.  1.
          6    2    1    2  501    0 -0.46330511462E+02 -0.24857375707E+02 -0.27741311985E+03  0.33064645241E+03  0.17205996631E+03 0.  0.
         24    2    3    3    0    0  0.22110530738E+02 -0.39439587783E+02 -0.83629821438E+02  0.12456182438E+03  0.80481950806E+02 0.  0.
         -6    2    1    2    0  502  0.46330511462E+02  0.24857375707E+02 -0.12770185194E+03  0.22240922365E+03  0.17433787413E+03 0.  0.
        -24    2    5    5    0    0  0.57218825602E+02  0.77874404644E+02 -0.83475123293E+02  0.15235599911E+03  0.83101367935E+02 0.  0.
          5    1    3    3  501    0 -0.68441042199E+02  0.14582212077E+02 -0.19378329841E+03  0.20608462803E+03  0.47000000000E+01 0. -1.
        -15    1    4    4    0    0  0.35551822717E+01 -0.43025410025E+01  0.16140189583E+02  0.17170166827E+02  0.17770000000E+01 0.  1.
         16    1    4    4    0    0  0.18555348466E+02 -0.35137046781E+02 -0.99770011021E+02  0.10739165755E+03  0.00000000000E+00 0. -1.
         -5    1    5    5    0  502 -0.10888314140E+02 -0.53017028938E+02 -0.44226728648E+02  0.70053224544E+02  0.47000000000E+01 0.  1.
         15    1    6    6    0    0  0.57307787293E+02  0.57039222828E+02 -0.16933979472E+02  0.82629128127E+02  0.17770000000E+01 0. -1.
        -16    1    6    6    0    0 -0.88961690728E-01  0.20835181817E+02 -0.66541143821E+02  0.69726870979E+02  0.00000000000E+00 0.  1.
<mgrwt>
<rscale>  2 0.18154627E+03</rscale>
<asrwt>0</asrwt>
<pdfrwt beam="1">  1       21 0.11380055E-01 0.18209366E+03</pdfrwt>
<pdfrwt beam="2">  1       21 0.73705431E-01 0.18209366E+03</pdfrwt>
<totfact> 0.10705740E+05</totfact>
</mgrwt>
</event>
<event>
12    2  0.4097182E-002  0.2241834E+03  0.7546771E-02  0.1130943E+00
         21   -1    0    0  503  502  0.00000000000E+00  0.00000000000E+00  0.35509496989E+03  0.35509496989E+03  0.00000000000E+00 0. -1.
         21   -1    0    0  501  503 -0.00000000000E+00 -0.00000000000E+00 -0.18663147122E+03  0.18663147122E+03  0.00000000000E+00 0. -1.
          6    2    1    2  501    0  0.13856386899E+03  0.25044817783E+02 -0.49745521182E+02  0.22887925252E+03  0.17344712932E+03 0.  0.
         24    2    3    3    0    0  0.24072475872E+02  0.10504318671E+02 -0.72526356260E+02  0.11114751653E+03  0.80024204289E+02 0.  0.
         -6    2    1    2    0  502 -0.13856386899E+03 -0.25044817783E+02  0.21820901986E+03  0.31284718859E+03  0.17444482902E+03 0.  0.
        -24    2    5    5    0    0 -0.10411698897E+03  0.40280983062E+02  0.90176259572E+02  0.16496708342E+03  0.81360161207E+02 0.  0.
          5    1    3    3  501    0  0.11449139312E+03  0.14540499112E+02  0.22780835078E+02  0.11773173599E+03  0.47000000000E+01 0. -1.
        -15    1    4    4    0    0  0.19115427927E+02 -0.33988932622E+02 -0.39334952740E+02  0.55416995242E+02  0.17770000000E+01 0.  1.
         16    1    4    4    0    0  0.49570479443E+01  0.44493251292E+02 -0.33191403519E+02  0.55730521283E+02  0.00000000000E+00 0. -1.
         -5    1    5    5    0  502 -0.34446880022E+02 -0.65325800845E+02  0.12803276028E+03  0.14788010517E+03  0.47000000000E+01 0.  1.
         15    1    6    6    0    0 -0.44353101505E+02  0.22970567660E+02  0.89769787811E+02  0.10274539953E+03  0.17770000000E+01 0. -1.
        -16    1    6    6    0    0 -0.59763887465E+02  0.17310415402E+02  0.40647176054E+00  0.62221683886E+02  0.00000000000E+00 0.  1.
<mgrwt>
<rscale>  2 0.22398926E+03</rscale>
<asrwt>0</asrwt>
<pdfrwt beam="1">  1       21 0.54629995E-01 0.22418338E+03</pdfrwt>
<pdfrwt beam="2">  1       21 0.28712534E-01 0.22418338E+03</pdfrwt>
<totfact> 0.36133527E+04</totfact>
</mgrwt>
</event>
<event>
12    2  0.4097182E-002  0.1966432E+03  0.7546771E-02  0.1152611E+00
         21   -1    0    0  503  502  0.00000000000E+00  0.00000000000E+00  0.62333578161E+03  0.62333578161E+03  0.00000000000E+00 0. -1.
         21   -1    0    0  501  503 -0.00000000000E+00 -0.00000000000E+00 -0.65082314841E+02  0.65082314841E+02  0.00000000000E+00 0.  1.
          6    2    1    2  501    0  0.93052465545E+02  0.29866537507E+02  0.20451048551E+03  0.28371300272E+03  0.17063926225E+03 0.  0.
         24    2    3    3    0    0  0.10171946810E+03  0.75323444234E+02  0.16206766022E+03  0.22074530686E+03  0.80262647412E+02 0.  0.
         -6    2    1    2    0  502 -0.93052465545E+02 -0.29866537507E+02  0.35374298125E+03  0.40470509373E+03  0.17059116243E+03 0.  0.
        -24    2    5    5    0    0 -0.55755373822E+02  0.37497235828E+01  0.33731120807E+03  0.35166530460E+03  0.82261249899E+02 0.  0.
          5    1    3    3  501    0 -0.86670025593E+01 -0.45456906727E+02  0.42442825294E+02  0.62967695857E+02  0.47000000000E+01 0. -1.
        -15    1    4    4    0    0 -0.61734392207E+01 -0.48876491489E+01  0.34432949811E+02  0.35366456251E+02  0.17770000000E+01 0.  1.
         16    1    4    4    0    0  0.10789290732E+03  0.80211093383E+02  0.12763471041E+03  0.18537885061E+03  0.00000000000E+00 0. -1.
         -5    1    5    5    0  502 -0.37297091723E+02 -0.33616261090E+02  0.16431773182E+02  0.53039789126E+02  0.47000000000E+01 0.  1.
         15    1    6    6    0    0  0.62030048385E+01 -0.20723424875E+02  0.17311009764E+03  0.17446547293E+03  0.17770000000E+01 0. -1.
        -16    1    6    6    0    0 -0.61958378661E+02  0.24473148458E+02  0.16420111043E+03  0.17719983168E+03  0.00000000000E+00 0.  1.
<mgrwt>
<rscale>  2 0.19663272E+03</rscale>
<asrwt>0</asrwt>
<pdfrwt beam="1">  1       21 0.95897808E-01 0.19664315E+03</pdfrwt>
<pdfrwt beam="2">  1       21 0.10012664E-01 0.19664315E+03</pdfrwt>
<totfact> 0.73230631E+04</totfact>
</mgrwt>
</event>
<event>
12    2  0.4097182E-002  0.1907375E+03  0.7546771E-02  0.1160602E+00
         21   -1    0    0  503  502  0.00000000000E+00  0.00000000000E+00  0.10452505122E+04  0.10452505122E+04  0.00000000000E+00 0.  1.
         21   -1    0    0  501  503 -0.00000000000E+00 -0.00000000000E+00 -0.36188340841E+02  0.36188340841E+02  0.00000000000E+00 0.  1.
          6    2    1    2  501    0 -0.43967699185E+02 -0.88570272440E+01  0.65894646772E+03  0.68273870881E+03  0.17294534306E+03 0.  0.
         24    2    3    3    0    0 -0.88631973125E+02 -0.38789837647E+02  0.46101756848E+03  0.47758313453E+03  0.78664946278E+02 0.  0.
         -6    2    1    2    0  502  0.43967699185E+02  0.88570272440E+01  0.35011570364E+03  0.39870014423E+03  0.18538930274E+03 0.  0.
        -24    2    5    5    0    0 -0.13013508469E+02 -0.59212518479E+02  0.17104422391E+03  0.19877764441E+03  0.81123064774E+02 0.  0.
          5    1    3    3  501    0  0.44664273940E+02  0.29932810403E+02  0.19792889924E+03  0.20515557428E+03  0.47000000000E+01 0. -1.
        -15    1    4    4    0    0 -0.25193698667E+02 -0.26256802675E+02  0.32434798160E+03  0.32638767292E+03  0.17770000000E+01 0.  1.
         16    1    4    4    0    0 -0.63438274458E+02 -0.12533034972E+02  0.13666958689E+03  0.15119546161E+03  0.00000000000E+00 0. -1.
         -5    1    5    5    0  502  0.56981207655E+02  0.68069545723E+02  0.17907147973E+03  0.19992249982E+03  0.47000000000E+01 0.  1.
         15    1    6    6    0    0 -0.17687750188E+02 -0.52833608737E+02  0.42774139518E+02  0.70264012549E+02  0.17770000000E+01 0. -1.
        -16    1    6    6    0    0  0.46742417193E+01 -0.63789097416E+01  0.12827008439E+03  0.12851363187E+03  0.00000000000E+00 0.  1.
<mgrwt>
<rscale>  2 0.18764536E+03</rscale>
<asrwt>0</asrwt>
<pdfrwt beam="1">  1       21 0.16080775E+00 0.19073751E+03</pdfrwt>
<pdfrwt beam="2">  1       21 0.55674379E-02 0.19073751E+03</pdfrwt>
<totfact> 0.55694731E+04</totfact>
</mgrwt>
</event>
<event>
12    2  0.4097182E-002  0.1799614E+03  0.7546771E-02  0.1168137E+00
         21   -1    0    0  503  502  0.00000000000E+00  0.00000000000E+00  0.20500635115E+02  0.20500635115E+02  0.00000000000E+00 0.  1.
         21   -1    0    0  501  503 -0.00000000000E+00 -0.00000000000E+00 -0.21927230009E+04  0.21927230009E+04  0.00000000000E+00 0.  1.
          6    2    1    2  501    0 -0.36975172891E+02  0.35257687658E+02 -0.16736330757E+04  0.16831506521E+04  0.17128390987E+03 0.  0.
         24    2    3    3    0    0  0.71558998401E+01  0.80639610611E+02 -0.12645750202E+04  0.12691969672E+04  0.71812297855E+02 0.  0.
         -6    2    1    2    0  502  0.36975172891E+02 -0.35257687658E+02 -0.49858929015E+03  0.53007298394E+03  0.17255671560E+03 0.  0.
        -24    2    5    5    0    0 -0.16339980242E+02 -0.50911047754E+02 -0.43503127054E+03  0.44551977529E+03  0.79854455661E+02 0.  0.
          5    1    3    3  501    0 -0.44131072731E+02 -0.45381922953E+02 -0.40905805548E+03  0.41395368493E+03  0.47000000000E+01 0. -1.
        -15    1    4    4    0    0  0.16752514717E+02 -0.76613483432E+01 -0.28655785475E+03  0.28715484474E+03  0.17770000000E+01 0.  1.
         16    1    4    4    0    0 -0.95966148769E+01  0.88300958955E+02 -0.97801716544E+03  0.98204212245E+03  0.00000000000E+00 0. -1.
         -5    1    5    5    0  502  0.53315153133E+02  0.15653360096E+02 -0.63558019607E+02  0.84553208645E+02  0.47000000000E+01 0.  1.
         15    1    6    6    0    0  0.24989624717E+02 -0.13740913251E+02 -0.60760304892E+02  0.67143625311E+02  0.17770000000E+01 0. -1.
        -16    1    6    6    0    0 -0.41329604958E+02 -0.37170134503E+02 -0.37427096565E+03  0.37837614998E+03  0.00000000000E+00 0.  1.
<mgrwt>
<rscale>  2 0.17965556E+03</rscale>
<asrwt>0</asrwt>
<pdfrwt beam="1">  1       21 0.31539457E-02 0.17996135E+03</pdfrwt>
<pdfrwt beam="2">  1       21 0.33734180E+00 0.17996135E+03</pdfrwt>
<totfact> 0.12268529E+04</totfact>
</mgrwt>
</event>
<event>
12    2  0.4097182E-002  0.1843989E+03  0.7546771E-02  0.1164134E+00
         21   -1    0    0  503  502  0.00000000000E+00  0.00000000000E+00  0.96086630562E+03  0.96086630562E+03  0.00000000000E+00 0. -1.
         21   -1    0    0  501  503 -0.00000000000E+00 -0.00000000000E+00 -0.18701749311E+03  0.18701749311E+03  0.00000000000E+00 0. -1.
          6    2    1    2  501    0 -0.40031898452E+02 -0.45152979425E+02 -0.13015378872E+03  0.22570544493E+03  0.17424578821E+03 0.  0.
         24    2    3    3    0    0 -0.54822198381E+02  0.17549412350E+02 -0.12514311777E+03  0.16091702212E+03  0.83186734366E+02 0.  0.
         -6    2    1    2    0  502  0.40031898452E+02  0.45152979425E+02  0.90400260123E+03  0.92217835380E+03  0.17190366124E+03 0.  0.
        -24    2    5    5    0    0  0.17346599485E+02  0.40701985139E+02  0.89014211304E+03  0.89481711713E+03  0.79919557002E+02 0.  0.
          5    1    3    3  501    0  0.14790299929E+02 -0.62702391775E+02 -0.50106709462E+01  0.64788422806E+02  0.47000000000E+01 0. -1.
        -15    1    4    4    0    0 -0.64131163049E+02  0.10127557961E+02 -0.42951440658E+02  0.77867563773E+02  0.17770000000E+01 0.  1.
         16    1    4    4    0    0  0.93089646677E+01  0.74218543890E+01 -0.82191677113E+02  0.83049458351E+02  0.00000000000E+00 0. -1.
         -5    1    5    5    0  502  0.22685298967E+02  0.44509942863E+01  0.13860488186E+02  0.27361236671E+02  0.47000000000E+01 0.  1.
         15    1    6    6    0    0  0.45992344489E+02  0.65967304330E+01  0.41757881118E+03  0.42015953384E+03  0.17770000000E+01 0. -1.
        -16    1    6    6    0    0 -0.28645745004E+02  0.34105254706E+02  0.47256330187E+03  0.47465758329E+03  0.00000000000E+00 0.  1.
<mgrwt>
<rscale>  2 0.18384347E+03</rscale>
<asrwt>0</asrwt>
<pdfrwt beam="1">  1       21 0.14782558E+00 0.18439886E+03</pdfrwt>
<pdfrwt beam="2">  1       21 0.28771923E-01 0.18439886E+03</pdfrwt>
<totfact> 0.36164600E+03</totfact>
</mgrwt>
</event>
<event>
12    2  0.4097182E-002  0.1959268E+03  0.7546771E-02  0.1153281E+00
         21   -1    0    0  503  502  0.00000000000E+00  0.00000000000E+00  0.61620489721E+02  0.61620489721E+02  0.00000000000E+00 0. -1.
         21   -1    0    0  501  503 -0.00000000000E+00 -0.00000000000E+00 -0.11145753227E+04  0.11145753227E+04  0.00000000000E+00 0. -1.
          6    2    1    2  501    0 -0.91577689719E+02 -0.58761295627E+00 -0.13535001534E+03  0.23790698372E+03  0.17289675447E+03 0.  0.
         24    2    3    3    0    0 -0.27505837030E+02  0.49468618628E+02 -0.11816924640E+03  0.15467179015E+03  0.82192922891E+02 0.  0.
         -6    2    1    2    0  502  0.91577689719E+02  0.58761295627E+00 -0.91760481769E+03  0.93828882874E+03  0.17320654192E+03 0.  0.
        -24    2    5    5    0    0  0.10706798879E+03 -0.42653559885E+02 -0.78972555550E+03  0.80232948154E+03  0.82360570353E+02 0.  0.
          5    1    3    3  501    0 -0.64071852689E+02 -0.50056231584E+02 -0.17180768933E+02  0.83235193569E+02  0.47000000000E+01 0. -1.
        -15    1    4    4    0    0  0.24120414492E+02  0.62724695767E+01 -0.92752443069E+01  0.26651944691E+02  0.17770000000E+01 0.  1.
         16    1    4    4    0    0 -0.51626251522E+02  0.43196149051E+02 -0.10889400210E+03  0.12801984546E+03  0.00000000000E+00 0. -1.
         -5    1    5    5    0  502 -0.15490299074E+02  0.43241172841E+02 -0.12787926219E+03  0.13595934720E+03  0.47000000000E+01 0.  1.
         15    1    6    6    0    0  0.61291427817E+02 -0.16983734281E+02 -0.19122545368E+03  0.20153267283E+03  0.17770000000E+01 0. -1.
        -16    1    6    6    0    0  0.45776560976E+02 -0.25669825604E+02 -0.59850010182E+03  0.60079680871E+03  0.00000000000E+00 0.  1.
<mgrwt>
<rscale>  2 0.19585835E+03</rscale>
<asrwt>0</asrwt>
<pdfrwt beam="1">  1       21 0.94800760E-02 0.19592684E+03</pdfrwt>
<pdfrwt beam="2">  1       21 0.17147311E+00 0.19592684E+03</pdfrwt>
<totfact> 0.18533854E+04</totfact>
</mgrwt>
</event>
<event>
12    2  0.4097182E-002  0.1804466E+03  0.7546771E-02  0.1167383E+00
         21   -1    0    0  503  502  0.00000000000E+00  0.00000000000E+00  0.96951164566E+02  0.96951164566E+02  0.00000000000E+00 0. -1.
         21   -1    0    0  501  503 -0.00000000000E+00 -0.00000000000E+00 -0.37051705158E+03  0.37051705158E+03  0.00000000000E+00 0. -1.
          6    2    1    2  501    0 -0.42380796206E+02  0.13511367992E+02 -0.20838748173E+03  0.27565615994E+03  0.17487792033E+03 0.  0.
         24    2    3    3    0    0 -0.54682354927E+02 -0.53869978637E+02 -0.12134420220E+03  0.16479500024E+03  0.80875473140E+02 0.  0.
         -6    2    1    2    0  502  0.42380796206E+02 -0.13511367992E+02 -0.65178405292E+02  0.19181205621E+03  0.17482834850E+03 0.  0.
        -24    2    5    5    0    0  0.53464195873E+02 -0.41817521542E+02  0.14481177517E+02  0.10641990663E+03  0.80674448721E+02 0.  0.
          5    1    3    3  501    0  0.12301558721E+02  0.67381346629E+02 -0.87043279522E+02  0.11086115970E+03  0.47000000000E+01 0. -1.
        -15    1    4    4    0    0 -0.73781401036E+02 -0.29616679118E+02 -0.76451531197E+02  0.11031245248E+03  0.17770000000E+01 0.  1.
         16    1    4    4    0    0  0.19099046109E+02 -0.24253299519E+02 -0.44892671007E+02  0.54482547756E+02  0.00000000000E+00 0. -1.
         -5    1    5    5    0  502 -0.11083399667E+02  0.28306153549E+02 -0.79659582809E+02  0.85392149582E+02  0.47000000000E+01 0.  1.
         15    1    6    6    0    0  0.31460581884E+02 -0.56353625832E+02 -0.15592609979E+02  0.66421281017E+02  0.17770000000E+01 0. -1.
        -16    1    6    6    0    0  0.22003613989E+02  0.14536104290E+02  0.30073787497E+02  0.39998625612E+02  0.00000000000E+00 0.  1.
<mgrwt>
<rscale>  2 0.18043459E+03</rscale>
<asrwt>0</asrwt>
<pdfrwt beam="1">  1       21 0.14915564E-01 0.18044660E+03</pdfrwt>
<pdfrwt beam="2">  1       21 0.57002623E-01 0.18044660E+03</pdfrwt>
<totfact> 0.11509952E+05</totfact>
</mgrwt>
</event>
<event>
12    2  0.4097182E-002  0.2067896E+03  0.7546771E-02  0.1144471E+00
         21   -1    0    0  503  502  0.00000000000E+00  0.00000000000E+00  0.34578384629E+02  0.34578384629E+02  0.00000000000E+00 0. -1.
         21   -1    0    0  501  503 -0.00000000000E+00 -0.00000000000E+00 -0.12267405793E+04  0.12267405793E+04  0.00000000000E+00 0.  1.
          6    2    1    2  501    0  0.10830881728E+03 -0.17707740423E+02 -0.59410783449E+03  0.62852282088E+03  0.17329874028E+03 0.  0.
         24    2    3    3    0    0  0.73064320763E+02 -0.18271278351E+02 -0.57960252047E+03  0.59011727122E+03  0.81406863826E+02 0.  0.
         -6    2    1    2    0  502 -0.10830881728E+03  0.17707740423E+02 -0.59805436014E+03  0.63279614302E+03  0.17526430602E+03 0.  0.
        -24    2    5    5    0    0 -0.66380115153E+02 -0.57867824770E+02 -0.36086792444E+03  0.38031014857E+03  0.81579074388E+02 0.  0.
          5    1    3    3  501    0  0.35244496513E+02  0.56353792808E+00 -0.14505314027E+02  0.38405549657E+02  0.47000000000E+01 0. -1.
        -15    1    4    4    0    0 -0.15235647728E+01 -0.21011385383E+02 -0.29936234422E+03  0.30010793130E+03  0.17770000000E+01 0.  1.
         16    1    4    4    0    0  0.74587885536E+02  0.27401070314E+01 -0.28024017625E+03  0.29000933992E+03  0.00000000000E+00 0. -1.
         -5    1    5    5    0  502 -0.41928702123E+02  0.75575565193E+02 -0.23718643570E+03  0.25248599445E+03  0.47000000000E+01 0.  1.
         15    1    6    6    0    0 -0.17731973557E+02 -0.62919450824E+02 -0.14648989971E+03  0.16042359124E+03  0.17770000000E+01 0. -1.
        -16    1    6    6    0    0 -0.48648141596E+02  0.50516260542E+01 -0.21437802473E+03  0.21988655733E+03  0.00000000000E+00 0.  1.
<mgrwt>
<rscale>  2 0.20637253E+03</rscale>
<asrwt>0</asrwt>
<pdfrwt beam="1">  1       21 0.53197521E-02 0.20678961E+03</pdfrwt>
<pdfrwt beam="2">  1       21 0.18872930E+00 0.20678961E+03</pdfrwt>
<totfact> 0.38142164E+04</totfact>
</mgrwt>
</event>
<event>
12    2  0.4097182E-002  0.2119947E+03  0.7546771E-02  0.1140027E+00
         21   -1    0    0  501  502  0.00000000000E+00  0.00000000000E+00  0.12173700736E+03  0.12173700736E+03  0.00000000000E+00 0. -1.
         21   -1    0    0  502  503 -0.00000000000E+00 -0.00000000000E+00 -0.41288472317E+03  0.41288472317E+03  0.00000000000E+00 0.  1.
         -6    2    1    2    0  503  0.69636088545E+01  0.12292768207E+03 -0.23287252029E+03  0.31491483281E+03  0.17257472106E+03 0.  0.
        -24    2    3    3    0    0 -0.32400381273E+02  0.11226161323E+03 -0.23230458121E+03  0.27385753993E+03  0.85907387438E+02 0.  0.
          6    2    1    2  501    0 -0.69636088545E+01 -0.12292768207E+03 -0.58275195518E+02  0.21970689772E+03  0.17238159887E+03 0.  0.
         24    2    5    5    0    0  0.42001634465E+02 -0.52492212284E+02 -0.79948694594E+02  0.13110339317E+03  0.79225856169E+02 0.  0.
          5    1    5    5  501    0 -0.48965243320E+02 -0.70435469782E+02  0.21673499075E+02  0.88603504552E+02  0.47000000000E+01 0. -1.
        -15    1    6    6    0    0 -0.16642968479E+02 -0.20442052622E+02 -0.52659188357E+02  0.58915310087E+02  0.17770000000E+01 0.  1.
         16    1    6    6    0    0  0.58644602944E+02 -0.32050159662E+02 -0.27289506237E+02  0.72188083085E+02  0.00000000000E+00 0. -1.
         -5    1    3    3    0  503  0.39363990127E+02  0.10666068833E+02 -0.56793907852E+00  0.41057292871E+02  0.47000000000E+01 0.  1.
         15    1    4    4    0    0 -0.95180825861E+01 -0.61225858768E+01  0.72778162669E+00  0.11478995994E+02  0.17770000000E+01 0. -1.
        -16    1    4    4    0    0 -0.22882298687E+02  0.11838419911E+03 -0.23303236284E+03  0.26237854394E+03  0.00000000000E+00 0.  1.
<mgrwt>
<rscale>  2 0.21195537E+03</rscale>
<asrwt>0</asrwt>
<pdfrwt beam="1">  1       21 0.18728770E-01 0.21199467E+03</pdfrwt>
<pdfrwt beam="2">  1       21 0.63520726E-01 0.21199467E+03</pdfrwt>
<totfact> 0.59233011E+04</totfact>
</mgrwt>
</event>
<event>
12    2  0.4097182E-002  0.1895342E+03  0.7546771E-02  0.1159055E+00
         21   -1    0    0  503  502  0.00000000000E+00  0.00000000000E+00  0.13301433235E+04  0.13301433235E+04  0.00000000000E+00 0.  1.
         21   -1    0    0  501  503 -0.00000000000E+00 -0.00000000000E+00 -0.27223874431E+02  0.27223874431E+02  0.00000000000E+00 0.  1.
          6    2    1    2  501    0 -0.47938766518E+02  0.56960864640E+02  0.57597469862E+03  0.60612031008E+03  0.17347135615E+03 0.  0.
         24    2    3    3    0    0 -0.99025316814E+02  0.49177020257E+02  0.44553386491E+03  0.46573752996E+03  0.78655129153E+02 0.  0.
         -6    2    1    2    0  502  0.47938766518E+02 -0.56960864640E+02  0.72694475050E+03  0.75124688790E+03  0.17430017461E+03 0.  0.
        -24    2    5    5    0    0 -0.32713612291E+02  0.45387400010E+01  0.32262949205E+03  0.33437769284E+03  0.81411742010E+02 0.  0.
          5    1    3    3  501    0  0.51086550296E+02  0.77838443831E+01  0.13044083371E+03  0.14038278012E+03  0.47000000000E+01 0. -1.
        -15    1    4    4    0    0 -0.78140826789E+02  0.41949360051E+01  0.34329087103E+03  0.35210135779E+03  0.17770000000E+01 0.  1.
         16    1    4    4    0    0 -0.20884490025E+02  0.44982084252E+02  0.10224299388E+03  0.11363617216E+03  0.00000000000E+00 0. -1.
         -5    1    5    5    0  502  0.80652378809E+02 -0.61499604641E+02  0.40431525845E+03  0.41686919507E+03  0.47000000000E+01 0.  1.
         15    1    6    6    0    0 -0.24459926654E+02 -0.31714732357E+02  0.24552548742E+03  0.24877707886E+03  0.17770000000E+01 0. -1.
        -16    1    6    6    0    0 -0.82536856368E+01  0.36253472358E+02  0.77104004624E+02  0.85600613980E+02  0.00000000000E+00 0.  1.
<mgrwt>
<rscale>  2 0.18934344E+03</rscale>
<asrwt>0</asrwt>
<pdfrwt beam="1">  1       21 0.20463738E+00 0.18953421E+03</pdfrwt>
<pdfrwt beam="2">  1       21 0.41882894E-02 0.18953421E+03</pdfrwt>
<totfact> 0.45593196E+04</totfact>
</mgrwt>
</event>
<event>
12    2  0.4097182E-002  0.1795426E+03  0.7546771E-02  0.1168605E+00
         21   -1    0    0  503  502  0.00000000000E+00  0.00000000000E+00  0.68782919224E+03  0.68782919224E+03  0.00000000000E+00 0. -1.
         21   -1    0    0  501  503 -0.00000000000E+00 -0.00000000000E+00 -0.50250660307E+02  0.50250660307E+02  0.00000000000E+00 0.  1.
          6    2    1    2  501    0  0.81460633836E+01  0.42627503765E+02  0.21894294255E+03  0.28314583646E+03  0.17421851275E+03 0.  0.
         24    2    3    3    0    0  0.21469763806E+02 -0.42404892594E+02  0.11608789762E+03  0.14894717889E+03  0.80310251233E+02 0.  0.
         -6    2    1    2    0  502 -0.81460633836E+01 -0.42627503765E+02  0.41863558939E+03  0.45493401610E+03  0.17270130247E+03 0.  0.
        -24    2    5    5    0    0 -0.32468374545E+02 -0.39454939083E+02  0.41959451396E+03  0.42994102661E+03  0.78605614648E+02 0.  0.
          5    1    3    3  501    0 -0.13323700422E+02  0.85032396359E+02  0.10285504493E+03  0.13419865756E+03  0.47000000000E+01 0. -1.
        -15    1    4    4    0    0 -0.15258774618E+02 -0.12374416606E+02 -0.37326345568E+01  0.20076022487E+02  0.17770000000E+01 0.  1.
         16    1    4    4    0    0  0.36728538424E+02 -0.30030475988E+02  0.11982053218E+03  0.12887115641E+03  0.00000000000E+00 0. -1.
         -5    1    5    5    0  502  0.24322311161E+02 -0.31725646822E+01 -0.95892457655E+00  0.24992989482E+02  0.47000000000E+01 0.  1.
         15    1    6    6    0    0  0.12765558765E+02  0.14094037810E+02  0.15678225453E+03  0.15794123736E+03  0.17770000000E+01 0. -1.
        -16    1    6    6    0    0 -0.45233933310E+02 -0.53548976893E+02  0.26281225943E+03  0.27199978926E+03  0.00000000000E+00 0.  1.
<mgrwt>
<rscale>  2 0.17917352E+03</rscale>
<asrwt>0</asrwt>
<pdfrwt beam="1">  1       21 0.10581987E+00 0.17954262E+03</pdfrwt>
<pdfrwt beam="2">  1       21 0.77308713E-02 0.17954262E+03</pdfrwt>
<totfact> 0.91842265E+04</totfact>
</mgrwt>
</event>
<event>
11    2  0.4097182E-002  0.2682299E+03  0.7546771E-02  0.1102329E+00
         21   -1    0    0  503  502  0.00000000000E+00  0.00000000000E+00  0.25333720199E+03  0.25333720199E+03  0.00000000000E+00 0. -1.
         21   -1    0    0  501  503 -0.00000000000E+00 -0.00000000000E+00 -0.46705900954E+03  0.46705900954E+03  0.00000000000E+00 0.  1.
          6    2    1    2  501    0 -0.19434074636E+03  0.65598174358E+02 -0.33253519627E+03  0.42723170906E+03  0.17284626203E+03 0.  0.
         24    2    3    3    0    0 -0.17964084771E+03  0.10349189222E+03 -0.24413766289E+03  0.32982413861E+03  0.78736002234E+02 0.  0.
         -6    2    1    2    0  502  0.19434074636E+03 -0.65598174358E+02  0.11881338872E+03  0.29316450247E+03  0.17250321154E+03 0.  0.
          5    1    3    3  501    0 -0.14699898650E+02 -0.37893717866E+02 -0.88397533380E+02  0.97407570454E+02  0.47000000000E+01 0. -1.
        -15    1    4    4    0    0 -0.74154912121E+02  0.50679879521E+02 -0.16468658886E+03  0.18759592602E+03  0.17770000000E+01 0.  1.
         16    1    4    4    0    0 -0.10548593559E+03  0.52812012703E+02 -0.79451074030E+02  0.14222821259E+03  0.00000000000E+00 0. -1.
         -5    1    5    5    0  502  0.12853882257E+03 -0.12296116024E+03  0.60538076990E+02  0.18795910353E+03  0.47000000000E+01 0.  1.
         15    1    5    5    0    0  0.12934587172E+02  0.10844029749E+02  0.85921888286E+01  0.19023142862E+02  0.17770000000E+01 0. -1.
        -16    1    5    5    0    0  0.52867336614E+02  0.46518956132E+02  0.49683122897E+02  0.86182256069E+02  0.00000000000E+00 0.  1.
<mgrwt>
<rscale>  2 0.26817464E+03</rscale>
<asrwt>0</asrwt>
<pdfrwt beam="1">  1       21 0.38974955E-01 0.26822989E+03</pdfrwt>
<pdfrwt beam="2">  1       21 0.71855231E-01 0.26822989E+03</pdfrwt>
<totfact> 0.10612127E+04</totfact>
</mgrwt>
</event>
<event>
12    2  0.4097182E-002  0.2106382E+03  0.7546771E-02  0.1142434E+00
         21   -1    0    0  501  502  0.00000000000E+00  0.00000000000E+00  0.61521172632E+03  0.61521172632E+03  0.00000000000E+00 0.  1.
         21   -1    0    0  502  503 -0.00000000000E+00 -0.00000000000E+00 -0.12938444601E+03  0.12938444601E+03  0.00000000000E+00 0.  1.
         -6    2    1    2    0  503 -0.99953916200E+02 -0.62461721067E+02 -0.75598751892E+01  0.21077378680E+03  0.17457429802E+03 0.  0.
        -24    2    3    3    0    0  0.18286443575E+02 -0.35144097723E+02  0.90426943087E+01  0.88198216078E+02  0.78279329172E+02 0.  0.
          6    2    1    2  501    0  0.99953916200E+02  0.62461721067E+02  0.49338715550E+03  0.53382238553E+03  0.16626244950E+03 0.  0.
         24    2    5    5    0    0  0.68398956458E+01  0.70353066665E+02  0.30841385117E+03  0.32653102663E+03  0.80666409331E+02 0.  0.
          5    1    5    5  501    0  0.93114020554E+02 -0.78913455987E+01  0.18497330433E+03  0.20729135890E+03  0.47000000000E+01 0. -1.
        -15    1    6    6    0    0  0.35566969952E+02  0.10137979160E+02  0.15272964802E+03  0.15715371802E+03  0.17770000000E+01 0.  1.
         16    1    6    6    0    0 -0.28727074306E+02  0.60215087506E+02  0.15568420315E+03  0.16937730861E+03  0.00000000000E+00 0. -1.
         -5    1    3    3    0  503 -0.11824035977E+03 -0.27317623343E+02 -0.16602569498E+02  0.12257557073E+03  0.47000000000E+01 0.  1.
         15    1    4    4    0    0  0.30197367136E+02  0.16537625275E+02  0.66303203417E+01  0.35106878364E+02  0.17770000000E+01 0. -1.
        -16    1    4    4    0    0 -0.11910923561E+02 -0.51681722998E+02  0.24123739670E+01  0.53091337714E+02  0.00000000000E+00 0.  1.
<mgrwt>
<rscale>  2 0.20890805E+03</rscale>
<asrwt>0</asrwt>
<pdfrwt beam="1">  1       21 0.94647956E-01 0.21063817E+03</pdfrwt>
<pdfrwt beam="2">  1       21 0.19905300E-01 0.21063817E+03</pdfrwt>
<totfact> 0.21527448E+04</totfact>
</mgrwt>
</event>
<event>
12    2  0.4097182E-002  0.2272711E+03  0.7546771E-02  0.1128815E+00
         21   -1    0    0  503  502  0.00000000000E+00  0.00000000000E+00  0.45926382172E+02  0.45926382172E+02  0.00000000000E+00 0.  1.
         21   -1    0    0  501  503 -0.00000000000E+00 -0.00000000000E+00 -0.12249923484E+04  0.12249923484E+04  0.00000000000E+00 0.  1.
          6    2    1    2  501    0  0.12988277659E+02  0.13992410497E+03 -0.40020926121E+03  0.45958038463E+03  0.17691587456E+03 0.  0.
         24    2    3    3    0    0  0.78136663851E+02  0.90326438489E+02 -0.28078761734E+03  0.31470851100E+03  0.77042566928E+02 0.  0.
         -6    2    1    2    0  502 -0.12988277659E+02 -0.13992410497E+03 -0.77885670506E+03  0.81133834598E+03  0.17861885157E+03 0.  0.
        -24    2    5    5    0    0 -0.34874699630E+02 -0.16846995078E+03 -0.63233135158E+03  0.66038918238E+03  0.81685770035E+02 0.  0.
          5    1    3    3  501    0 -0.65148386192E+02  0.49597666482E+02 -0.11942164387E+03  0.14487187363E+03  0.47000000000E+01 0. -1.
        -15    1    4    4    0    0  0.30915956550E+02  0.89589632257E+02 -0.18154101076E+03  0.20479842502E+03  0.17770000000E+01 0.  1.
         16    1    4    4    0    0  0.47220707301E+02  0.73680623191E+00 -0.99246606581E+02  0.10991008598E+03  0.00000000000E+00 0. -1.
         -5    1    5    5    0  502  0.21886421971E+02  0.28545845804E+02 -0.14652535347E+03  0.15094916360E+03  0.47000000000E+01 0.  1.
         15    1    6    6    0    0 -0.60607525779E+02 -0.99254488634E+02 -0.40448339347E+03  0.42087373287E+03  0.17770000000E+01 0. -1.
        -16    1    6    6    0    0  0.25732826150E+02 -0.69215462142E+02 -0.22784795811E+03  0.23951544952E+03  0.00000000000E+00 0.  1.
<mgrwt>
<rscale>  2 0.22693635E+03</rscale>
<asrwt>0</asrwt>
<pdfrwt beam="1">  1       21 0.70655969E-02 0.22727108E+03</pdfrwt>
<pdfrwt beam="2">  1       21 0.18846037E+00 0.22727108E+03</pdfrwt>
<totfact> 0.23207342E+04</totfact>
</mgrwt>
</event>
<event>
12    2  0.4097182E-002  0.1917579E+03  0.7546771E-02  0.1158880E+00
         21   -1    0    0  503  502  0.00000000000E+00  0.00000000000E+00  0.14513499583E+03  0.14513499583E+03  0.00000000000E+00 0. -1.
         21   -1    0    0  501  503 -0.00000000000E+00 -0.00000000000E+00 -0.35742654573E+03  0.35742654573E+03  0.00000000000E+00 0. -1.
          6    2    1    2  501    0  0.28669194693E+02 -0.56565133467E+02 -0.25061945114E+03  0.31556489717E+03  0.18096838947E+03 0.  0.
         24    2    3    3    0    0 -0.14180376453E+02  0.15404861395E+02 -0.43347555607E+02  0.91959229561E+02  0.78352386648E+02 0.  0.
         -6    2    1    2    0  502 -0.28669194693E+02  0.56565133467E+02  0.38327901245E+02  0.18699664439E+03  0.17168919579E+03 0.  0.
        -24    2    5    5    0    0 -0.62843509069E+02  0.70473718588E+02 -0.13167767708E+02  0.12347321230E+03  0.78462681612E+02 0.  0.
          5    1    3    3  501    0  0.42849571146E+02 -0.71969994863E+02 -0.20727189554E+03  0.22360566761E+03  0.47000000000E+01 0. -1.
        -15    1    4    4    0    0  0.16750013488E+02 -0.20730560991E+02  0.12722245760E+01  0.26741267645E+02  0.17770000000E+01 0.  1.
         16    1    4    4    0    0 -0.30930389941E+02  0.36135422386E+02 -0.44619780183E+02  0.65217961916E+02  0.00000000000E+00 0. -1.
         -5    1    5    5    0  502  0.34174314376E+02 -0.13908585121E+02  0.51495668953E+02  0.63523432086E+02  0.47000000000E+01 0.  1.
         15    1    6    6    0    0 -0.59296889509E+02  0.78138394989E+01 -0.97026288320E+01  0.60617455642E+02  0.17770000000E+01 0. -1.
        -16    1    6    6    0    0 -0.35466195595E+01  0.62659879089E+02 -0.34651388761E+01  0.62855756659E+02  0.00000000000E+00 0.  1.
<mgrwt>
<rscale>  2 0.18953677E+03</rscale>
<asrwt>0</asrwt>
<pdfrwt beam="1">  1       21 0.22328461E-01 0.19175791E+03</pdfrwt>
<pdfrwt beam="2">  1       21 0.54988699E-01 0.19175791E+03</pdfrwt>
<totfact> 0.58602046E+04</totfact>
</mgrwt>
</event>
<event>
12    2  0.4097182E-002  0.2102923E+03  0.7546771E-02  0.1141386E+00
         21   -1    0    0  501  502  0.00000000000E+00  0.00000000000E+00  0.88041655766E+02  0.88041655766E+02  0.00000000000E+00 0.  1.
         21   -1    0    0  502  503 -0.00000000000E+00 -0.00000000000E+00 -0.50257860606E+03  0.50257860606E+03  0.00000000000E+00 0. -1.
         -6    2    1    2    0  503  0.64258579571E+02  0.10014572915E+03 -0.21965171589E+03  0.30390941118E+03  0.17307721340E+03 0.  0.
        -24    2    3    3    0    0  0.86059081786E+02  0.12891051544E+03 -0.18712664161E+03  0.25509706352E+03  0.77679117337E+02 0.  0.
          6    2    1    2  501    0 -0.64258579571E+02 -0.10014572915E+03 -0.19488523441E+03  0.28671085065E+03  0.17339124883E+03 0.  0.
         24    2    5    5    0    0 -0.18525355311E+02 -0.10960562756E+03 -0.71757817792E+02  0.15494033724E+03  0.80627174754E+02 0.  0.
          5    1    5    5  501    0 -0.45733224260E+02  0.94598984082E+01 -0.12312741662E+03  0.13177051340E+03  0.47000000000E+01 0. -1.
        -15    1    6    6    0    0  0.54979984707E+01 -0.10858302974E+03 -0.72826425179E+02  0.13087149525E+03  0.17770000000E+01 0.  1.
         16    1    6    6    0    0 -0.24023353782E+02 -0.10225978161E+01  0.10686073869E+01  0.24068841995E+02  0.00000000000E+00 0. -1.
         -5    1    3    3    0  503 -0.21800502215E+02 -0.28764786290E+02 -0.32525074281E+02  0.48812347660E+02  0.47000000000E+01 0.  1.
         15    1    4    4    0    0  0.84491970308E+02  0.98874278969E+02 -0.18332538483E+03  0.22478071656E+03  0.17770000000E+01 0. -1.
        -16    1    4    4    0    0  0.15671114784E+01  0.30036236472E+02 -0.38012567782E+01  0.30316346958E+02  0.00000000000E+00 0.  1.
<mgrwt>
<rscale>  2 0.21022757E+03</rscale>
<asrwt>0</asrwt>
<pdfrwt beam="1">  1       21 0.13544870E-01 0.21029231E+03</pdfrwt>
<pdfrwt beam="2">  1       21 0.77319784E-01 0.21029231E+03</pdfrwt>
<totfact> 0.69540680E+04</totfact>
</mgrwt>
</event>
<event>
12    2  0.4097182E-002  0.1920920E+03  0.7546771E-02  0.1156634E+00
         21   -1    0    0  503  502  0.00000000000E+00  0.00000000000E+00  0.24953690858E+02  0.24953690858E+02  0.00000000000E+00 0. -1.
         21   -1    0    0  501  503 -0.00000000000E+00 -0.00000000000E+00 -0.15626623937E+04  0.15626623937E+04  0.00000000000E+00 0.  1.
          6    2    1    2  501    0 -0.72279190025E+00  0.83108045342E+02 -0.58274872051E+03  0.61352784480E+03  0.17295339103E+03 0.  0.
         24    2    3    3    0    0 -0.29881136507E+02 -0.12677396831E+02 -0.26566560738E+03  0.28097882492E+03  0.85541138654E+02 0.  0.
         -6    2    1    2    0  502  0.72279190025E+00 -0.83108045342E+02 -0.95495998233E+03  0.97408823975E+03  0.17318158486E+03 0.  0.
        -24    2    5    5    0    0 -0.30631574704E+01 -0.10405183066E+03 -0.44836424845E+03  0.46702384232E+03  0.79022804354E+02 0.  0.
          5    1    3    3  501    0  0.29158344607E+02  0.95785442173E+02 -0.31708311313E+03  0.33254901988E+03  0.47000000000E+01 0. -1.
        -15    1    4    4    0    0  0.80223874942E+01  0.30127370369E+02 -0.13115273317E+03  0.13481919111E+03  0.17770000000E+01 0.  1.
         16    1    4    4    0    0 -0.37903524001E+02 -0.42804767199E+02 -0.13451287421E+03  0.14615963381E+03  0.00000000000E+00 0. -1.
         -5    1    5    5    0  502  0.37859493707E+01  0.20943785316E+02 -0.50659573388E+03  0.50706439743E+03  0.47000000000E+01 0.  1.
         15    1    6    6    0    0 -0.25013232594E+02 -0.39513803878E+02 -0.30149482042E+03  0.30510537028E+03  0.17770000000E+01 0. -1.
        -16    1    6    6    0    0  0.21950075124E+02 -0.64538026780E+02 -0.14686942803E+03  0.16191847204E+03  0.00000000000E+00 0.  1.
<mgrwt>
<rscale>  2 0.19204054E+03</rscale>
<asrwt>0</asrwt>
<pdfrwt beam="1">  1       21 0.38390299E-02 0.19209199E+03</pdfrwt>
<pdfrwt beam="2">  1       21 0.24040957E+00 0.19209199E+03</pdfrwt>
<totfact> 0.31816067E+04</totfact>
</mgrwt>
</event>
<event>
12    2  0.4097182E-002  0.1803733E+03  0.7546771E-02  0.1167450E+00
         21   -1    0    0  501  502  0.00000000000E+00  0.00000000000E+00  0.31765065463E+03  0.31765065463E+03  0.00000000000E+00 0. -1.
         21   -1    0    0  502  503 -0.00000000000E+00 -0.00000000000E+00 -0.23272908659E+03  0.23272908659E+03  0.00000000000E+00 0. -1.
         -6    2    1    2    0  503  0.31069308470E+00  0.49653594430E+02 -0.16347177494E+03  0.24340450150E+03  0.17336999215E+03 0.  0.
        -24    2    3    3    0    0  0.56636370426E+01 -0.39372362898E+02 -0.98116262704E+02  0.13273513778E+03  0.80059703028E+02 0.  0.
          6    2    1    2  501    0 -0.31069308470E+00 -0.49653594430E+02  0.24839334299E+03  0.30697523972E+03  0.17340406279E+03 0.  0.
         24    2    5    5    0    0  0.22903978356E+02 -0.77005641555E+02  0.24600753146E+03  0.27071455097E+03  0.79449364497E+02 0.  0.
          5    1    5    5  501    0 -0.23214671440E+02  0.27352047125E+02  0.23858115303E+01  0.36260688751E+02  0.47000000000E+01 0. -1.
        -15    1    6    6    0    0 -0.21935872852E+02 -0.57426922190E+02  0.10789492136E+03  0.12419140749E+03  0.17770000000E+01 0.  1.
         16    1    6    6    0    0  0.44839851207E+02 -0.19578719364E+02  0.13811261010E+03  0.14652314348E+03  0.00000000000E+00 0. -1.
         -5    1    3    3    0  503 -0.53529439579E+01  0.89025957327E+02 -0.65355512236E+02  0.11066936372E+03  0.47000000000E+01 0.  1.
         15    1    4    4    0    0 -0.20014589168E+02  0.94833963842E+01 -0.64242882171E+02  0.67976644704E+02  0.17770000000E+01 0. -1.
        -16    1    4    4    0    0  0.25678226211E+02 -0.48855759282E+02 -0.33873380533E+02  0.64758493073E+02  0.00000000000E+00 0.  1.
<mgrwt>
<rscale>  2 0.18036516E+03</rscale>
<asrwt>0</asrwt>
<pdfrwt beam="1">  1       21 0.48869332E-01 0.18037335E+03</pdfrwt>
<pdfrwt beam="2">  1       21 0.35804475E-01 0.18037335E+03</pdfrwt>
<totfact> 0.30258601E+04</totfact>
</mgrwt>
</event>
<event>
12    2  0.4097182E-002  0.2004705E+03  0.7546771E-02  0.1149473E+00
         21   -1    0    0  501  502  0.00000000000E+00  0.00000000000E+00  0.33352199033E+03  0.33352199033E+03  0.00000000000E+00 0.  1.
         21   -1    0    0  502  503 -0.00000000000E+00 -0.00000000000E+00 -0.12834053392E+03  0.12834053392E+03  0.00000000000E+00 0. -1.
         -6    2    1    2    0  503  0.97354961357E+02 -0.30037190636E+02  0.44012778883E+02  0.20463935189E+03  0.17192998085E+03 0.  0.
        -24    2    3    3    0    0  0.60799943939E+02  0.35609428387E+02 -0.15644026345E+02  0.10858326256E+03  0.81122899196E+02 0.  0.
          6    2    1    2  501    0 -0.97354961357E+02  0.30037190636E+02  0.16116867753E+03  0.25722317237E+03  0.17265050380E+03 0.  0.
         24    2    5    5    0    0 -0.95246092981E+02  0.78318825974E+02  0.14316144709E+03  0.20543597332E+03  0.80641691890E+02 0.  0.
          5    1    5    5  501    0 -0.21088683758E+01 -0.48281635338E+02  0.18007230437E+02  0.51787199044E+02  0.47000000000E+01 0. -1.
        -15    1    6    6    0    0 -0.14315005348E+02  0.79169833830E+01  0.78458360602E+02  0.80165267301E+02  0.17770000000E+01 0.  1.
         16    1    6    6    0    0 -0.80931087633E+02  0.70401842592E+02  0.64703086492E+02  0.12527070602E+03  0.00000000000E+00 0. -1.
         -5    1    3    3    0  503  0.36555017418E+02 -0.65646619023E+02  0.59656805227E+02  0.96056089331E+02  0.47000000000E+01 0.  1.
         15    1    4    4    0    0 -0.19271665779E+02  0.52260457259E+01  0.46290325775E+01  0.20574117902E+02  0.17770000000E+01 0. -1.
        -16    1    4    4    0    0  0.80071609718E+02  0.30383382661E+02 -0.20273058922E+02  0.88009144654E+02  0.00000000000E+00 0.  1.
<mgrwt>
<rscale>  2 0.20031526E+03</rscale>
<asrwt>0</asrwt>
<pdfrwt beam="1">  1       21 0.51311075E-01 0.20047049E+03</pdfrwt>
<pdfrwt beam="2">  1       21 0.19744698E-01 0.20047049E+03</pdfrwt>
<totfact> 0.85065753E+04</totfact>
</mgrwt>
</event>
<event>
12    2  0.4097182E-002  0.3363844E+03  0.7546771E-02  0.1068384E+00
         21   -1    0    0  503  502  0.00000000000E+00  0.00000000000E+00  0.12839505625E+04  0.12839505625E+04  0.00000000000E+00 0.  1.
         21   -1    0    0  501  503 -0.00000000000E+00 -0.00000000000E+00 -0.10715808759E+03  0.10715808759E+03  0.00000000000E+00 0. -1.
          6    2    1    2  501    0 -0.84574915238E+02  0.27580171601E+03  0.29484256054E+03  0.44731042877E+03  0.17301728622E+03 0.  0.
         24    2    3    3    0    0  0.20826986161E+02  0.95064833839E+02  0.12763212993E+03  0.17943583217E+03  0.80225752036E+02 0.  0.
         -6    2    1    2    0  502  0.84574915238E+02 -0.27580171601E+03  0.88194991440E+03  0.94379822137E+03  0.17233667138E+03 0.  0.
        -24    2    5    5    0    0  0.75309430267E+02 -0.12296165263E+03  0.30411393792E+03  0.34600022881E+03  0.80248319595E+02 0.  0.
          5    1    3    3  501    0 -0.10540190140E+03  0.18073688217E+03  0.16721043062E+03  0.26787459660E+03  0.47000000000E+01 0. -1.
        -15    1    4    4    0    0 -0.29008158898E+02  0.50173588030E+02  0.70877457252E+02  0.91573106827E+02  0.17770000000E+01 0.  1.
         16    1    4    4    0    0  0.49835145059E+02  0.44891245809E+02  0.56754672676E+02  0.87862725339E+02  0.00000000000E+00 0. -1.
         -5    1    5    5    0  502  0.92654849716E+01 -0.15284006338E+03  0.57783597648E+03  0.59779799256E+03  0.47000000000E+01 0.  1.
         15    1    6    6    0    0 -0.29048239566E+01 -0.65802762591E+01 -0.33042854997E+01  0.81125871045E+01  0.17770000000E+01 0. -1.
        -16    1    6    6    0    0  0.78214254223E+02 -0.11638137637E+03  0.30741822342E+03  0.33788764171E+03  0.00000000000E+00 0.  1.
<mgrwt>
<rscale>  2 0.33629700E+03</rscale>
<asrwt>0</asrwt>
<pdfrwt beam="1">  1       21 0.19753084E+00 0.33638443E+03</pdfrwt>
<pdfrwt beam="2">  1       21 0.16485861E-01 0.33638443E+03</pdfrwt>
<totfact> 0.41499789E+03</totfact>
</mgrwt>
</event>
<event>
12    2  0.4097182E-002  0.2266473E+03  0.7546771E-02  0.1129272E+00
         21   -1    0    0  503  502  0.00000000000E+00  0.00000000000E+00  0.12256783912E+03  0.12256783912E+03  0.00000000000E+00 0. -1.
         21   -1    0    0  501  503 -0.00000000000E+00 -0.00000000000E+00 -0.47597181017E+03  0.47597181017E+03  0.00000000000E+00 0.  1.
          6    2    1    2  501    0 -0.96686772580E+02  0.10924138116E+03 -0.28292942378E+03  0.36251628777E+03  0.17345601376E+03 0.  0.
         24    2    3    3    0    0 -0.98681329828E+02  0.88503841527E+02 -0.29772072666E+03  0.33653751856E+03  0.83957938816E+02 0.  0.
         -6    2    1    2    0  502  0.96686772580E+02 -0.10924138116E+03 -0.70474547270E+02  0.23602336153E+03  0.17163436143E+03 0.  0.
        -24    2    5    5    0    0 -0.38571886786E+00 -0.28907770805E+02 -0.70179275596E+02  0.10993317661E+03  0.79525873801E+02 0.  0.
          5    1    3    3  501    0  0.19945572481E+01  0.20737539628E+02  0.14791302888E+02  0.25978769208E+02  0.47000000000E+01 0. -1.
        -15    1    4    4    0    0 -0.70874904704E+02  0.15887435199E+02 -0.19210100727E+03  0.20538163851E+03  0.17770000000E+01 0.  1.
         16    1    4    4    0    0 -0.27806425125E+02  0.72616406329E+02 -0.10561971939E+03  0.13115588005E+03  0.00000000000E+00 0. -1.
         -5    1    5    5    0  502  0.97072491448E+02 -0.80333610350E+02 -0.29527167427E+00  0.12609018492E+03  0.47000000000E+01 0.  1.
         15    1    6    6    0    0  0.28123855639E+02  0.10974923178E+02 -0.90360204332E+01  0.31562756360E+02  0.17770000000E+01 0. -1.
        -16    1    6    6    0    0 -0.28509574506E+02 -0.39882693983E+02 -0.61143255162E+02  0.78370420247E+02  0.00000000000E+00 0.  1.
<mgrwt>
<rscale>  2 0.22629873E+03</rscale>
<asrwt>0</asrwt>
<pdfrwt beam="1">  1       21 0.18856591E-01 0.22664730E+03</pdfrwt>
<pdfrwt beam="2">  1       21 0.73226431E-01 0.22664730E+03</pdfrwt>
<totfact> 0.42477612E+04</totfact>
</mgrwt>
</event>
<event>
12    2  0.4097182E-002  0.1796523E+03  0.7546771E-02  0.1169273E+00
         21   -1    0    0  503  502  0.00000000000E+00  0.00000000000E+00  0.12657129480E+03  0.12657129480E+03  0.00000000000E+00 0. -1.
         21   -1    0    0  501  503 -0.00000000000E+00 -0.00000000000E+00 -0.11863504453E+04  0.11863504453E+04  0.00000000000E+00 0. -1.
          6    2    1    2  501    0  0.36395687756E+02  0.10107508704E+02 -0.11149930447E+04  0.11293734773E+04  0.17563642473E+03 0.  0.
         24    2    3    3    0    0  0.90146902020E+02 -0.47721623931E+01 -0.85781264105E+03  0.86617308280E+03  0.79145718414E+02 0.  0.
         -6    2    1    2    0  502 -0.36395687756E+02 -0.10107508704E+02  0.55213894242E+02  0.18354826276E+03  0.17092273935E+03 0.  0.
        -24    2    5    5    0    0  0.25327011133E+02 -0.52804962507E+02  0.22952225512E+02  0.10172119274E+03  0.79941071031E+02 0.  0.
          5    1    3    3  501    0 -0.53751214263E+02  0.14879671097E+02 -0.25718040367E+03  0.26320039453E+03  0.47000000000E+01 0. -1.
        -15    1    4    4    0    0  0.82893509206E+02  0.16238663012E+02 -0.79626458935E+03  0.80073433923E+03  0.17770000000E+01 0.  1.
         16    1    4    4    0    0  0.72533928131E+01 -0.21010825405E+02 -0.61548051704E+02  0.65438743571E+02  0.00000000000E+00 0. -1.
         -5    1    5    5    0  502 -0.61722698890E+02  0.42697453803E+02  0.32261668731E+02  0.81827070024E+02  0.47000000000E+01 0.  1.
         15    1    6    6    0    0 -0.80939097669E+01  0.17789305621E+02  0.11594747424E+02  0.22794005058E+02  0.17770000000E+01 0. -1.
        -16    1    6    6    0    0  0.33420920900E+02 -0.70594268128E+02  0.11357478088E+02  0.78927187678E+02  0.00000000000E+00 0.  1.
<mgrwt>
<rscale>  2 0.17848972E+03</rscale>
<asrwt>0</asrwt>
<pdfrwt beam="1">  1       21 0.19472508E-01 0.17965234E+03</pdfrwt>
<pdfrwt beam="2">  1       21 0.18251545E+00 0.17965234E+03</pdfrwt>
<totfact> 0.42969739E+03</totfact>
</mgrwt>
</event>
<event>
12    2  0.4097182E-002  0.1781146E+03  0.7546771E-02  0.1170202E+00
         21   -1    0    0  503  502  0.00000000000E+00  0.00000000000E+00  0.16498172994E+03  0.16498172994E+03  0.00000000000E+00 0. -1.
         21   -1    0    0  501  503 -0.00000000000E+00 -0.00000000000E+00 -0.21603231709E+03  0.21603231709E+03  0.00000000000E+00 0. -1.
          6    2    1    2  501    0 -0.48600836589E+01 -0.40749420080E+02 -0.91705945652E+02  0.19831847558E+03  0.17098567671E+03 0.  0.
         24    2    3    3    0    0  0.54073651303E+02 -0.17224938082E+02 -0.93220063778E+02  0.13467125315E+03  0.78903155048E+02 0.  0.
         -6    2    1    2    0  502  0.48600836589E+01  0.40749420080E+02  0.40655358500E+02  0.18269557145E+03  0.17332246825E+03 0.  0.
        -24    2    5    5    0    0 -0.16997162522E+02  0.45675619053E+02  0.89952622637E+02  0.12834194325E+03  0.77492027766E+02 0.  0.
          5    1    3    3  501    0 -0.58933734962E+02 -0.23524481998E+02  0.15141181260E+01  0.63647222434E+02  0.47000000000E+01 0. -1.
        -15    1    4    4    0    0  0.38442963853E+02 -0.45523362039E+02 -0.38025541929E+02  0.70705993587E+02  0.17770000000E+01 0.  1.
         16    1    4    4    0    0  0.15630687450E+02  0.28298423956E+02 -0.55194521849E+02  0.63965259561E+02  0.00000000000E+00 0. -1.
         -5    1    5    5    0  502  0.21857246181E+02 -0.49261989725E+01 -0.49297264137E+02  0.54353628199E+02  0.47000000000E+01 0.  1.
         15    1    6    6    0    0  0.20952137659E+02  0.42032504675E+02  0.72528956401E+02  0.86425290091E+02  0.17770000000E+01 0. -1.
        -16    1    6    6    0    0 -0.37949300181E+02  0.36431143773E+01  0.17423666236E+02  0.41916653155E+02  0.00000000000E+00 0.  1.
<mgrwt>
<rscale>  2 0.17754359E+03</rscale>
<asrwt>0</asrwt>
<pdfrwt beam="1">  1       21 0.25381805E-01 0.17811461E+03</pdfrwt>
<pdfrwt beam="2">  1       21 0.33235741E-01 0.17811461E+03</pdfrwt>
<totfact> 0.12891113E+05</totfact>
</mgrwt>
</event>
<event>
12    2  0.4097182E-002  0.1889348E+03  0.7546771E-02  0.1159543E+00
         21   -1    0    0  503  502  0.00000000000E+00  0.00000000000E+00  0.49414783351E+03  0.49414783351E+03  0.00000000000E+00 0.  1.
         21   -1    0    0  501  503 -0.00000000000E+00 -0.00000000000E+00 -0.11475893505E+03  0.11475893505E+03  0.00000000000E+00 0.  1.
          6    2    1    2  501    0  0.17803213564E+02  0.73724061944E+02  0.37811081494E+01  0.18845753884E+03  0.17248117417E+03 0.  0.
         24    2    3    3    0    0 -0.56308553006E+02  0.60089624351E+02  0.35072512856E+00  0.11287771772E+03  0.77200000350E+02 0.  0.
         -6    2    1    2    0  502 -0.17803213564E+02 -0.73724061944E+02  0.37560779030E+03  0.42044922972E+03  0.17304378322E+03 0.  0.
        -24    2    5    5    0    0  0.44591480898E+02 -0.77170433569E+02  0.22637369751E+03  0.25859163852E+03  0.87640793043E+02 0.  0.
          5    1    3    3  501    0  0.74111766570E+02  0.13634437593E+02  0.34303830208E+01  0.75579821118E+02  0.47000000000E+01 0. -1.
        -15    1    4    4    0    0 -0.18597960444E+01 -0.51891856931E+00 -0.26853694191E+02  0.26981599999E+02  0.17770000000E+01 0.  1.
         16    1    4    4    0    0 -0.54448756962E+02  0.60608542921E+02  0.27204419319E+02  0.85896117725E+02  0.00000000000E+00 0. -1.
         -5    1    5    5    0  502 -0.62394694461E+02  0.34463716249E+01  0.14923409280E+03  0.16185759119E+03  0.47000000000E+01 0.  1.
         15    1    6    6    0    0  0.59397204125E+02 -0.15377631367E+02  0.10674511650E+03  0.12313479212E+03  0.17770000000E+01 0. -1.
        -16    1    6    6    0    0 -0.14805723227E+02 -0.61792802202E+02  0.11962858101E+03  0.13545684640E+03  0.00000000000E+00 0.  1.
<mgrwt>
<rscale>  2 0.18880584E+03</rscale>
<asrwt>0</asrwt>
<pdfrwt beam="1">  1       21 0.76022742E-01 0.18893476E+03</pdfrwt>
<pdfrwt beam="2">  1       21 0.17655221E-01 0.18893476E+03</pdfrwt>
<totfact> 0.44964932E+04</totfact>
</mgrwt>
</event>
<event>
12    2  0.4097182E-002  0.1796093E+03  0.7546771E-02  0.1168702E+00
         21   -1    0    0  503  502  0.00000000000E+00  0.00000000000E+00  0.75355244617E+02  0.75355244617E+02  0.00000000000E+00 0. -1.
         21   -1    0    0  501  503 -0.00000000000E+00 -0.00000000000E+00 -0.19309278206E+04  0.19309278206E+04  0.00000000000E+00 0. -1.
          6    2    1    2  501    0 -0.18491543760E+02  0.43783006800E+02 -0.18130407586E+04  0.18217066621E+04  0.17099555968E+03 0.  0.
         24    2    3    3    0    0 -0.57715570431E+01  0.86990647070E+02 -0.83592880539E+03  0.84354585866E+03  0.72055287298E+02 0.  0.
         -6    2    1    2    0  502  0.18491543760E+02 -0.43783006800E+02 -0.42531817401E+02  0.18457640316E+03  0.17320682503E+03 0.  0.
        -24    2    5    5    0    0 -0.11930937087E+02  0.31635986226E+02  0.10640263542E+02  0.87298902977E+02  0.79779072246E+02 0.  0.
          5    1    3    3  501    0 -0.12719986717E+02 -0.43207640270E+02 -0.97711195322E+03  0.97816080343E+03  0.47000000000E+01 0. -1.
        -15    1    4    4    0    0  0.22671571927E+02  0.80400278798E+02 -0.64742508266E+03  0.65279445493E+03  0.17770000000E+01 0.  1.
         16    1    4    4    0    0 -0.28443128970E+02  0.65903682716E+01 -0.18850372273E+03  0.19075140372E+03  0.00000000000E+00 0. -1.
         -5    1    5    5    0  502  0.30422480847E+02 -0.75418993026E+02 -0.53172080943E+02  0.97277500183E+02  0.47000000000E+01 0.  1.
         15    1    6    6    0    0  0.16718858325E+02 -0.19348632971E+02  0.13055552865E+02  0.28766213014E+02  0.17770000000E+01 0. -1.
        -16    1    6    6    0    0 -0.28649795412E+02  0.50984619197E+02 -0.24152893225E+01  0.58532689963E+02  0.00000000000E+00 0.  1.
<mgrwt>
<rscale>  2 0.17907402E+03</rscale>
<asrwt>0</asrwt>
<pdfrwt beam="1">  1       21 0.11593115E-01 0.17960928E+03</pdfrwt>
<pdfrwt beam="2">  1       21 0.29706581E+00 0.17960928E+03</pdfrwt>
<totfact> 0.22526480E+03</totfact>
</mgrwt>
</event>
<event>
12    2  0.4097182E-002  0.1754306E+03  0.7546771E-02  0.1173103E+00
         21   -1    0    0  501  502  0.00000000000E+00  0.00000000000E+00  0.16031624620E+03  0.16031624620E+03  0.00000000000E+00 0.  1.
         21   -1    0    0  502  503 -0.00000000000E+00 -0.00000000000E+00 -0.21660564597E+03  0.21660564597E+03  0.00000000000E+00 0.  1.
         -6    2    1    2    0  503  0.30081143897E+02 -0.28879517533E+02 -0.95796646423E+02  0.19709772900E+03  0.16712754279E+03 0.  0.
        -24    2    3    3    0    0 -0.47510408277E+02 -0.22088078066E+02 -0.54137822296E+02  0.10864367174E+03  0.78277848194E+02 0.  0.
          6    2    1    2  501    0 -0.30081143897E+02  0.28879517533E+02  0.39507246648E+02  0.17982416317E+03  0.17040248053E+03 0.  0.
         24    2    5    5    0    0  0.51367840584E+01  0.75524790781E+02  0.41187199452E+02  0.12116415799E+03  0.85170342314E+02 0.  0.
          5    1    5    5  501    0 -0.35217927955E+02 -0.46645273247E+02 -0.16799528034E+01  0.58660005176E+02  0.47000000000E+01 0. -1.
        -15    1    6    6    0    0 -0.25218658613E+02 -0.36795934706E+01 -0.26486236969E+01  0.25684491173E+02  0.17770000000E+01 0.  1.
         16    1    6    6    0    0  0.30355442671E+02  0.79204384251E+02  0.43835823148E+02  0.95479666817E+02  0.00000000000E+00 0. -1.
         -5    1    3    3    0  503  0.77591552174E+02 -0.67914394673E+01 -0.41658824127E+02  0.88454057264E+02  0.47000000000E+01 0.  1.
         15    1    4    4    0    0 -0.68040180867E+01  0.14002723714E+02 -0.51880391483E+02  0.54195052200E+02  0.17770000000E+01 0. -1.
        -16    1    4    4    0    0 -0.40706390191E+02 -0.36090801780E+02 -0.22574308128E+01  0.54448619535E+02  0.00000000000E+00 0.  1.
<mgrwt>
<rscale>  2 0.17463035E+03</rscale>
<asrwt>0</asrwt>
<pdfrwt beam="1">  1       21 0.24664038E-01 0.17543063E+03</pdfrwt>
<pdfrwt beam="2">  1       21 0.33323945E-01 0.17543063E+03</pdfrwt>
<totfact> 0.13557147E+05</totfact>
</mgrwt>
</event>
<event>
12    2  0.4097182E-002  0.2003749E+03  0.7546771E-02  0.1149809E+00
         21   -1    0    0  503  502  0.00000000000E+00  0.00000000000E+00  0.51741645876E+02  0.51741645876E+02  0.00000000000E+00 0.  1.
         21   -1    0    0  501  503 -0.00000000000E+00 -0.00000000000E+00 -0.14204033015E+04  0.14204033015E+04  0.00000000000E+00 0.  1.
          6    2    1    2  501    0 -0.75019873289E+02 -0.68677711445E+02 -0.11811333895E+04  0.11977056201E+04  0.17052289990E+03 0.  0.
         24    2    3    3    0    0 -0.99646448655E+02 -0.51576753532E+02 -0.59073825122E+03  0.60653100953E+03  0.79489671245E+02 0.  0.
         -6    2    1    2    0  502  0.75019873289E+02  0.68677711445E+02 -0.18752826619E+03  0.27443932725E+03  0.17264264910E+03 0.  0.
        -24    2    5    5    0    0  0.14011574329E+02 -0.63743487529E+01 -0.26156057558E+02  0.86242876704E+02  0.80726314781E+02 0.  0.
          5    1    3    3  501    0  0.24626575366E+02 -0.17100957912E+02 -0.59039513824E+03  0.59117461061E+03  0.47000000000E+01 0. -1.
        -15    1    4    4    0    0 -0.64438545700E+02 -0.65802570776E+02 -0.31507868655E+03  0.32826824540E+03  0.17770000000E+01 0.  1.
         16    1    4    4    0    0 -0.35207902955E+02  0.14225817244E+02 -0.27565956467E+03  0.27826276413E+03  0.00000000000E+00 0. -1.
         -5    1    5    5    0  502  0.61008298960E+02  0.75052060197E+02 -0.16137220863E+03  0.18819645055E+03  0.47000000000E+01 0.  1.
         15    1    6    6    0    0  0.27363066157E+02 -0.36191719240E+02 -0.28298244567E+02  0.53502582234E+02  0.17770000000E+01 0. -1.
        -16    1    6    6    0    0 -0.13351491828E+02  0.29817370487E+02  0.21421870094E+01  0.32740294470E+02  0.00000000000E+00 0.  1.
<mgrwt>
<rscale>  2 0.19991745E+03</rscale>
<asrwt>0</asrwt>
<pdfrwt beam="1">  1       21 0.79602543E-02 0.20037488E+03</pdfrwt>
<pdfrwt beam="2">  1       21 0.21852356E+00 0.20037488E+03</pdfrwt>
<totfact> 0.12352569E+04</totfact>
</mgrwt>
</event>
<event>
12    2  0.4097182E-002  0.1960914E+03  0.7546771E-02  0.1153780E+00
         21   -1    0    0  503  502  0.00000000000E+00  0.00000000000E+00  0.28983478296E+03  0.28983478296E+03  0.00000000000E+00 0. -1.
         21   -1    0    0  501  503 -0.00000000000E+00 -0.00000000000E+00 -0.18110625228E+03  0.18110625228E+03  0.00000000000E+00 0.  1.
          6    2    1    2  501    0 -0.82013428281E+02  0.28232820279E+02 -0.70423150205E+02  0.20533390792E+03  0.17227680952E+03 0.  0.
         24    2    3    3    0    0 -0.79192125878E+02 -0.90685426680E+01 -0.10554351064E+03  0.15380836919E+03  0.78510830635E+02 0.  0.
         -6    2    1    2    0  502  0.82013428281E+02 -0.28232820279E+02  0.17915168089E+03  0.26560712732E+03  0.17586508113E+03 0.  0.
        -24    2    5    5    0    0  0.72910316995E+02 -0.51860025599E+02  0.19969455608E+03  0.23266458359E+03  0.79053881294E+02 0.  0.
          5    1    3    3  501    0 -0.28213024029E+01  0.37301362947E+02  0.35120360432E+02  0.51525538734E+02  0.47000000000E+01 0. -1.
        -15    1    4    4    0    0 -0.11624650811E+02  0.13151386347E+02 -0.73870128419E+02  0.75947646909E+02  0.17770000000E+01 0.  1.
         16    1    4    4    0    0 -0.67567475067E+02 -0.22219929015E+02 -0.31673382217E+02  0.77860722277E+02  0.00000000000E+00 0. -1.
         -5    1    5    5    0  502  0.91031112857E+01  0.23627205320E+02 -0.20542875198E+02  0.32942543735E+02  0.47000000000E+01 0.  1.
         15    1    6    6    0    0  0.24515885099E+02 -0.52712759501E+02  0.15941862817E+03  0.16969714309E+03  0.17770000000E+01 0. -1.
        -16    1    6    6    0    0  0.48394431896E+02  0.85273390222E+00  0.40275927915E+02  0.62967440500E+02  0.00000000000E+00 0.  1.
<mgrwt>
<rscale>  2 0.19528348E+03</rscale>
<asrwt>0</asrwt>
<pdfrwt beam="1">  1       21 0.44589967E-01 0.19609136E+03</pdfrwt>
<pdfrwt beam="2">  1       21 0.27862500E-01 0.19609136E+03</pdfrwt>
<totfact> 0.59297411E+04</totfact>
</mgrwt>
</event>
<event>
12    2  0.4097182E-002  0.2375630E+03  0.7546771E-02  0.1121434E+00
         21   -1    0    0  503  502  0.00000000000E+00  0.00000000000E+00  0.87352107673E+03  0.87352107673E+03  0.00000000000E+00 0.  1.
         21   -1    0    0  501  503 -0.00000000000E+00 -0.00000000000E+00 -0.66632469782E+02  0.66632469782E+02  0.00000000000E+00 0.  1.
          6    2    1    2  501    0  0.48427815967E+02 -0.15570182478E+03  0.32130930081E+03  0.39959457792E+03  0.17276529835E+03 0.  0.
         24    2    3    3    0    0  0.13984542167E+02 -0.10047649463E+03  0.30667965964E+03  0.33271937623E+03  0.79741308540E+02 0.  0.
         -6    2    1    2    0  502 -0.48427815967E+02  0.15570182478E+03  0.48557930613E+03  0.54055896859E+03  0.17270907441E+03 0.  0.
        -24    2    5    5    0    0  0.15482682795E+00  0.36265356179E+02  0.32134611703E+03  0.33170501576E+03  0.73822019198E+02 0.  0.
          5    1    3    3  501    0  0.34443273800E+02 -0.55225330148E+02  0.14629641170E+02  0.66875201688E+02  0.47000000000E+01 0. -1.
        -15    1    4    4    0    0  0.20050283023E+02  0.59438178141E+01  0.71381745678E+02  0.74403320924E+02  0.17770000000E+01 0.  1.
         16    1    4    4    0    0 -0.60657408558E+01 -0.10642031244E+03  0.23529791396E+03  0.25831605530E+03  0.00000000000E+00 0. -1.
         -5    1    5    5    0  502 -0.48582642795E+02  0.11943646860E+03  0.16423318910E+03  0.20885395283E+03  0.47000000000E+01 0.  1.
         15    1    6    6    0    0  0.53238189876E+01 -0.21877284965E+02  0.65505558426E+02  0.69289931157E+02  0.17770000000E+01 0. -1.
        -16    1    6    6    0    0 -0.51689921596E+01  0.58142641144E+02  0.25584055861E+03  0.26241508460E+03  0.00000000000E+00 0.  1.
<mgrwt>
<rscale>  2 0.23755274E+03</rscale>
<asrwt>0</asrwt>
<pdfrwt beam="1">  1       21 0.13438785E+00 0.23756296E+03</pdfrwt>
<pdfrwt beam="2">  1       21 0.10251150E-01 0.23756296E+03</pdfrwt>
<totfact> 0.30087987E+04</totfact>
</mgrwt>
</event>
<event>
12    2  0.4097182E-002  0.2543478E+03  0.7546771E-02  0.1110670E+00
         21   -1    0    0  501  502  0.00000000000E+00  0.00000000000E+00  0.43414181494E+03  0.43414181494E+03  0.00000000000E+00 0.  1.
         21   -1    0    0  502  503 -0.00000000000E+00 -0.00000000000E+00 -0.17870911232E+03  0.17870911232E+03  0.00000000000E+00 0.  1.
         -6    2    1    2    0  503  0.14576286039E+03 -0.11848306148E+03  0.22622722431E+01  0.25435782595E+03  0.17148684620E+03 0.  0.
        -24    2    3    3    0    0  0.33775499326E+02 -0.25474645969E+02 -0.45588595776E+02  0.10104921574E+03  0.79642212396E+02 0.  0.
          6    2    1    2  501    0 -0.14576286039E+03  0.11848306148E+03  0.25317043037E+03  0.35849310131E+03  0.17069560493E+03 0.  0.
         24    2    5    5    0    0 -0.17018231737E+03  0.11639209248E+03  0.19291758538E+03  0.29327671256E+03  0.79277329962E+02 0.  0.
          5    1    5    5  501    0  0.24419456979E+02  0.20909689929E+01  0.60252844997E+02  0.65216388743E+02  0.47000000000E+01 0. -1.
        -15    1    6    6    0    0 -0.38755885367E+02  0.26868270057E+02  0.96205320548E+02  0.10715663310E+03  0.17770000000E+01 0.  1.
         16    1    6    6    0    0 -0.13142643201E+03  0.89523822427E+02  0.96712264828E+02  0.18612007947E+03  0.00000000000E+00 0. -1.
         -5    1    3    3    0  503  0.11198736107E+03 -0.93008415508E+02  0.47850868019E+02  0.15330861021E+03  0.47000000000E+01 0.  1.
         15    1    4    4    0    0 -0.13273187159E+02 -0.15343093566E+02  0.13805719573E+02  0.24603732227E+02  0.17770000000E+01 0. -1.
        -16    1    4    4    0    0  0.47048686485E+02 -0.10131552402E+02 -0.59394315349E+02  0.76445483515E+02  0.00000000000E+00 0.  1.
<mgrwt>
<rscale>  2 0.25421446E+03</rscale>
<asrwt>0</asrwt>
<pdfrwt beam="1">  1       21 0.66791048E-01 0.25434777E+03</pdfrwt>
<pdfrwt beam="2">  1       21 0.27493710E-01 0.25434777E+03</pdfrwt>
<totfact> 0.25106998E+04</totfact>
</mgrwt>
</event>
<event>
12    2  0.4097182E-002  0.2325454E+03  0.7546771E-02  0.1124882E+00
         21   -1    0    0  501  502  0.00000000000E+00  0.00000000000E+00  0.77796379443E+03  0.77796379443E+03  0.00000000000E+00 0. -1.
         21   -1    0    0  502  503 -0.00000000000E+00 -0.00000000000E+00 -0.12930234922E+03  0.12930234922E+03  0.00000000000E+00 0. -1.
         -6    2    1    2    0  503 -0.15302198307E+03 -0.56598477364E+01  0.15807795506E+02  0.23308207538E+03  0.17501316031E+03 0.  0.
        -24    2    3    3    0    0 -0.14754457212E+03  0.44262086242E+02 -0.13370138211E+02  0.17480992646E+03  0.81554992215E+02 0.  0.
          6    2    1    2  501    0  0.15302198307E+03  0.56598477364E+01  0.63285364970E+03  0.67418406827E+03  0.17485037830E+03 0.  0.
         24    2    5    5    0    0  0.77493628708E+02 -0.11904176871E+02  0.15898941436E+03  0.19399407379E+03  0.78797810040E+02 0.  0.
          5    1    5    5  501    0  0.75528354365E+02  0.17564024608E+02  0.47386423534E+03  0.48018999449E+03  0.47000000000E+01 0. -1.
        -15    1    6    6    0    0  0.73665143517E+02  0.17871289583E+02  0.83683426577E+02  0.11292479787E+03  0.17770000000E+01 0.  1.
         16    1    6    6    0    0  0.38284851912E+01 -0.29775466454E+02  0.75305987786E+02  0.81069275918E+02  0.00000000000E+00 0. -1.
         -5    1    3    3    0  503 -0.54774109574E+01 -0.49921933978E+02  0.29177933717E+02  0.58272148913E+02  0.47000000000E+01 0.  1.
         15    1    4    4    0    0  0.63252148575E+01  0.13404925660E+02 -0.97585907653E+01  0.17835027269E+02  0.17770000000E+01 0. -1.
        -16    1    4    4    0    0 -0.15386978697E+03  0.30857160581E+02 -0.36115474458E+01  0.15697489919E+03  0.00000000000E+00 0.  1.
<mgrwt>
<rscale>  2 0.23251478E+03</rscale>
<asrwt>0</asrwt>
<pdfrwt beam="1">  1       21 0.11968674E+00 0.23254541E+03</pdfrwt>
<pdfrwt beam="2">  1       21 0.19892670E-01 0.23254541E+03</pdfrwt>
<totfact> 0.12071896E+04</totfact>
</mgrwt>
</event>
<event>
12    2  0.4097182E-002  0.2495371E+03  0.7546771E-02  0.1114481E+00
         21   -1    0    0  501  502  0.00000000000E+00  0.00000000000E+00  0.52987371837E+03  0.52987371837E+03  0.00000000000E+00 0.  1.
         21   -1    0    0  502  503 -0.00000000000E+00 -0.00000000000E+00 -0.12534617986E+03  0.12534617986E+03  0.00000000000E+00 0.  1.
         -6    2    1    2    0  503  0.10096541999E+03  0.13884501377E+03  0.10577884069E+03  0.26596479358E+03  0.17342478024E+03 0.  0.
        -24    2    3    3    0    0  0.11401534707E+03  0.41677223874E+02  0.86256236840E+02  0.16588931180E+03  0.73093330877E+02 0.  0.
          6    2    1    2  501    0 -0.10096541999E+03 -0.13884501377E+03  0.29874869782E+03  0.38925510465E+03  0.18109886296E+03 0.  0.
         24    2    5    5    0    0 -0.14314153665E+03 -0.10907852347E+03  0.22427611398E+03  0.29851853813E+03  0.80161826971E+02 0.  0.
          5    1    5    5  501    0  0.42176116662E+02 -0.29766490300E+02  0.74472583839E+02  0.90736566527E+02  0.47000000000E+01 0. -1.
        -15    1    6    6    0    0 -0.50972782387E+01 -0.29578045365E+02  0.10354593684E+02  0.31799659628E+02  0.17770000000E+01 0.  1.
         16    1    6    6    0    0 -0.13804425841E+03 -0.79500478107E+02  0.21392152030E+03  0.26671887850E+03  0.00000000000E+00 0. -1.
         -5    1    3    3    0  503 -0.13049927085E+02  0.97167789898E+02  0.19522603854E+02  0.10007548177E+03  0.47000000000E+01 0.  1.
         15    1    4    4    0    0  0.50299145945E+02  0.10813222244E+01  0.73776353951E+02  0.89315628374E+02  0.17770000000E+01 0. -1.
        -16    1    4    4    0    0  0.63716201129E+02  0.40595901650E+02  0.12479882889E+02  0.76573683430E+02  0.00000000000E+00 0.  1.
<mgrwt>
<rscale>  2 0.24814744E+03</rscale>
<asrwt>0</asrwt>
<pdfrwt beam="1">  1       21 0.81519033E-01 0.24953708E+03</pdfrwt>
<pdfrwt beam="2">  1       21 0.19284028E-01 0.24953708E+03</pdfrwt>
<totfact> 0.31642071E+04</totfact>
</mgrwt>
</event>
<event>
12    2  0.4097182E-002  0.2042935E+03  0.7546771E-02  0.1146197E+00
         21   -1    0    0  501  502  0.00000000000E+00  0.00000000000E+00  0.72885730785E+03  0.72885730785E+03  0.00000000000E+00 0.  1.
         21   -1    0    0  502  503 -0.00000000000E+00 -0.00000000000E+00 -0.17295629430E+03  0.17295629430E+03  0.00000000000E+00 0.  1.
         -6    2    1    2    0  503  0.63357403121E+02  0.85547676511E+02 -0.90935061667E+02  0.22348275192E+03  0.17419181806E+03 0.  0.
        -24    2    3    3    0    0  0.80272959583E+02  0.74489501726E+01 -0.85784018932E+02  0.14326947155E+03  0.81657875777E+02 0.  0.
          6    2    1    2  501    0 -0.63357403121E+02 -0.85547676511E+02  0.64683607522E+03  0.67833085022E+03  0.17436533106E+03 0.  0.
         24    2    5    5    0    0 -0.78470838348E+02 -0.46353022499E+01  0.47405327331E+03  0.48688578011E+03  0.78435313780E+02 0.  0.
          5    1    5    5  501    0  0.15113435227E+02 -0.80912374261E+02  0.17278280191E+03  0.19144507011E+03  0.47000000000E+01 0. -1.
        -15    1    6    6    0    0  0.58999990988E+01 -0.15757529838E+02  0.17920701567E+03  0.18000394976E+03  0.17770000000E+01 0.  1.
         16    1    6    6    0    0 -0.84370837447E+02  0.11122227588E+02  0.29484625764E+03  0.30688183035E+03  0.00000000000E+00 0. -1.
         -5    1    3    3    0  503 -0.16915556463E+02  0.78098726338E+02 -0.51510427345E+01  0.80213280368E+02  0.47000000000E+01 0.  1.
         15    1    4    4    0    0  0.45114574220E+02 -0.33456402937E+02 -0.23592454009E+02  0.60946019720E+02  0.17770000000E+01 0. -1.
        -16    1    4    4    0    0  0.35158385363E+02  0.40905353110E+02 -0.62191564923E+02  0.82323451834E+02  0.00000000000E+00 0.  1.
<mgrwt>
<rscale>  2 0.20425647E+03</rscale>
<asrwt>0</asrwt>
<pdfrwt beam="1">  1       21 0.11213189E+00 0.20429350E+03</pdfrwt>
<pdfrwt beam="2">  1       21 0.26608661E-01 0.20429350E+03</pdfrwt>
<totfact> 0.83081625E+03</totfact>
</mgrwt>
</event>
<event>
12    2  0.4097182E-002  0.2065207E+03  0.7546771E-02  0.1145453E+00
         21   -1    0    0  503  502  0.00000000000E+00  0.00000000000E+00  0.29769320500E+03  0.29769320500E+03  0.00000000000E+00 0.  1.
         21   -1    0    0  501  503 -0.00000000000E+00 -0.00000000000E+00 -0.13973997953E+03  0.13973997953E+03  0.00000000000E+00 0. -1.
          6    2    1    2  501    0 -0.60050812654E+02 -0.84752139805E+02  0.87626059633E+02  0.22434156785E+03  0.17849870430E+03 0.  0.
         24    2    3    3    0    0 -0.90751542478E+02 -0.99996625706E+02  0.33612776449E+02  0.16019755860E+03  0.79361649599E+02 0.  0.
         -6    2    1    2    0  502  0.60050812654E+02  0.84752139805E+02  0.70327165837E+02  0.21309161668E+03  0.17225882138E+03 0.  0.
        -24    2    5    5    0    0  0.83043004806E+02  0.11362166358E+03  0.66133996618E+02  0.17565149153E+03  0.81692826418E+02 0.  0.
          5    1    3    3  501    0  0.30700729825E+02  0.15244485901E+02  0.54013283184E+02  0.64144009249E+02  0.47000000000E+01 0. -1.
        -15    1    4    4    0    0 -0.69340054153E+02 -0.10268365362E+03  0.49462426471E+02  0.13342288107E+03  0.17770000000E+01 0.  1.
         16    1    4    4    0    0 -0.21411488326E+02  0.26870279156E+01 -0.15849650022E+02  0.26774677536E+02  0.00000000000E+00 0. -1.
         -5    1    5    5    0  502 -0.22992192152E+02 -0.28869523773E+02  0.41931692187E+01  0.37440125146E+02  0.47000000000E+01 0.  1.
         15    1    6    6    0    0  0.31754339974E+02 -0.39110900109E+01  0.15769356687E+01  0.32082381260E+02  0.17770000000E+01 0. -1.
        -16    1    6    6    0    0  0.51288664832E+02  0.11753275359E+03  0.64557060949E+02  0.14356911027E+03  0.00000000000E+00 0.  1.
<mgrwt>
<rscale>  2 0.20516526E+03</rscale>
<asrwt>0</asrwt>
<pdfrwt beam="1">  1       21 0.45798955E-01 0.20652073E+03</pdfrwt>
<pdfrwt beam="2">  1       21 0.21498458E-01 0.20652073E+03</pdfrwt>
<totfact> 0.91607893E+04</totfact>
</mgrwt>
</event>
<event>
12    2  0.4097182E-002  0.2732738E+03  0.7546771E-02  0.1099573E+00
         21   -1    0    0  501  502  0.00000000000E+00  0.00000000000E+00  0.29353644207E+03  0.29353644207E+03  0.00000000000E+00 0.  1.
         21   -1    0    0  502  503 -0.00000000000E+00 -0.00000000000E+00 -0.28001787071E+03  0.28001787071E+03  0.00000000000E+00 0. -1.
         -6    2    1    2    0  503  0.62191632159E+02 -0.20048889143E+03 -0.81640141037E+02  0.28520810818E+03  0.17497130522E+03 0.  0.
        -24    2    3    3    0    0  0.10734098282E+03 -0.16669284012E+03 -0.49038380669E+02  0.21989653395E+03  0.81493148947E+02 0.  0.
          6    2    1    2  501    0 -0.62191632159E+02  0.20048889143E+03  0.95158712395E+02  0.28834620460E+03  0.17327653755E+03 0.  0.
         24    2    5    5    0    0  0.46593744637E+01  0.16660937248E+03  0.10503702767E+03  0.21260618873E+03  0.79926350700E+02 0.  0.
          5    1    5    5  501    0 -0.66851006623E+02  0.33879518950E+02 -0.98783152766E+01  0.75740015866E+02  0.47000000000E+01 0. -1.
        -15    1    6    6    0    0 -0.26941106111E+02  0.42507966017E+02  0.59937176806E+01  0.50713240421E+02  0.17770000000E+01 0.  1.
         16    1    6    6    0    0  0.31600480574E+02  0.12410140646E+03  0.99043309991E+02  0.16189294831E+03  0.00000000000E+00 0. -1.
         -5    1    3    3    0  503 -0.45149350665E+02 -0.33796051311E+02 -0.32601760368E+02  0.65311574233E+02  0.47000000000E+01 0.  1.
         15    1    4    4    0    0  0.16347125384E+02 -0.90447881248E+02 -0.41726315850E+02  0.10095687641E+03  0.17770000000E+01 0. -1.
        -16    1    4    4    0    0  0.90993857440E+02 -0.76244958868E+02 -0.73120648192E+01  0.11893965754E+03  0.00000000000E+00 0.  1.
<mgrwt>
<rscale>  2 0.27300286E+03</rscale>
<asrwt>0</asrwt>
<pdfrwt beam="1">  1       21 0.45159453E-01 0.27327377E+03</pdfrwt>
<pdfrwt beam="2">  1       21 0.43079672E-01 0.27327377E+03</pdfrwt>
<totfact> 0.23406565E+04</totfact>
</mgrwt>
</event>
<event>
12    2  0.4097182E-002  0.2922857E+03  0.7546771E-02  0.1089829E+00
         21   -1    0    0  503  502  0.00000000000E+00  0.00000000000E+00  0.31006274352E+03  0.31006274352E+03  0.00000000000E+00 0.  1.
         21   -1    0    0  501  503 -0.00000000000E+00 -0.00000000000E+00 -0.29031466751E+03  0.29031466751E+03  0.00000000000E+00 0. -1.
          6    2    1    2  501    0  0.18376786719E+03  0.13804931613E+03  0.87926937321E+02  0.30522461229E+03  0.18056210828E+03 0.  0.
         24    2    3    3    0    0  0.99577785898E+02 -0.25399957038E+01  0.36607858902E+02  0.13344259286E+03  0.80898722075E+02 0.  0.
         -6    2    1    2    0  502 -0.18376786719E+03 -0.13804931613E+03 -0.68178861311E+02  0.29515279874E+03  0.17215857451E+03 0.  0.
        -24    2    5    5    0    0 -0.13074729940E+03 -0.17469595652E+02 -0.47526343749E+02  0.16173890860E+03  0.80626782980E+02 0.  0.
          5    1    3    3  501    0  0.84190081293E+02  0.14058931184E+03  0.51319078419E+02  0.17178201943E+03  0.47000000000E+01 0. -1.
        -15    1    4    4    0    0  0.68118333145E+02 -0.12443579293E+02  0.61097238280E+02  0.92363305650E+02  0.17770000000E+01 0.  1.
         16    1    4    4    0    0  0.31459452753E+02  0.99035835890E+01 -0.24489379378E+02  0.41079287211E+02  0.00000000000E+00 0. -1.
         -5    1    5    5    0  502 -0.53020567794E+02 -0.12057972048E+03 -0.20652517561E+02  0.13341389014E+03  0.47000000000E+01 0.  1.
         15    1    6    6    0    0 -0.23052196159E+02 -0.35806342817E+02 -0.27360316752E+02  0.50648224011E+02  0.17770000000E+01 0. -1.
        -16    1    6    6    0    0 -0.10769510324E+03  0.18336747165E+02 -0.20166026997E+02  0.11109068459E+03  0.00000000000E+00 0.  1.
<mgrwt>
<rscale>  2 0.29099837E+03</rscale>
<asrwt>0</asrwt>
<pdfrwt beam="1">  1       21 0.47701960E-01 0.29228568E+03</pdfrwt>
<pdfrwt beam="2">  1       21 0.44663795E-01 0.29228568E+03</pdfrwt>
<totfact> 0.19229627E+04</totfact>
</mgrwt>
</event>
<event>
12    2  0.4097182E-002  0.3306594E+03  0.7546771E-02  0.1070965E+00
         21   -1    0    0  501  502  0.00000000000E+00  0.00000000000E+00  0.15322232912E+04  0.15322232912E+04  0.00000000000E+00 0. -1.
         21   -1    0    0  502  503 -0.00000000000E+00 -0.00000000000E+00 -0.80573900119E+02  0.80573900119E+02  0.00000000000E+00 0. -1.
         -6    2    1    2    0  503  0.66853770168E+02  0.27341828482E+03  0.10030376288E+04  0.10561345200E+04  0.17351845601E+03 0.  0.
        -24    2    3    3    0    0  0.35336477367E+02  0.11632064175E+03  0.68103057617E+03  0.69643514397E+03  0.80250269458E+02 0.  0.
          6    2    1    2  501    0 -0.66853770168E+02 -0.27341828482E+03  0.44861176230E+03  0.55666267130E+03  0.17144629270E+03 0.  0.
         24    2    5    5    0    0 -0.98349924986E+02 -0.13802520169E+03  0.21879757640E+03  0.28803663985E+03  0.79806405839E+02 0.  0.
          5    1    5    5  501    0  0.31496154818E+02 -0.13539308313E+03  0.22981418591E+03  0.26862603145E+03  0.47000000000E+01 0. -1.
        -15    1    6    6    0    0 -0.72705482552E+02 -0.45652052579E+02  0.13862103711E+03  0.16306178815E+03  0.17770000000E+01 0.  1.
         16    1    6    6    0    0 -0.25644442434E+02 -0.92373149114E+02  0.80176539293E+02  0.12497485170E+03  0.00000000000E+00 0. -1.
         -5    1    3    3    0  503  0.31517292801E+02  0.15709764307E+03  0.32200705263E+03  0.35969937607E+03  0.47000000000E+01 0.  1.
         15    1    4    4    0    0  0.17339076420E+02  0.85105183303E+02  0.26562378944E+03  0.27946858686E+03  0.17770000000E+01 0. -1.
        -16    1    4    4    0    0  0.17997400947E+02  0.31215458451E+02  0.41540678673E+03  0.41696655711E+03  0.00000000000E+00 0.  1.
<mgrwt>
<rscale>  2 0.33038840E+03</rscale>
<asrwt>0</asrwt>
<pdfrwt beam="1">  1       21 0.23572664E+00 0.33065940E+03</pdfrwt>
<pdfrwt beam="2">  1       21 0.12395986E-01 0.33065940E+03</pdfrwt>
<totfact> 0.40168287E+03</totfact>
</mgrwt>
</event>
<event>
12    2  0.4097182E-002  0.2757769E+03  0.7546771E-02  0.1098218E+00
         21   -1    0    0  501  502  0.00000000000E+00  0.00000000000E+00  0.46505798759E+03  0.46505798759E+03  0.00000000000E+00 0. -1.
         21   -1    0    0  502  503 -0.00000000000E+00 -0.00000000000E+00 -0.21424172389E+03  0.21424172389E+03  0.00000000000E+00 0.  1.
         -6    2    1    2    0  503 -0.18590274581E+03  0.10797916998E+03 -0.41455794213E+02  0.27745912682E+03  0.17042785023E+03 0.  0.
        -24    2    3    3    0    0 -0.81516542850E+02  0.69090522160E+02  0.41065994338E+02  0.13874812551E+03  0.78397572872E+02 0.  0.
          6    2    1    2  501    0  0.18590274581E+03 -0.10797916998E+03  0.29227205791E+03  0.40184058465E+03  0.17272396357E+03 0.  0.
         24    2    5    5    0    0  0.28983759489E+02 -0.72327986993E+02  0.88845269740E+02  0.14241983903E+03  0.79489197861E+02 0.  0.
          5    1    5    5  501    0  0.15691898632E+03 -0.35651182989E+02  0.20342678817E+03  0.25942074563E+03  0.47000000000E+01 0. -1.
        -15    1    6    6    0    0 -0.31466736136E+01 -0.28548959389E+02 -0.93088738060E+01  0.30244958217E+02  0.17770000000E+01 0.  1.
         16    1    6    6    0    0  0.32130433103E+02 -0.43779027604E+02  0.98154143546E+02  0.11217488081E+03  0.00000000000E+00 0. -1.
         -5    1    3    3    0  503 -0.10438620296E+03  0.38888647822E+02 -0.82521788550E+02  0.13871100131E+03  0.47000000000E+01 0.  1.
         15    1    4    4    0    0 -0.14112150444E+01 -0.76260474990E+01 -0.13089139100E+02  0.15317683237E+02  0.17770000000E+01 0. -1.
        -16    1    4    4    0    0 -0.80105327806E+02  0.76716569659E+02  0.54155133438E+02  0.12343044228E+03  0.00000000000E+00 0.  1.
<mgrwt>
<rscale>  2 0.27541814E+03</rscale>
<asrwt>0</asrwt>
<pdfrwt beam="1">  1       21 0.71547382E-01 0.27577690E+03</pdfrwt>
<pdfrwt beam="2">  1       21 0.32960265E-01 0.27577690E+03</pdfrwt>
<totfact> 0.14945302E+04</totfact>
</mgrwt>
</event>
<event>
12    2  0.4097182E-002  0.1760880E+03  0.7546771E-02  0.1171901E+00
         21   -1    0    0  503  502  0.00000000000E+00  0.00000000000E+00  0.24926600800E+02  0.24926600800E+02  0.00000000000E+00 0. -1.
         21   -1    0    0  501  503 -0.00000000000E+00 -0.00000000000E+00 -0.24580062993E+04  0.24580062993E+04  0.00000000000E+00 0. -1.
          6    2    1    2  501    0 -0.21252527220E+02  0.20121117218E+02 -0.20934415048E+04  0.21008341983E+04  0.17363889411E+03 0.  0.
         24    2    3    3    0    0 -0.70951725583E+02  0.48274061150E-01 -0.93853191308E+03  0.94467193272E+03  0.80800735824E+02 0.  0.
         -6    2    1    2    0  502  0.21252527220E+02 -0.20121117218E+02 -0.33963819367E+03  0.38209870175E+03  0.17259428150E+03 0.  0.
        -24    2    5    5    0    0  0.50415815608E+01  0.48193089717E+02 -0.25752853480E+03  0.27396123503E+03  0.79911329747E+02 0.  0.
          5    1    3    3  501    0  0.49699198363E+02  0.20072843157E+02 -0.11549095917E+04  0.11561622656E+04  0.47000000000E+01 0. -1.
        -15    1    4    4    0    0 -0.46877911643E+02  0.35055138948E+02 -0.37548682915E+03  0.38002620694E+03  0.17770000000E+01 0.  1.
         16    1    4    4    0    0 -0.24073813940E+02 -0.35006864887E+02 -0.56304508393E+03  0.56464572578E+03  0.00000000000E+00 0. -1.
         -5    1    5    5    0  502  0.16210945659E+02 -0.68314206935E+02 -0.82109658868E+02  0.10813746672E+03  0.47000000000E+01 0.  1.
         15    1    6    6    0    0  0.52546205797E+01  0.81540631381E+00  0.48048997753E+01  0.73838144440E+01  0.17770000000E+01 0. -1.
        -16    1    6    6    0    0 -0.21303901885E+00  0.47377683404E+02 -0.26233343458E+03  0.26657742059E+03  0.00000000000E+00 0.  1.
<mgrwt>
<rscale>  2 0.17582997E+03</rscale>
<asrwt>0</asrwt>
<pdfrwt beam="1">  1       21 0.38348627E-02 0.17608803E+03</pdfrwt>
<pdfrwt beam="2">  1       21 0.37815472E+00 0.17608803E+03</pdfrwt>
<totfact> 0.51065395E+03</totfact>
</mgrwt>
</event>
<event>
12    2  0.4097182E-002  0.2226192E+03  0.7546771E-02  0.1131985E+00
         21   -1    0    0  501  502  0.00000000000E+00  0.00000000000E+00  0.72941942621E+03  0.72941942621E+03  0.00000000000E+00 0.  1.
         21   -1    0    0  502  503 -0.00000000000E+00 -0.00000000000E+00 -0.14185208039E+03  0.14185208039E+03  0.00000000000E+00 0. -1.
         -6    2    1    2    0  503 -0.13394967083E+03 -0.43951729971E+02  0.60844128798E+03  0.64788896841E+03  0.17229348679E+03 0.  0.
        -24    2    3    3    0    0 -0.67525807569E+02 -0.82043252672E+02  0.48070101300E+03  0.49888305724E+03  0.80746584484E+02 0.  0.
          6    2    1    2  501    0  0.13394967083E+03  0.43951729971E+02 -0.20873942156E+02  0.22338253820E+03  0.17201676671E+03 0.  0.
         24    2    5    5    0    0  0.15951678553E+03  0.42959334792E+02 -0.43193374310E+02  0.18910558889E+03  0.81265902156E+02 0.  0.
          5    1    5    5  501    0 -0.25567114702E+02  0.99239517926E+00  0.22319432153E+02  0.34276949310E+02  0.47000000000E+01 0. -1.
        -15    1    6    6    0    0  0.18115269362E+02  0.19179212743E+02  0.19255074014E+02  0.32709643682E+02  0.17770000000E+01 0.  1.
         16    1    6    6    0    0  0.14140151617E+03  0.23780122049E+02 -0.62448448324E+02  0.15639594521E+03  0.00000000000E+00 0. -1.
         -5    1    3    3    0  503 -0.66423863259E+02  0.38091522701E+02  0.12774027498E+03  0.14900591117E+03  0.47000000000E+01 0.  1.
         15    1    4    4    0    0 -0.33685518334E+02 -0.55953865392E+01  0.52894764505E+02  0.62984413445E+02  0.17770000000E+01 0. -1.
        -16    1    4    4    0    0 -0.33840289235E+02 -0.76447866133E+02  0.42780624849E+03  0.43589864379E+03  0.00000000000E+00 0.  1.
<mgrwt>
<rscale>  2 0.22256567E+03</rscale>
<asrwt>0</asrwt>
<pdfrwt beam="1">  1       21 0.11221837E+00 0.22261921E+03</pdfrwt>
<pdfrwt beam="2">  1       21 0.21823397E-01 0.22261921E+03</pdfrwt>
<totfact> 0.11953680E+04</totfact>
</mgrwt>
</event>
<event>
12    2  0.4097182E-002  0.1751424E+03  0.7546771E-02  0.1173084E+00
         21   -1    0    0  503  502  0.00000000000E+00  0.00000000000E+00  0.28990231633E+03  0.28990231633E+03  0.00000000000E+00 0.  1.
         21   -1    0    0  501  503 -0.00000000000E+00 -0.00000000000E+00 -0.15793691286E+03  0.15793691286E+03  0.00000000000E+00 0.  1.
          6    2    1    2  501    0 -0.13159858130E+02  0.23528204692E+02 -0.64353674985E+02  0.18474978218E+03  0.17106819766E+03 0.  0.
         24    2    3    3    0    0 -0.23722560040E+02  0.61183969846E+02 -0.89308057096E+02  0.13811997940E+03  0.82431557220E+02 0.  0.
         -6    2    1    2    0  502  0.13159858130E+02 -0.23528204692E+02  0.19631907845E+03  0.26308944701E+03  0.17305524634E+03 0.  0.
        -24    2    5    5    0    0  0.48085770830E+02 -0.86514470273E+01  0.39462987761E+02  0.10163648023E+03  0.79909685390E+02 0.  0.
          5    1    3    3  501    0  0.10562701910E+02 -0.37655765154E+02  0.24954382110E+02  0.46629802782E+02  0.47000000000E+01 0. -1.
        -15    1    4    4    0    0  0.11357117124E+02  0.43847054859E+02 -0.55436528608E+01  0.45666597697E+02  0.17770000000E+01 0.  1.
         16    1    4    4    0    0 -0.35079677164E+02  0.17336914987E+02 -0.83764404235E+02  0.92453381701E+02  0.00000000000E+00 0. -1.
         -5    1    5    5    0  502 -0.34925912700E+02 -0.14876757665E+02  0.15685609069E+03  0.16145296678E+03  0.47000000000E+01 0.  1.
         15    1    6    6    0    0  0.49475997191E+02  0.12645635490E+02  0.55124514615E+02  0.75164195170E+02  0.17770000000E+01 0. -1.
        -16    1    6    6    0    0 -0.13902263609E+01 -0.21297082517E+02 -0.15661526854E+02  0.26472285063E+02  0.00000000000E+00 0.  1.
<mgrwt>
<rscale>  2 0.17464960E+03</rscale>
<asrwt>0</asrwt>
<pdfrwt beam="1">  1       21 0.44600356E-01 0.17514245E+03</pdfrwt>
<pdfrwt beam="2">  1       21 0.24297987E-01 0.17514245E+03</pdfrwt>
<totfact> 0.77743152E+04</totfact>
</mgrwt>
</event>
<event>
12    2  0.4097182E-002  0.2641912E+03  0.7546771E-02  0.1104904E+00
         21   -1    0    0  503  502  0.00000000000E+00  0.00000000000E+00  0.21070153252E+03  0.21070153252E+03  0.00000000000E+00 0. -1.
         21   -1    0    0  501  503 -0.00000000000E+00 -0.00000000000E+00 -0.64799171410E+03  0.64799171410E+03  0.00000000000E+00 0. -1.
          6    2    1    2  501    0 -0.10194704105E+03  0.17054906427E+03 -0.52019324398E+03  0.58343638603E+03  0.17411726784E+03 0.  0.
         24    2    3    3    0    0 -0.26042771830E+02  0.95568829987E+02 -0.14411342460E+03  0.19248675479E+03  0.80441558860E+02 0.  0.
         -6    2    1    2    0  502  0.10194704105E+03 -0.17054906427E+03  0.82903062401E+02  0.27525686059E+03  0.17150288350E+03 0.  0.
        -24    2    5    5    0    0  0.96775315387E+02 -0.15468807847E+03  0.88982463493E+01  0.19924948980E+03  0.79544434790E+02 0.  0.
          5    1    3    3  501    0 -0.75904269217E+02  0.74980234284E+02 -0.37607981938E+03  0.39094963124E+03  0.47000000000E+01 0. -1.
        -15    1    4    4    0    0  0.25135858647E+02  0.84964534098E+01 -0.31072951709E+02  0.40898498351E+02  0.17770000000E+01 0.  1.
         16    1    4    4    0    0 -0.51178630477E+02  0.87072376577E+02 -0.11304047289E+03  0.15158825644E+03  0.00000000000E+00 0. -1.
         -5    1    5    5    0  502  0.51717256596E+01 -0.15860985797E+02  0.74004816052E+02  0.76007370798E+02  0.47000000000E+01 0.  1.
         15    1    6    6    0    0 -0.37593570190E+01 -0.32666026334E+02 -0.19999480089E+02  0.38527119986E+02  0.17770000000E+01 0. -1.
        -16    1    6    6    0    0  0.10053467241E+03 -0.12202205214E+03  0.28897726438E+02  0.16072236981E+03  0.00000000000E+00 0.  1.
<mgrwt>
<rscale>  2 0.26376126E+03</rscale>
<asrwt>0</asrwt>
<pdfrwt beam="1">  1       21 0.32415621E-01 0.26419123E+03</pdfrwt>
<pdfrwt beam="2">  1       21 0.99691032E-01 0.26419123E+03</pdfrwt>
<totfact> 0.72275317E+03</totfact>
</mgrwt>
</event>
<event>
12    2  0.4097182E-002  0.2764586E+03  0.7546771E-02  0.1097747E+00
         21   -1    0    0  501  502  0.00000000000E+00  0.00000000000E+00  0.13647320384E+03  0.13647320384E+03  0.00000000000E+00 0.  1.
         21   -1    0    0  502  503 -0.00000000000E+00 -0.00000000000E+00 -0.58101203227E+03  0.58101203227E+03  0.00000000000E+00 0.  1.
         -6    2    1    2    0  503  0.18288406844E+03  0.11190499196E+03 -0.29324529208E+03  0.40301632875E+03  0.17452807853E+03 0.  0.
        -24    2    3    3    0    0  0.26791742493E+02 -0.30198687455E+01 -0.99327955366E+02  0.12879276794E+03  0.77424913833E+02 0.  0.
          6    2    1    2  501    0 -0.18288406844E+03 -0.11190499196E+03 -0.15129353634E+03  0.31446890736E+03  0.17329642189E+03 0.  0.
         24    2    5    5    0    0 -0.10815392553E+03  0.40735125744E+01 -0.59290756673E+02  0.14857071798E+03  0.82728467294E+02 0.  0.
          5    1    5    5  501    0 -0.74730142908E+02 -0.11597850453E+03 -0.92002779671E+02  0.16589818938E+03  0.47000000000E+01 0. -1.
        -15    1    6    6    0    0 -0.69115260721E+02  0.33592418802E+02 -0.63143331823E+02  0.99476670371E+02  0.17770000000E+01 0.  1.
         16    1    6    6    0    0 -0.39038664811E+02 -0.29518906228E+02  0.38525751492E+01  0.49094047606E+02  0.00000000000E+00 0. -1.
         -5    1    3    3    0  503  0.15609232595E+03  0.11492486070E+03 -0.19391733672E+03  0.27422356081E+03  0.47000000000E+01 0.  1.
         15    1    4    4    0    0  0.71575401911E+00 -0.22327881781E+02  0.19016136233E+01  0.22490452908E+02  0.17770000000E+01 0. -1.
        -16    1    4    4    0    0  0.26075988474E+02  0.19308013036E+02 -0.10122956899E+03  0.10630231503E+03  0.00000000000E+00 0.  1.
<mgrwt>
<rscale>  2 0.27626443E+03</rscale>
<asrwt>0</asrwt>
<pdfrwt beam="1">  1       21 0.20995878E-01 0.27645860E+03</pdfrwt>
<pdfrwt beam="2">  1       21 0.89386466E-01 0.27645860E+03</pdfrwt>
<totfact> 0.21534810E+04</totfact>
</mgrwt>
</event>
<event>
12    2  0.4097182E-002  0.1874504E+03  0.7546771E-02  0.1160874E+00
         21   -1    0    0  503  502  0.00000000000E+00  0.00000000000E+00  0.48761228516E+02  0.48761228516E+02  0.00000000000E+00 0.  1.
         21   -1    0    0  501  503 -0.00000000000E+00 -0.00000000000E+00 -0.76205348969E+03  0.76205348969E+03  0.00000000000E+00 0.  1.
          6    2    1    2  501    0  0.71258390312E+02  0.58707590361E+00 -0.45258630674E+03  0.48971467383E+03  0.17293927798E+03 0.  0.
         24    2    3    3    0    0 -0.96028298004E+01 -0.24956932776E+02 -0.11913882044E+03  0.14562115541E+03  0.79349855284E+02 0.  0.
         -6    2    1    2    0  502 -0.71258390312E+02 -0.58707590361E+00 -0.26070595444E+03  0.32110004438E+03  0.17337687555E+03 0.  0.
        -24    2    5    5    0    0 -0.82157567780E+02  0.55098241875E+02 -0.20674636807E+03  0.24265660204E+03  0.79702469234E+02 0.  0.
          5    1    3    3  501    0  0.80861220112E+02  0.25544008680E+02 -0.33344748630E+03  0.34409351842E+03  0.47000000000E+01 0. -1.
        -15    1    4    4    0    0  0.12279205494E+02  0.18697363114E+02 -0.79859778911E+02  0.82952470076E+02  0.17770000000E+01 0.  1.
         16    1    4    4    0    0 -0.21882035294E+02 -0.43654295890E+02 -0.39279041531E+02  0.62668685337E+02  0.00000000000E+00 0. -1.
         -5    1    5    5    0  502  0.10899177468E+02 -0.55685317779E+02 -0.53959586372E+02  0.78443442346E+02  0.47000000000E+01 0.  1.
         15    1    6    6    0    0  0.12987454422E+02 -0.39869141633E+01 -0.35346013492E+02  0.37908677841E+02  0.17770000000E+01 0. -1.
        -16    1    6    6    0    0 -0.95145022202E+02  0.59085156038E+02 -0.17140035457E+03  0.20474792419E+03  0.00000000000E+00 0.  1.
<mgrwt>
<rscale>  2 0.18734913E+03</rscale>
<asrwt>0</asrwt>
<pdfrwt beam="1">  1       21 0.75017272E-02 0.18745038E+03</pdfrwt>
<pdfrwt beam="2">  1       21 0.11723900E+00 0.18745038E+03</pdfrwt>
<totfact> 0.75230927E+04</totfact>
</mgrwt>
</event>
<event>
12    2  0.4097182E-002  0.1880088E+03  0.7546771E-02  0.1160581E+00
         21   -1    0    0  503  502  0.00000000000E+00  0.00000000000E+00  0.32957484119E+02  0.32957484119E+02  0.00000000000E+00 0. -1.
         21   -1    0    0  501  503 -0.00000000000E+00 -0.00000000000E+00 -0.12524674879E+04  0.12524674879E+04  0.00000000000E+00 0.  1.
          6    2    1    2  501    0  0.51360077487E+02  0.52038288815E+02 -0.85667608634E+03  0.87677384371E+03  0.17173414059E+03 0.  0.
         24    2    3    3    0    0 -0.11517850162E+02  0.79575225321E+02 -0.57380999703E+03  0.58566006674E+03  0.85293163448E+02 0.  0.
         -6    2    1    2    0  502 -0.51360077487E+02 -0.52038288815E+02 -0.36283391741E+03  0.40865112828E+03  0.17320927215E+03 0.  0.
        -24    2    5    5    0    0 -0.66532831071E+02  0.26770696981E+02 -0.20896016973E+03  0.23504154064E+03  0.80230202960E+02 0.  0.
          5    1    3    3  501    0  0.62877927649E+02 -0.27536936506E+02 -0.28286608932E+03  0.29111377697E+03  0.47000000000E+01 0. -1.
        -15    1    4    4    0    0  0.11701643137E+02  0.66536052796E+02 -0.53071829791E+03  0.53500377965E+03  0.17770000000E+01 0.  1.
         16    1    4    4    0    0 -0.23219493299E+02  0.13039172525E+02 -0.43091699118E+02  0.50656287093E+02  0.00000000000E+00 0. -1.
         -5    1    5    5    0  502  0.15172753585E+02 -0.78808985796E+02 -0.15387374768E+03  0.17360958764E+03  0.47000000000E+01 0.  1.
         15    1    6    6    0    0  0.11071180476E+02  0.23580730698E+02 -0.28925527925E+02  0.38967496611E+02  0.17770000000E+01 0. -1.
        -16    1    6    6    0    0 -0.77604011548E+02  0.31899662832E+01 -0.18003464180E+03  0.19607404403E+03  0.00000000000E+00 0.  1.
<mgrwt>
<rscale>  2 0.18766830E+03</rscale>
<asrwt>0</asrwt>
<pdfrwt beam="1">  1       21 0.50703822E-02 0.18800876E+03</pdfrwt>
<pdfrwt beam="2">  1       21 0.19268731E+00 0.18800876E+03</pdfrwt>
<totfact> 0.39461723E+04</totfact>
</mgrwt>
</event>
<event>
12    2  0.4097182E-002  0.2158815E+03  0.7546771E-02  0.1137004E+00
         21   -1    0    0  503  502  0.00000000000E+00  0.00000000000E+00  0.44379508340E+03  0.44379508340E+03  0.00000000000E+00 0.  1.
         21   -1    0    0  501  503 -0.00000000000E+00 -0.00000000000E+00 -0.57963606977E+03  0.57963606977E+03  0.00000000000E+00 0.  1.
          6    2    1    2  501    0 -0.36055983494E+01  0.12877168238E+03 -0.53098101228E+03  0.57316406530E+03  0.17315040810E+03 0.  0.
         24    2    3    3    0    0  0.78087113265E+01  0.19124383551E+02 -0.36427423301E+03  0.37324894115E+03  0.78691405002E+02 0.  0.
         -6    2    1    2    0  502  0.36055983494E+01 -0.12877168238E+03  0.39514002591E+03  0.45026708787E+03  0.17323297554E+03 0.  0.
        -24    2    5    5    0    0  0.25155205622E+02 -0.14932316773E+03  0.36860035887E+03  0.41010251330E+03  0.96889906914E+02 0.  0.
          5    1    3    3  501    0 -0.11414309676E+02  0.10964729883E+03 -0.16670677928E+03  0.19991512415E+03  0.47000000000E+01 0. -1.
        -15    1    4    4    0    0  0.31286619535E+02  0.31646865955E+02 -0.12893652979E+03  0.13641174118E+03  0.17770000000E+01 0.  1.
         16    1    4    4    0    0 -0.23477908208E+02 -0.12522482404E+02 -0.23533770321E+03  0.23683719998E+03  0.00000000000E+00 0. -1.
         -5    1    5    5    0  502 -0.21549607273E+02  0.20551485350E+02  0.26539667044E+02  0.40164574571E+02  0.47000000000E+01 0.  1.
         15    1    6    6    0    0  0.37709248167E+01 -0.66264936414E+02  0.58934721851E+02  0.88779056317E+02  0.17770000000E+01 0. -1.
        -16    1    6    6    0    0  0.21384280805E+02 -0.83058231321E+02  0.30966563702E+03  0.32132345698E+03  0.00000000000E+00 0.  1.
<mgrwt>
<rscale>  2 0.21586491E+03</rscale>
<asrwt>0</asrwt>
<pdfrwt beam="1">  1       21 0.68276167E-01 0.21588147E+03</pdfrwt>
<pdfrwt beam="2">  1       21 0.89174780E-01 0.21588147E+03</pdfrwt>
<totfact> 0.20584254E+03</totfact>
</mgrwt>
</event>
<event>
12    2  0.4097182E-002  0.2936893E+03  0.7546771E-02  0.1088444E+00
         21   -1    0    0  501  502  0.00000000000E+00  0.00000000000E+00  0.68794949534E+03  0.68794949534E+03  0.00000000000E+00 0. -1.
         21   -1    0    0  502  503 -0.00000000000E+00 -0.00000000000E+00 -0.13561486929E+03  0.13561486929E+03  0.00000000000E+00 0. -1.
         -6    2    1    2    0  503 -0.16891156587E+03  0.16629292409E+03  0.38938222697E+03  0.48769700313E+03  0.17333607384E+03 0.  0.
        -24    2    3    3    0    0 -0.13649190889E+03  0.61545739971E+02  0.16319746676E+03  0.23629166808E+03  0.82355448794E+02 0.  0.
          6    2    1    2  501    0  0.16891156587E+03 -0.16629292409E+03  0.16295239908E+03  0.33586736151E+03  0.17340399786E+03 0.  0.
         24    2    5    5    0    0  0.13182429127E+03 -0.12200881355E+03  0.56037942029E+02  0.21425593314E+03  0.10247711737E+03 0.  0.
          5    1    5    5  501    0  0.37087274593E+02 -0.44284110540E+02  0.10691445705E+03  0.12161142837E+03  0.47000000000E+01 0. -1.
        -15    1    6    6    0    0  0.11079983811E+03 -0.43232022899E+02  0.70948603500E+01  0.11916000462E+03  0.17770000000E+01 0.  1.
         16    1    6    6    0    0  0.21024453162E+02 -0.78776790649E+02  0.48943081679E+02  0.95095928514E+02  0.00000000000E+00 0. -1.
         -5    1    3    3    0  503 -0.32419656974E+02  0.10474718412E+03  0.22618476021E+03  0.25140533505E+03  0.47000000000E+01 0.  1.
         15    1    4    4    0    0 -0.51085039112E+02 -0.26317490330E+01  0.99549105120E+02  0.11193654177E+03  0.17770000000E+01 0. -1.
        -16    1    4    4    0    0 -0.85406869780E+02  0.64177489004E+02  0.63648361639E+02  0.12435512631E+03  0.00000000000E+00 0.  1.
<mgrwt>
<rscale>  2 0.29367927E+03</rscale>
<asrwt>0</asrwt>
<pdfrwt beam="1">  1       21 0.10583838E+00 0.29368929E+03</pdfrwt>
<pdfrwt beam="2">  1       21 0.20863826E-01 0.29368929E+03</pdfrwt>
<totfact> 0.14458606E+04</totfact>
</mgrwt>
</event>
<event>
12    2  0.4097182E-002  0.1868085E+03  0.7546771E-02  0.1161545E+00
         21   -1    0    0  503  502  0.00000000000E+00  0.00000000000E+00  0.44718788966E+02  0.44718788966E+02  0.00000000000E+00 0. -1.
         21   -1    0    0  501  503 -0.00000000000E+00 -0.00000000000E+00 -0.90152700795E+03  0.90152700795E+03  0.00000000000E+00 0. -1.
          6    2    1    2  501    0  0.41444103248E+02  0.57359030094E+02 -0.60332566599E+03  0.63136354030E+03  0.17207669438E+03 0.  0.
         24    2    3    3    0    0 -0.18850700489E+02  0.28672027262E+02 -0.15105835157E+03  0.17416968516E+03  0.79617960234E+02 0.  0.
         -6    2    1    2    0  502 -0.41444103248E+02 -0.57359030094E+02 -0.25348255300E+03  0.31488225662E+03  0.17288654902E+03 0.  0.
        -24    2    5    5    0    0  0.92795070982E+01 -0.67365023028E+02 -0.79017305331E+02  0.13285693645E+03  0.82359428364E+02 0.  0.
          5    1    3    3  501    0  0.60294803737E+02  0.28687002833E+02 -0.45226731441E+03  0.45719385514E+03  0.47000000000E+01 0. -1.
        -15    1    4    4    0    0 -0.23763715647E+02 -0.23958645158E+02 -0.61698288846E+02  0.70346054862E+02  0.17770000000E+01 0.  1.
         16    1    4    4    0    0  0.49130151575E+01  0.52630672419E+02 -0.89360062729E+02  0.10382363030E+03  0.00000000000E+00 0. -1.
         -5    1    5    5    0  502 -0.50723610346E+02  0.10005992933E+02 -0.17446524767E+03  0.18202532017E+03  0.47000000000E+01 0.  1.
         15    1    6    6    0    0  0.39422428502E+02 -0.12597407235E+02 -0.46899687909E+02  0.62574443609E+02  0.17770000000E+01 0. -1.
        -16    1    6    6    0    0 -0.30142921404E+02 -0.54767615792E+02 -0.32117617422E+02  0.70282492836E+02  0.00000000000E+00 0.  1.
<mgrwt>
<rscale>  2 0.18662095E+03</rscale>
<asrwt>0</asrwt>
<pdfrwt beam="1">  1       21 0.68798137E-02 0.18680854E+03</pdfrwt>
<pdfrwt beam="2">  1       21 0.13869646E+00 0.18680854E+03</pdfrwt>
<totfact> 0.57308316E+04</totfact>
</mgrwt>
</event>
<event>
12    2  0.4097182E-002  0.2314057E+03  0.7546771E-02  0.1125769E+00
         21   -1    0    0  503  502  0.00000000000E+00  0.00000000000E+00  0.56112561811E+03  0.56112561811E+03  0.00000000000E+00 0. -1.
         21   -1    0    0  501  503 -0.00000000000E+00 -0.00000000000E+00 -0.10672398273E+03  0.10672398273E+03  0.00000000000E+00 0.  1.
          6    2    1    2  501    0  0.17006054427E+02  0.15227270980E+03  0.11756789415E+03  0.25955884516E+03  0.17341395655E+03 0.  0.
         24    2    3    3    0    0 -0.21096843206E+02  0.15656090782E+03  0.12865541638E+03  0.21936876430E+03  0.81326772544E+02 0.  0.
         -6    2    1    2    0  502 -0.17006054427E+02 -0.15227270980E+03  0.33683374123E+03  0.40829075569E+03  0.17253459920E+03 0.  0.
        -24    2    5    5    0    0  0.27646341100E+02 -0.11918604184E+03  0.31670728459E+03  0.34899717864E+03  0.80783004648E+02 0.  0.
          5    1    3    3  501    0  0.38102897633E+02 -0.42881980244E+01 -0.11087522230E+02  0.40190080860E+02  0.47000000000E+01 0. -1.
        -15    1    4    4    0    0  0.14438525399E+02  0.28338973259E+02 -0.32395464380E+01  0.32019069493E+02  0.17770000000E+01 0.  1.
         16    1    4    4    0    0 -0.35535368604E+02  0.12822193456E+03  0.13189496282E+03  0.18734969480E+03  0.00000000000E+00 0. -1.
         -5    1    5    5    0  502 -0.44652395527E+02 -0.33086667958E+02  0.20126456632E+02  0.59293577051E+02  0.47000000000E+01 0.  1.
         15    1    6    6    0    0  0.33709284760E+02 -0.74789387851E+02  0.10856087899E+03  0.13608229345E+03  0.17770000000E+01 0. -1.
        -16    1    6    6    0    0 -0.60629436603E+01 -0.44396653988E+02  0.20814640560E+03  0.21291488519E+03  0.00000000000E+00 0.  1.
<mgrwt>
<rscale>  2 0.23124093E+03</rscale>
<asrwt>0</asrwt>
<pdfrwt beam="1">  1       21 0.86327017E-01 0.23140567E+03</pdfrwt>
<pdfrwt beam="2">  1       21 0.16419074E-01 0.23140567E+03</pdfrwt>
<totfact> 0.37706981E+04</totfact>
</mgrwt>
</event>
<event>
12    2  0.4097182E-002  0.1881232E+03  0.7546771E-02  0.1160183E+00
         21   -1    0    0  501  502  0.00000000000E+00  0.00000000000E+00  0.66508659819E+02  0.66508659819E+02  0.00000000000E+00 0. -1.
         21   -1    0    0  502  503 -0.00000000000E+00 -0.00000000000E+00 -0.57231204360E+03  0.57231204360E+03  0.00000000000E+00 0. -1.
         -6    2    1    2    0  503  0.65892667780E+02 -0.33527042402E+02 -0.16797583778E+03  0.25214538563E+03  0.17290317283E+03 0.  0.
        -24    2    3    3    0    0 -0.22840696565E+02 -0.88891575122E+01 -0.94722905373E+02  0.13437986679E+03  0.92113002645E+02 0.  0.
          6    2    1    2  501    0 -0.65892667780E+02  0.33527042402E+02 -0.33782754600E+03  0.38667531779E+03  0.17298683277E+03 0.  0.
         24    2    5    5    0    0 -0.45478111909E+02 -0.40618196067E+02 -0.24481174285E+03  0.26589328223E+03  0.83954461360E+02 0.  0.
          5    1    5    5  501    0 -0.20414555872E+02  0.74145238469E+02 -0.93015803152E+02  0.12078203556E+03  0.47000000000E+01 0. -1.
        -15    1    6    6    0    0  0.11878576560E+02 -0.43979006321E+02 -0.12400297575E+03  0.13211793709E+03  0.17770000000E+01 0.  1.
         16    1    6    6    0    0 -0.57356688469E+02  0.33608102540E+01 -0.12080876710E+03  0.13377534514E+03  0.00000000000E+00 0. -1.
         -5    1    3    3    0  503  0.88733364346E+02 -0.24637884890E+02 -0.73252932410E+02  0.11776551884E+03  0.47000000000E+01 0.  1.
         15    1    4    4    0    0  0.30082710512E+02 -0.25079719890E+02 -0.47792578221E+02  0.61816260672E+02  0.17770000000E+01 0. -1.
        -16    1    4    4    0    0 -0.52923407077E+02  0.16190562377E+02 -0.46930327152E+02  0.72563606121E+02  0.00000000000E+00 0.  1.
<mgrwt>
<rscale>  2 0.18810400E+03</rscale>
<asrwt>0</asrwt>
<pdfrwt beam="1">  1       21 0.10232102E-01 0.18812323E+03</pdfrwt>
<pdfrwt beam="2">  1       21 0.88048005E-01 0.18812323E+03</pdfrwt>
<totfact> 0.86276056E+04</totfact>
</mgrwt>
</event>
<event>
12    2  0.4097182E-002  0.2112201E+03  0.7546771E-02  0.1141251E+00
         21   -1    0    0  501  502  0.00000000000E+00  0.00000000000E+00  0.37039337945E+03  0.37039337945E+03  0.00000000000E+00 0.  1.
         21   -1    0    0  502  503 -0.00000000000E+00 -0.00000000000E+00 -0.14712927832E+03  0.14712927832E+03  0.00000000000E+00 0.  1.
         -6    2    1    2    0  503  0.54627978929E+02 -0.11325142581E+03 -0.30238006078E+01  0.20797438583E+03  0.16563242515E+03 0.  0.
        -24    2    3    3    0    0  0.94386714399E+02 -0.56630419906E+02  0.76340495240E+01  0.13781474554E+03  0.82575838249E+02 0.  0.
          6    2    1    2  501    0 -0.54627978929E+02  0.11325142581E+03  0.22628790173E+03  0.30954827195E+03  0.16971687208E+03 0.  0.
         24    2    5    5    0    0  0.20591777331E+02  0.48535557197E+02  0.17525452641E+03  0.19786724949E+03  0.75216871685E+02 0.  0.
          5    1    5    5  501    0 -0.75219756260E+02  0.64715868610E+02  0.51033375326E+02  0.11168102247E+03  0.47000000000E+01 0. -1.
        -15    1    6    6    0    0 -0.23898999323E+02  0.30338708326E+02  0.46743098928E+02  0.60660319962E+02  0.17770000000E+01 0.  1.
         16    1    6    6    0    0  0.44490776654E+02  0.18196848871E+02  0.12851142748E+03  0.13720692952E+03  0.00000000000E+00 0. -1.
         -5    1    3    3    0  503 -0.39758735471E+02 -0.56621005901E+02 -0.10657850132E+02  0.70159640284E+02  0.47000000000E+01 0.  1.
         15    1    4    4    0    0  0.75237010551E+02 -0.38953570482E+02 -0.31829801505E+02  0.90522275727E+02  0.17770000000E+01 0. -1.
        -16    1    4    4    0    0  0.19149703849E+02 -0.17676849425E+02  0.39463851029E+02  0.47292469814E+02  0.00000000000E+00 0.  1.
<mgrwt>
<rscale>  2 0.21039837E+03</rscale>
<asrwt>0</asrwt>
<pdfrwt beam="1">  1       21 0.56983596E-01 0.21122007E+03</pdfrwt>
<pdfrwt beam="2">  1       21 0.22635274E-01 0.21122007E+03</pdfrwt>
<totfact> 0.52459915E+04</totfact>
</mgrwt>
</event>
<event>
12    2  0.4097182E-002  0.1925254E+03  0.7546771E-02  0.1156574E+00
         21   -1    0    0  501  502  0.00000000000E+00  0.00000000000E+00  0.26628224816E+03  0.26628224816E+03  0.00000000000E+00 0.  1.
         21   -1    0    0  502  503 -0.00000000000E+00 -0.00000000000E+00 -0.15523592249E+03  0.15523592249E+03  0.00000000000E+00 0.  1.
         -6    2    1    2    0  503  0.23201220028E+02 -0.83493326222E+02  0.12597229918E+03  0.23007616635E+03  0.17192030138E+03 0.  0.
        -24    2    3    3    0    0  0.28277969058E+02  0.15376294099E+02  0.86589377604E+02  0.12342683576E+03  0.81855907042E+02 0.  0.
          6    2    1    2  501    0 -0.23201220028E+02  0.83493326222E+02 -0.14925973511E+02  0.19144200431E+03  0.17005241602E+03 0.  0.
         24    2    5    5    0    0 -0.77376746862E+02  0.29563307615E+02 -0.85141069477E+01  0.11458735807E+03  0.78718628678E+02 0.  0.
          5    1    5    5  501    0  0.54175526835E+02  0.53930018607E+02 -0.64118665631E+01  0.76854646233E+02  0.47000000000E+01 0. -1.
        -15    1    6    6    0    0 -0.28951064252E+01  0.33963807999E+01 -0.31893937374E+02  0.32253651173E+02  0.17770000000E+01 0.  1.
         16    1    6    6    0    0 -0.74481640437E+02  0.26166926815E+02  0.23379830427E+02  0.82333706900E+02  0.00000000000E+00 0. -1.
         -5    1    3    3    0  503 -0.50767490300E+01 -0.98869620321E+02  0.39382921579E+02  0.10664933059E+03  0.47000000000E+01 0.  1.
         15    1    4    4    0    0 -0.21779299839E+02  0.14419161278E+02  0.62713598274E+02  0.67958834974E+02  0.17770000000E+01 0. -1.
        -16    1    4    4    0    0  0.50057268897E+02  0.95713282086E+00  0.23875779329E+02  0.55468000786E+02  0.00000000000E+00 0.  1.
<mgrwt>
<rscale>  2 0.19210749E+03</rscale>
<asrwt>0</asrwt>
<pdfrwt beam="1">  1       21 0.40966500E-01 0.19252538E+03</pdfrwt>
<pdfrwt beam="2">  1       21 0.23882450E-01 0.19252538E+03</pdfrwt>
<totfact> 0.94855291E+04</totfact>
</mgrwt>
</event>
<event>
12    2  0.4097182E-002  0.2505379E+03  0.7546771E-02  0.1113036E+00
         21   -1    0    0  501  502  0.00000000000E+00  0.00000000000E+00  0.14643397622E+04  0.14643397622E+04  0.00000000000E+00 0.  1.
         21   -1    0    0  502  503 -0.00000000000E+00 -0.00000000000E+00 -0.76409258967E+02  0.76409258967E+02  0.00000000000E+00 0. -1.
         -6    2    1    2    0  503 -0.36263330463E+02 -0.17723152479E+03  0.18329953237E+03  0.31043189913E+03  0.17332975195E+03 0.  0.
        -24    2    3    3    0    0 -0.87111251363E+02 -0.14908932490E+03  0.12604096910E+03  0.22871208792E+03  0.81282817117E+02 0.  0.
          6    2    1    2  501    0  0.36263330463E+02  0.17723152479E+03  0.12046309709E+04  0.12303171221E+04  0.17268005768E+03 0.  0.
         24    2    5    5    0    0 -0.18134799369E+02  0.16521689258E+03  0.10430958573E+04  0.10593809034E+04  0.81323050394E+02 0.  0.
          5    1    5    5  501    0  0.54398129831E+02  0.12014632212E+02  0.16153511361E+03  0.17093621865E+03  0.47000000000E+01 0. -1.
        -15    1    6    6    0    0 -0.20543433974E+02  0.86472559697E+02  0.32372401530E+03  0.33570810546E+03  0.17770000000E+01 0.  1.
         16    1    6    6    0    0  0.24086346053E+01  0.78744332878E+02  0.71937184198E+03  0.72367279797E+03  0.00000000000E+00 0. -1.
         -5    1    3    3    0  503  0.50847920901E+02 -0.28142199889E+02  0.57258563273E+02  0.81719811200E+02  0.47000000000E+01 0.  1.
         15    1    4    4    0    0 -0.38366985720E+02 -0.13323444606E+03  0.81718390807E+02  0.16094873823E+03  0.17770000000E+01 0. -1.
        -16    1    4    4    0    0 -0.48744265643E+02 -0.15854878835E+02  0.44322578293E+02  0.67763349699E+02  0.00000000000E+00 0.  1.
<mgrwt>
<rscale>  2 0.25042558E+03</rscale>
<asrwt>0</asrwt>
<pdfrwt beam="1">  1       21 0.22528302E+00 0.25053791E+03</pdfrwt>
<pdfrwt beam="2">  1       21 0.11755272E-01 0.25053791E+03</pdfrwt>
<totfact> 0.54088998E+03</totfact>
</mgrwt>
</event>
<event>
12    2  0.4097182E-002  0.1947111E+03  0.7546771E-02  0.1154693E+00
         21   -1    0    0  501  502  0.00000000000E+00  0.00000000000E+00  0.86003623885E+03  0.86003623885E+03  0.00000000000E+00 0. -1.
         21   -1    0    0  502  503 -0.00000000000E+00 -0.00000000000E+00 -0.62577752002E+02  0.62577752002E+02  0.00000000000E+00 0.  1.
         -6    2    1    2    0  503  0.87214553795E+02 -0.12509018931E+02  0.14372302350E+03  0.24049781064E+03  0.17152269671E+03 0.  0.
        -24    2    3    3    0    0  0.14096203326E+02  0.46759728604E+02  0.45654668319E+02  0.10448836281E+03  0.80301270575E+02 0.  0.
          6    2    1    2  501    0 -0.87214553795E+02  0.12509018931E+02  0.65373546335E+03  0.68211618022E+03  0.17363632491E+03 0.  0.
         24    2    5    5    0    0 -0.10725548170E+03 -0.34420356301E+02  0.39250139515E+03  0.41590323268E+03  0.78928160204E+02 0.  0.
          5    1    5    5  501    0  0.20040927909E+02  0.46929375232E+02  0.26123406820E+03  0.26621294754E+03  0.47000000000E+01 0. -1.
        -15    1    6    6    0    0 -0.44320631949E+02  0.24840070039E+02  0.15791360229E+03  0.16589518081E+03  0.17770000000E+01 0.  1.
         16    1    6    6    0    0 -0.62934849754E+02 -0.59260426341E+02  0.23458779286E+03  0.25000805187E+03  0.00000000000E+00 0. -1.
         -5    1    3    3    0  503  0.73118350468E+02 -0.59268747536E+02  0.98068355183E+02  0.13600944783E+03  0.47000000000E+01 0.  1.
         15    1    4    4    0    0  0.32709243027E+02 -0.38457363047E+00  0.42560450946E+02  0.53708399623E+02  0.17770000000E+01 0. -1.
        -16    1    4    4    0    0 -0.18613039701E+02  0.47144302235E+02  0.30942173725E+01  0.50779963187E+02  0.00000000000E+00 0.  1.
<mgrwt>
<rscale>  2 0.19423880E+03</rscale>
<asrwt>0</asrwt>
<pdfrwt beam="1">  1       21 0.13231326E+00 0.19471114E+03</pdfrwt>
<pdfrwt beam="2">  1       21 0.96273471E-02 0.19471114E+03</pdfrwt>
<totfact> 0.35828464E+04</totfact>
</mgrwt>
</event>
<event>
12    2  0.4097182E-002  0.2719463E+03  0.7546771E-02  0.1100638E+00
         21   -1    0    0  501  502  0.00000000000E+00  0.00000000000E+00  0.99371174101E+03  0.99371174101E+03  0.00000000000E+00 0. -1.
         21   -1    0    0  502  503 -0.00000000000E+00 -0.00000000000E+00 -0.85439290082E+02  0.85439290082E+02  0.00000000000E+00 0. -1.
         -6    2    1    2    0  503 -0.13017433182E+03  0.16214214029E+03  0.25032522845E+03  0.36721752660E+03  0.17014864537E+03 0.  0.
        -24    2    3    3    0    0 -0.81182388552E+02  0.71333296484E+02  0.53719508625E+02  0.14513115672E+03  0.80611709109E+02 0.  0.
          6    2    1    2  501    0  0.13017433182E+03 -0.16214214029E+03  0.65794722247E+03  0.71193350449E+03  0.17526932683E+03 0.  0.
         24    2    5    5    0    0  0.53554517761E+02 -0.14693140706E+03  0.55918338778E+03  0.58592418993E+03  0.78512231027E+02 0.  0.
          5    1    5    5  501    0  0.76619814061E+02 -0.15210733226E+02  0.98763834693E+02  0.12600931456E+03  0.47000000000E+01 0. -1.
        -15    1    6    6    0    0  0.22116147306E+02  0.22605500777E+01  0.62101495515E+02  0.65984752273E+02  0.17770000000E+01 0.  1.
         16    1    6    6    0    0  0.31438370454E+02 -0.14919195714E+03  0.49708189226E+03  0.51993943766E+03  0.00000000000E+00 0. -1.
         -5    1    3    3    0  503 -0.48991943270E+02  0.90808843805E+02  0.19660571983E+03  0.22208636988E+03  0.47000000000E+01 0.  1.
         15    1    4    4    0    0 -0.50426527052E+02  0.82943417570E+02  0.56173622189E+02  0.11216540780E+03  0.17770000000E+01 0. -1.
        -16    1    4    4    0    0 -0.30755861500E+02 -0.11610121086E+02 -0.24541135644E+01  0.32965748916E+02  0.00000000000E+00 0.  1.
<mgrwt>
<rscale>  2 0.27112460E+03</rscale>
<asrwt>0</asrwt>
<pdfrwt beam="1">  1       21 0.15287872E+00 0.27194626E+03</pdfrwt>
<pdfrwt beam="2">  1       21 0.13144507E-01 0.27194626E+03</pdfrwt>
<totfact> 0.13478595E+04</totfact>
</mgrwt>
</event>
<event>
12    2  0.4097182E-002  0.3045968E+03  0.7546771E-02  0.1085221E+00
         21   -1    0    0  501  502  0.00000000000E+00  0.00000000000E+00  0.10119577042E+04  0.10119577042E+04  0.00000000000E+00 0.  1.
         21   -1    0    0  502  503 -0.00000000000E+00 -0.00000000000E+00 -0.91572511733E+02  0.91572511733E+02  0.00000000000E+00 0. -1.
         -6    2    1    2    0  503 -0.13366061446E+03  0.19490999332E+03  0.60441152367E+03  0.67682532230E+03  0.19215660696E+03 0.  0.
        -24    2    3    3    0    0 -0.30602291088E+02  0.12076982649E+02  0.25993670934E+03  0.27342240273E+03  0.78168815524E+02 0.  0.
          6    2    1    2  501    0  0.13366061446E+03 -0.19490999332E+03  0.31597366880E+03  0.42670489364E+03  0.16242734231E+03 0.  0.
         24    2    5    5    0    0  0.10259321069E+02 -0.60253924542E+02  0.13743160884E+03  0.17124551675E+03  0.81864466074E+02 0.  0.
          5    1    5    5  501    0  0.12340129339E+03 -0.13465606878E+03  0.17854205995E+03  0.25545937689E+03  0.47000000000E+01 0. -1.
        -15    1    6    6    0    0  0.20030210147E+02  0.11696677578E+02  0.63468468476E+02  0.67597528095E+02  0.17770000000E+01 0.  1.
         16    1    6    6    0    0 -0.97708890783E+01 -0.71950602119E+02  0.73963140365E+02  0.10364798865E+03  0.00000000000E+00 0. -1.
         -5    1    3    3    0  503 -0.10305832338E+03  0.18283301067E+03  0.34447481433E+03  0.40340291957E+03  0.47000000000E+01 0.  1.
         15    1    4    4    0    0 -0.39367092644E+02  0.15515473351E+02  0.60987075953E+02  0.74250111507E+02  0.17770000000E+01 0. -1.
        -16    1    4    4    0    0  0.87648015564E+01 -0.34384907021E+01  0.19894963339E+03  0.19917229122E+03  0.00000000000E+00 0.  1.
<mgrwt>
<rscale>  2 0.30003914E+03</rscale>
<asrwt>0</asrwt>
<pdfrwt beam="1">  1       21 0.15568579E+00 0.30459683E+03</pdfrwt>
<pdfrwt beam="2">  1       21 0.14088079E-01 0.30459683E+03</pdfrwt>
<totfact> 0.11123993E+04</totfact>
</mgrwt>
</event>
<event>
12    2  0.4097182E-002  0.2165503E+03  0.7546771E-02  0.1136602E+00
         21   -1    0    0  503  502  0.00000000000E+00  0.00000000000E+00  0.22102037547E+03  0.22102037547E+03  0.00000000000E+00 0. -1.
         21   -1    0    0  501  503 -0.00000000000E+00 -0.00000000000E+00 -0.22260360083E+03  0.22260360083E+03  0.00000000000E+00 0. -1.
          6    2    1    2  501    0  0.50982245827E+02 -0.11980575153E+03 -0.50216557905E+02  0.22167972410E+03  0.17224282250E+03 0.  0.
         24    2    3    3    0    0 -0.35465055377E+02 -0.34792861727E+02 -0.29532157905E+02  0.98593324688E+02  0.79876041104E+02 0.  0.
         -6    2    1    2    0  502 -0.50982245827E+02  0.11980575153E+03  0.48633332544E+02  0.22194425220E+03  0.17303595742E+03 0.  0.
        -24    2    5    5    0    0 -0.17684908862E+02  0.12285137644E+03 -0.15847355562E+02  0.14915800612E+03  0.81189626279E+02 0.  0.
          5    1    3    3  501    0  0.86447301204E+02 -0.85012889800E+02 -0.20684400000E+02  0.12308639942E+03  0.47000000000E+01 0. -1.
        -15    1    4    4    0    0 -0.21434301314E+02  0.14758833286E+02 -0.38313567396E+02  0.46350184556E+02  0.17770000000E+01 0.  1.
         16    1    4    4    0    0 -0.14030754064E+02 -0.49551695013E+02  0.87814094904E+01  0.52243140132E+02  0.00000000000E+00 0. -1.
         -5    1    5    5    0  502 -0.33297336965E+02 -0.30456249132E+01  0.64480688106E+02  0.72786246082E+02  0.47000000000E+01 0.  1.
         15    1    6    6    0    0  0.10894087050E+02  0.75547202103E+02  0.25106027231E+02  0.80371208841E+02  0.17770000000E+01 0. -1.
        -16    1    6    6    0    0 -0.28578995912E+02  0.47304174337E+02 -0.40953382793E+02  0.68786797274E+02  0.00000000000E+00 0.  1.
<mgrwt>
<rscale>  2 0.21639186E+03</rscale>
<asrwt>0</asrwt>
<pdfrwt beam="1">  1       21 0.34003135E-01 0.21655034E+03</pdfrwt>
<pdfrwt beam="2">  1       21 0.34246708E-01 0.21655034E+03</pdfrwt>
<totfact> 0.67749703E+04</totfact>
</mgrwt>
</event>
<event>
12    2  0.4097182E-002  0.1947561E+03  0.7546771E-02  0.1154384E+00
         21   -1    0    0  503  502  0.00000000000E+00  0.00000000000E+00  0.24904451384E+03  0.24904451384E+03  0.00000000000E+00 0.  1.
         21   -1    0    0  501  503 -0.00000000000E+00 -0.00000000000E+00 -0.24561263173E+03  0.24561263173E+03  0.00000000000E+00 0.  1.
          6    2    1    2  501    0 -0.14616782545E+01  0.90070141494E+02 -0.15114748636E+03  0.24652691077E+03  0.17267075087E+03 0.  0.
         24    2    3    3    0    0  0.57029057598E+02  0.56838900830E+02 -0.48832768643E+02  0.12398763952E+03  0.80655572660E+02 0.  0.
         -6    2    1    2    0  502  0.14616782545E+01 -0.90070141494E+02  0.15457936848E+03  0.24813023481E+03  0.17192750034E+03 0.  0.
        -24    2    5    5    0    0  0.46211605768E+02 -0.68310408465E+02  0.15892601642E+03  0.19796027026E+03  0.84433201384E+02 0.  0.
          5    1    3    3  501    0 -0.58490735853E+02  0.33231240664E+02 -0.10231471772E+03  0.12253927125E+03  0.47000000000E+01 0. -1.
        -15    1    4    4    0    0 -0.11432145998E+02  0.12014445297E+02 -0.37928850838E+02  0.41434240826E+02  0.17770000000E+01 0.  1.
         16    1    4    4    0    0  0.68461203596E+02  0.44824455533E+02 -0.10903917805E+02  0.82553398690E+02  0.00000000000E+00 0. -1.
         -5    1    5    5    0  502 -0.44749927514E+02 -0.21759733029E+02 -0.43466479419E+01  0.50169964543E+02  0.47000000000E+01 0.  1.
         15    1    6    6    0    0  0.63487005752E+02 -0.20200206330E+02  0.83334636942E+02  0.10670739280E+03  0.17770000000E+01 0. -1.
        -16    1    6    6    0    0 -0.17275399984E+02 -0.48110202136E+02  0.75591379475E+02  0.91252877462E+02  0.00000000000E+00 0.  1.
<mgrwt>
<rscale>  2 0.19459127E+03</rscale>
<asrwt>0</asrwt>
<pdfrwt beam="1">  1       21 0.38314541E-01 0.19475614E+03</pdfrwt>
<pdfrwt beam="2">  1       21 0.37786559E-01 0.19475614E+03</pdfrwt>
<totfact> 0.44325558E+04</totfact>
</mgrwt>
</event>
<event>
12    2  0.4097182E-002  0.1939252E+03  0.7546771E-02  0.1155445E+00
         21   -1    0    0  503  502  0.00000000000E+00  0.00000000000E+00  0.56721273358E+03  0.56721273358E+03  0.00000000000E+00 0.  1.
         21   -1    0    0  501  503 -0.00000000000E+00 -0.00000000000E+00 -0.75549514794E+02  0.75549514794E+02  0.00000000000E+00 0.  1.
          6    2    1    2  501    0  0.26465458859E+02  0.85257459039E+02  0.36385282420E+03  0.41230556060E+03  0.17215615815E+03 0.  0.
         24    2    3    3    0    0  0.58840845198E+02  0.89509804704E+02  0.17282937417E+03  0.21845433789E+03  0.79862725757E+02 0.  0.
         -6    2    1    2    0  502 -0.26465458859E+02 -0.85257459039E+02  0.12781039459E+03  0.23045668778E+03  0.16972192888E+03 0.  0.
        -24    2    5    5    0    0  0.50572628404E+02 -0.46566414096E+02  0.78547953133E+02  0.13105476634E+03  0.79243606508E+02 0.  0.
          5    1    3    3  501    0 -0.32375386338E+02 -0.42523456643E+01  0.19102345004E+03  0.19385122272E+03  0.47000000000E+01 0. -1.
        -15    1    4    4    0    0  0.44459843733E+02  0.21440232725E+01  0.67198435742E+02  0.80622962211E+02  0.17770000000E+01 0.  1.
         16    1    4    4    0    0  0.14381001464E+02  0.87365781431E+02  0.10563093842E+03  0.13783137568E+03  0.00000000000E+00 0. -1.
         -5    1    5    5    0  502 -0.77038087263E+02 -0.38691044944E+02  0.49262441454E+02  0.99401921440E+02  0.47000000000E+01 0.  1.
         15    1    6    6    0    0 -0.15652516751E+02 -0.26566376888E+02  0.43920605625E+02  0.53693118638E+02  0.17770000000E+01 0. -1.
        -16    1    6    6    0    0  0.66225145154E+02 -0.20000037207E+02  0.34627347508E+02  0.77361647697E+02  0.00000000000E+00 0.  1.
<mgrwt>
<rscale>  2 0.19338355E+03</rscale>
<asrwt>0</asrwt>
<pdfrwt beam="1">  1       21 0.87263495E-01 0.19392524E+03</pdfrwt>
<pdfrwt beam="2">  1       21 0.11623003E-01 0.19392524E+03</pdfrwt>
<totfact> 0.70051206E+04</totfact>
</mgrwt>
</event>
<event>
12    2  0.4097182E-002  0.1837447E+03  0.7546771E-02  0.1164414E+00
         21   -1    0    0  501  502  0.00000000000E+00  0.00000000000E+00  0.27212445508E+03  0.27212445508E+03  0.00000000000E+00 0. -1.
         21   -1    0    0  502  503 -0.00000000000E+00 -0.00000000000E+00 -0.27716542950E+03  0.27716542950E+03  0.00000000000E+00 0. -1.
         -6    2    1    2    0  503  0.24607705730E+02 -0.55660884065E+02 -0.20699261881E+03  0.27625769520E+03  0.17253607367E+03 0.  0.
        -24    2    3    3    0    0  0.73509960653E+02 -0.65929658903E+02 -0.10559802299E+03  0.16312135119E+03  0.75546002655E+02 0.  0.
          6    2    1    2  501    0 -0.24607705730E+02  0.55660884065E+02  0.20195164438E+03  0.27303218938E+03  0.17337369054E+03 0.  0.
         24    2    5    5    0    0  0.26092214606E+02  0.75082046651E+02  0.18322755883E+03  0.21540975575E+03  0.80690192479E+02 0.  0.
          5    1    5    5  501    0 -0.50699920337E+02 -0.19421162587E+02  0.18724085552E+02  0.57622433636E+02  0.47000000000E+01 0. -1.
        -15    1    6    6    0    0  0.44904524576E+02  0.13779010437E+02  0.57448210829E+02  0.74227569759E+02  0.17770000000E+01 0.  1.
         16    1    6    6    0    0 -0.18812309969E+02  0.61303036215E+02  0.12577934800E+03  0.14118218599E+03  0.00000000000E+00 0. -1.
         -5    1    3    3    0  503 -0.48902254923E+02  0.10268774838E+02 -0.10139459582E+03  0.11313634400E+03  0.47000000000E+01 0.  1.
         15    1    4    4    0    0  0.16314606715E+02 -0.37325207042E+02 -0.87699352634E+02  0.96714381839E+02  0.17770000000E+01 0. -1.
        -16    1    4    4    0    0  0.57195353938E+02 -0.28604451861E+02 -0.17898670359E+02  0.66406969356E+02  0.00000000000E+00 0.  1.
<mgrwt>
<rscale>  2 0.18354683E+03</rscale>
<asrwt>0</asrwt>
<pdfrwt beam="1">  1       21 0.41865301E-01 0.18374469E+03</pdfrwt>
<pdfrwt beam="2">  1       21 0.42640835E-01 0.18374469E+03</pdfrwt>
<totfact> 0.29195921E+04</totfact>
</mgrwt>
</event>
<event>
12    2  0.4097182E-002  0.2249035E+03  0.7546771E-02  0.1130646E+00
         21   -1    0    0  503  502  0.00000000000E+00  0.00000000000E+00  0.33655036848E+03  0.33655036848E+03  0.00000000000E+00 0.  1.
         21   -1    0    0  501  503 -0.00000000000E+00 -0.00000000000E+00 -0.15391033770E+03  0.15391033770E+03  0.00000000000E+00 0. -1.
          6    2    1    2  501    0  0.41161279274E+02 -0.13652641978E+03  0.13494043488E+03  0.26055454206E+03  0.17130684229E+03 0.  0.
         24    2    3    3    0    0  0.17953449951E+02 -0.15528662304E+03  0.70131213065E+02  0.18905017996E+03  0.79908208814E+02 0.  0.
         -6    2    1    2    0  502 -0.41161279274E+02  0.13652641978E+03  0.47699595900E+02  0.22990616412E+03  0.17391917273E+03 0.  0.
        -24    2    5    5    0    0  0.40994332675E+02  0.60964206244E+02  0.25412211339E+01  0.10940487159E+03  0.81029614147E+02 0.  0.
          5    1    3    3  501    0  0.23207829323E+02  0.18760203258E+02  0.64809221810E+02  0.71504362103E+02  0.47000000000E+01 0. -1.
        -15    1    4    4    0    0  0.46951958001E+02 -0.67424476880E+02  0.42316382266E+02  0.92435817623E+02  0.17770000000E+01 0.  1.
         16    1    4    4    0    0 -0.28998508049E+02 -0.87862146159E+02  0.27814830799E+02  0.96614362334E+02  0.00000000000E+00 0. -1.
         -5    1    5    5    0  502 -0.82155611949E+02  0.75562213537E+02  0.45158374767E+02  0.12050129253E+03  0.47000000000E+01 0.  1.
         15    1    6    6    0    0 -0.61412605438E+00 -0.16011947835E+02 -0.12778443867E+02  0.20571970760E+02  0.17770000000E+01 0. -1.
        -16    1    6    6    0    0  0.41608458729E+02  0.76976154078E+02  0.15319665001E+02  0.88832900832E+02  0.00000000000E+00 0.  1.
<mgrwt>
<rscale>  2 0.22439833E+03</rscale>
<asrwt>0</asrwt>
<pdfrwt beam="1">  1       21 0.51776980E-01 0.22490352E+03</pdfrwt>
<pdfrwt beam="2">  1       21 0.23678514E-01 0.22490352E+03</pdfrwt>
<totfact> 0.58635541E+04</totfact>
</mgrwt>
</event>
<event>
12    2  0.4097182E-002  0.1809499E+03  0.7546771E-02  0.1167831E+00
         21   -1    0    0  503  502  0.00000000000E+00  0.00000000000E+00  0.63182238533E+03  0.63182238533E+03  0.00000000000E+00 0. -1.
         21   -1    0    0  501  503 -0.00000000000E+00 -0.00000000000E+00 -0.54398626028E+02  0.54398626028E+02  0.00000000000E+00 0. -1.
          6    2    1    2  501    0 -0.78797266133E+01  0.32102811944E+02  0.20237358046E+03  0.27147362030E+03  0.17790497414E+03 0.  0.
         24    2    3    3    0    0 -0.18969813532E+01  0.71990455946E+02  0.60839714609E+02  0.12422980017E+03  0.80903325583E+02 0.  0.
         -6    2    1    2    0  502  0.78797266133E+01 -0.32102811944E+02  0.37505017884E+03  0.41474739106E+03  0.17395425006E+03 0.  0.
        -24    2    5    5    0    0  0.58091117825E+02 -0.48250768168E+02  0.31587611510E+03  0.33533958214E+03  0.83499704542E+02 0.  0.
          5    1    3    3  501    0 -0.59827452601E+01 -0.39887644002E+02  0.14153386585E+03  0.14724382014E+03  0.47000000000E+01 0. -1.
        -15    1    4    4    0    0  0.19971805745E+00 -0.72106632307E+01 -0.13612884390E+02  0.15508123741E+02  0.17770000000E+01 0.  1.
         16    1    4    4    0    0 -0.20966994106E+01  0.79201119176E+02  0.74452598999E+02  0.10872167643E+03  0.00000000000E+00 0. -1.
         -5    1    5    5    0  502 -0.50211391212E+02  0.16147956224E+02  0.59174063742E+02  0.79407808920E+02  0.47000000000E+01 0.  1.
         15    1    6    6    0    0  0.31598636627E+02 -0.49299421235E+00  0.23872767027E+03  0.24081689136E+03  0.17770000000E+01 0. -1.
        -16    1    6    6    0    0  0.26492481198E+02 -0.47757773955E+02  0.77148444829E+02  0.94522690782E+02  0.00000000000E+00 0.  1.
<mgrwt>
<rscale>  2 0.17997128E+03</rscale>
<asrwt>0</asrwt>
<pdfrwt beam="1">  1       21 0.97203439E-01 0.18094988E+03</pdfrwt>
<pdfrwt beam="2">  1       21 0.83690198E-02 0.18094988E+03</pdfrwt>
<totfact> 0.97845350E+04</totfact>
</mgrwt>
</event>
<event>
12    2  0.4097182E-002  0.2555591E+03  0.7546771E-02  0.1110072E+00
         21   -1    0    0  503  502  0.00000000000E+00  0.00000000000E+00  0.27772934917E+03  0.27772934917E+03  0.00000000000E+00 0.  1.
         21   -1    0    0  501  503 -0.00000000000E+00 -0.00000000000E+00 -0.25957467478E+03  0.25957467478E+03  0.00000000000E+00 0. -1.
          6    2    1    2  501    0 -0.18589985416E+03 -0.11675541630E+02  0.93790774722E+02  0.27222628525E+03  0.17497247473E+03 0.  0.
         24    2    3    3    0    0 -0.17470103719E+03 -0.61741542327E+02  0.87983887413E+02  0.22038201973E+03  0.80589079480E+02 0.  0.
         -6    2    1    2    0  502  0.18589985416E+03  0.11675541630E+02 -0.75636100334E+02  0.26507773870E+03  0.17277243366E+03 0.  0.
        -24    2    5    5    0    0  0.13295163647E+03 -0.88405298630E+01 -0.11732432206E+03  0.19447730827E+03  0.79385982872E+02 0.  0.
          5    1    3    3  501    0 -0.11198816963E+02  0.50066000697E+02  0.58068873084E+01  0.51844265520E+02  0.47000000000E+01 0. -1.
        -15    1    4    4    0    0 -0.21486654827E+01 -0.17258627747E+02  0.26758594081E+02  0.31963370931E+02  0.17770000000E+01 0.  1.
         16    1    4    4    0    0 -0.17255237171E+03 -0.44482914580E+02  0.61225293332E+02  0.18841864880E+03  0.00000000000E+00 0. -1.
         -5    1    5    5    0  502  0.52948217682E+02  0.20516071493E+02  0.41688221729E+02  0.70600430425E+02  0.47000000000E+01 0.  1.
         15    1    6    6    0    0  0.10200241525E+03  0.23827522133E+02 -0.57151397069E+02  0.11933852456E+03  0.17770000000E+01 0. -1.
        -16    1    6    6    0    0  0.30949221218E+02 -0.32668051996E+02 -0.60172924994E+02  0.75138783710E+02  0.00000000000E+00 0.  1.
<mgrwt>
<rscale>  2 0.25518294E+03</rscale>
<asrwt>0</asrwt>
<pdfrwt beam="1">  1       21 0.42727593E-01 0.25555908E+03</pdfrwt>
<pdfrwt beam="2">  1       21 0.39934565E-01 0.25555908E+03</pdfrwt>
<totfact> 0.30873420E+04</totfact>
</mgrwt>
</event>
<event>
12    2  0.4097182E-002  0.2034083E+03  0.7546771E-02  0.1147139E+00
         21   -1    0    0  501  502  0.00000000000E+00  0.00000000000E+00  0.78322127260E+02  0.78322127260E+02  0.00000000000E+00 0.  1.
         21   -1    0    0  502  503 -0.00000000000E+00 -0.00000000000E+00 -0.53399056829E+03  0.53399056829E+03  0.00000000000E+00 0.  1.
         -6    2    1    2    0  503 -0.84252030428E+02  0.63338863193E+02 -0.26773953159E+03  0.33624303140E+03  0.17396753481E+03 0.  0.
        -24    2    3    3    0    0  0.12035291578E+02 -0.15850207704E+02 -0.12396617355E+03  0.14588803197E+03  0.74294201379E+02 0.  0.
          6    2    1    2  501    0  0.84252030428E+02 -0.63338863193E+02 -0.18792890944E+03  0.27606966414E+03  0.17258901540E+03 0.  0.
         24    2    5    5    0    0  0.78528938776E+02 -0.90650773453E+02 -0.19886187930E+03  0.24573298585E+03  0.80338635434E+02 0.  0.
          5    1    5    5  501    0  0.57230916518E+01  0.27311910260E+02  0.10932969860E+02  0.30336678297E+02  0.47000000000E+01 0. -1.
        -15    1    6    6    0    0  0.30664369202E+02  0.34224639855E+01 -0.16517116655E+02  0.35042683543E+02  0.17770000000E+01 0.  1.
         16    1    6    6    0    0  0.47864569574E+02 -0.94073237439E+02 -0.18234476264E+03  0.21069030230E+03  0.00000000000E+00 0. -1.
         -5    1    3    3    0  503 -0.96287322005E+02  0.79189070897E+02 -0.14377335804E+03  0.19035499944E+03  0.47000000000E+01 0.  1.
         15    1    4    4    0    0 -0.18473168800E+01  0.31807693710E+01 -0.12219700817E+03  0.12226527065E+03  0.17770000000E+01 0. -1.
        -16    1    4    4    0    0  0.13882608458E+02 -0.19030977075E+02 -0.17691653847E+01  0.23622761316E+02  0.00000000000E+00 0.  1.
<mgrwt>
<rscale>  2 0.20311318E+03</rscale>
<asrwt>0</asrwt>
<pdfrwt beam="1">  1       21 0.12049558E-01 0.20340826E+03</pdfrwt>
<pdfrwt beam="2">  1       21 0.82152394E-01 0.20340826E+03</pdfrwt>
<totfact> 0.75071105E+04</totfact>
</mgrwt>
</event>
<event>
12    2  0.4097182E-002  0.2352519E+03  0.7546771E-02  0.1123197E+00
         21   -1    0    0  501  502  0.00000000000E+00  0.00000000000E+00  0.27351341843E+04  0.27351341843E+04  0.00000000000E+00 0. -1.
         21   -1    0    0  502  503 -0.00000000000E+00 -0.00000000000E+00 -0.22534724401E+02  0.22534724401E+02  0.00000000000E+00 0. -1.
         -6    2    1    2    0  503  0.10296410155E+03  0.12008795634E+03  0.90321611304E+03  0.93305619630E+03  0.17254505249E+03 0.  0.
        -24    2    3    3    0    0  0.51584816888E+02  0.39364460203E+02  0.27096398744E+03  0.29358692100E+03  0.92526988697E+02 0.  0.
          6    2    1    2  501    0 -0.10296410155E+03 -0.12008795634E+03  0.18093833469E+04  0.18246127124E+04  0.17412848960E+03 0.  0.
         24    2    5    5    0    0 -0.24785575145E+02  0.50251967057E+01  0.83972514216E+03  0.84378433445E+03  0.78702676861E+02 0.  0.
          5    1    5    5  501    0 -0.78178526403E+02 -0.12511315304E+03  0.96965820473E+03  0.98082837798E+03  0.47000000000E+01 0. -1.
        -15    1    6    6    0    0  0.85439375966E+01 -0.13699122616E+01  0.99103661512E+01  0.13275865904E+02  0.17770000000E+01 0.  1.
         16    1    6    6    0    0 -0.33329512741E+02  0.63951089672E+01  0.82981477601E+03  0.83050846854E+03  0.00000000000E+00 0. -1.
         -5    1    3    3    0  503  0.51379284660E+02  0.80723496134E+02  0.63225212560E+03  0.63946927530E+03  0.47000000000E+01 0.  1.
         15    1    4    4    0    0  0.58551871047E+02  0.60808894867E+02  0.24529986353E+03  0.25942479465E+03  0.17770000000E+01 0. -1.
        -16    1    4    4    0    0 -0.69670541594E+01 -0.21444434664E+02  0.25664123901E+02  0.34162126359E+02  0.00000000000E+00 0.  1.
<mgrwt>
<rscale>  2 0.23495895E+03</rscale>
<asrwt>0</asrwt>
<pdfrwt beam="1">  1       21 0.42078961E+00 0.23525190E+03</pdfrwt>
<pdfrwt beam="2">  1       21 0.34668828E-02 0.23525190E+03</pdfrwt>
<totfact> 0.30319009E+03</totfact>
</mgrwt>
</event>
<event>
12    2  0.4097182E-002  0.1953627E+03  0.7546771E-02  0.1153825E+00
         21   -1    0    0  503  502  0.00000000000E+00  0.00000000000E+00  0.28432579515E+03  0.28432579515E+03  0.00000000000E+00 0.  1.
         21   -1    0    0  501  503 -0.00000000000E+00 -0.00000000000E+00 -0.20584660066E+03  0.20584660066E+03  0.00000000000E+00 0.  1.
          6    2    1    2  501    0  0.53548438674E+02 -0.73308686165E+02 -0.10571008065E+03  0.22167238412E+03  0.17240193149E+03 0.  0.
         24    2    3    3    0    0  0.24955057744E+02 -0.10844279047E+03 -0.10955845992E+03  0.17596804361E+03  0.81111666993E+02 0.  0.
         -6    2    1    2    0  502 -0.53548438674E+02  0.73308686165E+02  0.18418927514E+03  0.26850001169E+03  0.17298834774E+03 0.  0.
        -24    2    5    5    0    0  0.10343597518E+02 -0.49317232335E+01  0.13019919190E+03  0.15386680080E+03  0.81190214399E+02 0.  0.
          5    1    3    3  501    0  0.28593380930E+02  0.35134104306E+02  0.38483792685E+01  0.45704340509E+02  0.47000000000E+01 0. -1.
        -15    1    4    4    0    0  0.30222424147E+02 -0.78868721536E+02 -0.27912890332E+02  0.88971665904E+02  0.17770000000E+01 0.  1.
         16    1    4    4    0    0 -0.52673664027E+01 -0.29574068935E+02 -0.81645569583E+02  0.86996377710E+02  0.00000000000E+00 0. -1.
         -5    1    5    5    0  502 -0.63892036192E+02  0.78240409398E+02  0.53990083239E+02  0.11463321089E+03  0.47000000000E+01 0.  1.
         15    1    6    6    0    0  0.39028087632E+01 -0.36003502804E+02  0.25142696354E+02  0.44122523039E+02  0.17770000000E+01 0. -1.
        -16    1    6    6    0    0  0.64407887548E+01  0.31071779570E+02  0.10505649554E+03  0.10974427776E+03  0.00000000000E+00 0.  1.
<mgrwt>
<rscale>  2 0.19523276E+03</rscale>
<asrwt>0</asrwt>
<pdfrwt beam="1">  1       21 0.43742430E-01 0.19536266E+03</pdfrwt>
<pdfrwt beam="2">  1       21 0.31668708E-01 0.19536266E+03</pdfrwt>
<totfact> 0.48079735E+04</totfact>
</mgrwt>
</event>
<event>
12    2  0.4097182E-002  0.2262309E+03  0.7546771E-02  0.1129590E+00
         21   -1    0    0  501  502  0.00000000000E+00  0.00000000000E+00  0.59469545087E+02  0.59469545087E+02  0.00000000000E+00 0.  1.
         21   -1    0    0  502  503 -0.00000000000E+00 -0.00000000000E+00 -0.85654358524E+03  0.85654358524E+03  0.00000000000E+00 0. -1.
         -6    2    1    2    0  503 -0.89115792365E+02  0.11322153634E+03 -0.38016540057E+03  0.44238688363E+03  0.17441239142E+03 0.  0.
        -24    2    3    3    0    0 -0.65605615791E+02  0.44949856195E+02 -0.94723271478E+02  0.14791608750E+03  0.81130046146E+02 0.  0.
          6    2    1    2  501    0  0.89115792365E+02 -0.11322153634E+03 -0.41690863959E+03  0.47362624670E+03  0.17247685950E+03 0.  0.
         24    2    5    5    0    0  0.11550050602E+02  0.57109573867E+01 -0.14071505804E+03  0.16303589455E+03  0.81326235931E+02 0.  0.
          5    1    5    5  501    0  0.77565741763E+02 -0.11893249372E+03 -0.27619358155E+03  0.31059035215E+03  0.47000000000E+01 0. -1.
        -15    1    6    6    0    0  0.23993911510E+02 -0.14102101491E+02 -0.90668208464E+01  0.29324768120E+02  0.17770000000E+01 0.  1.
         16    1    6    6    0    0 -0.12443860908E+02  0.19813058877E+02 -0.13164823719E+03  0.13371112643E+03  0.00000000000E+00 0. -1.
         -5    1    3    3    0  503 -0.23510176574E+02  0.68271680140E+02 -0.28544212909E+03  0.29447079613E+03  0.47000000000E+01 0.  1.
         15    1    4    4    0    0 -0.47006605708E+02 -0.13825489152E+01 -0.84844462280E+02  0.97022022914E+02  0.17770000000E+01 0. -1.
        -16    1    4    4    0    0 -0.18599010083E+02  0.46332405110E+02 -0.98788091982E+01  0.50894064590E+02  0.00000000000E+00 0.  1.
<mgrwt>
<rscale>  2 0.22585778E+03</rscale>
<asrwt>0</asrwt>
<pdfrwt beam="1">  1       21 0.91491613E-02 0.22623091E+03</pdfrwt>
<pdfrwt beam="2">  1       21 0.13177593E+00 0.22623091E+03</pdfrwt>
<totfact> 0.38914956E+04</totfact>
</mgrwt>
</event>
<event>
12    2  0.4097182E-002  0.1942352E+03  0.7546771E-02  0.1156367E+00
         21   -1    0    0  503  502  0.00000000000E+00  0.00000000000E+00  0.65555183696E+03  0.65555183696E+03  0.00000000000E+00 0.  1.
         21   -1    0    0  501  503 -0.00000000000E+00 -0.00000000000E+00 -0.63603867633E+02  0.63603867633E+02  0.00000000000E+00 0.  1.
          6    2    1    2  501    0  0.50010873968E+02  0.34257939583E+02  0.16148160065E+03  0.24689667382E+03  0.17665493555E+03 0.  0.
         24    2    3    3    0    0  0.60393125473E+02 -0.41042153918E+02  0.10886272092E+03  0.15432922958E+03  0.81453244842E+02 0.  0.
         -6    2    1    2    0  502 -0.50010873968E+02 -0.34257939583E+02  0.43046636867E+03  0.47225903077E+03  0.18453347569E+03 0.  0.
        -24    2    5    5    0    0 -0.10563600658E+03 -0.38076927904E+02  0.31130903440E+03  0.34061823026E+03  0.80614177172E+02 0.  0.
          5    1    3    3  501    0 -0.10382251505E+02  0.75300093501E+02  0.52618879731E+02  0.92567444232E+02  0.47000000000E+01 0. -1.
        -15    1    4    4    0    0  0.19226724802E+02 -0.23309178549E+02  0.10507333926E+03  0.10934600635E+03  0.17770000000E+01 0.  1.
         16    1    4    4    0    0  0.41166400671E+02 -0.17732975368E+02  0.37893816598E+01  0.44983223239E+02  0.00000000000E+00 0. -1.
         -5    1    5    5    0  502  0.55625132608E+02  0.38189883208E+01  0.11915733427E+03  0.13164080052E+03  0.47000000000E+01 0.  1.
         15    1    6    6    0    0 -0.69936186315E+02  0.11833529952E+02  0.21515139896E+03  0.22654885740E+03  0.17770000000E+01 0. -1.
        -16    1    6    6    0    0 -0.35699820260E+02 -0.49910457855E+02  0.96157635441E+02  0.11406937286E+03  0.00000000000E+00 0.  1.
<mgrwt>
<rscale>  2 0.19234041E+03</rscale>
<asrwt>0</asrwt>
<pdfrwt beam="1">  1       21 0.10085412E+00 0.19423516E+03</pdfrwt>
<pdfrwt beam="2">  1       21 0.97852109E-02 0.19423516E+03</pdfrwt>
<totfact> 0.67785616E+04</totfact>
</mgrwt>
</event>
<event>
12    2  0.4097182E-002  0.1979695E+03  0.7546771E-02  0.1151605E+00
         21   -1    0    0  501  502  0.00000000000E+00  0.00000000000E+00  0.39065263385E+03  0.39065263385E+03  0.00000000000E+00 0. -1.
         21   -1    0    0  502  503 -0.00000000000E+00 -0.00000000000E+00 -0.10050493781E+03  0.10050493781E+03  0.00000000000E+00 0. -1.
         -6    2    1    2    0  503 -0.50155586446E+01 -0.95658164021E+02  0.16288836081E+03  0.25636794323E+03  0.17325202468E+03 0.  0.
        -24    2    3    3    0    0  0.53747680386E+02 -0.92171562709E+02  0.14387399715E+03  0.19432835365E+03  0.75361607321E+02 0.  0.
          6    2    1    2  501    0  0.50155586446E+01  0.95658164021E+02  0.12725933523E+03  0.23478962844E+03  0.17249808998E+03 0.  0.
         24    2    5    5    0    0  0.78224162717E+01 -0.13692349189E+02  0.84267086777E+02  0.11716379532E+03  0.79860768828E+02 0.  0.
          5    1    5    5  501    0 -0.28068576271E+01  0.10935051321E+03  0.42992248449E+02  0.11762583311E+03  0.47000000000E+01 0. -1.
        -15    1    6    6    0    0  0.43311923383E+02 -0.34238338149E+01  0.54484128878E+02  0.69708847169E+02  0.17770000000E+01 0.  1.
         16    1    6    6    0    0 -0.35489507111E+02 -0.10268515374E+02  0.29782957899E+02  0.47454948152E+02  0.00000000000E+00 0. -1.
         -5    1    3    3    0  503 -0.58763239030E+02 -0.34866013120E+01  0.19014363667E+02  0.62039589584E+02  0.47000000000E+01 0.  1.
         15    1    4    4    0    0 -0.11074166378E+02 -0.44038097805E+02  0.28962687325E+02  0.53888646349E+02  0.17770000000E+01 0. -1.
        -16    1    4    4    0    0  0.64821846764E+02 -0.48133464904E+02  0.11491130982E+03  0.14043970730E+03  0.00000000000E+00 0.  1.
<mgrwt>
<rscale>  2 0.19780438E+03</rscale>
<asrwt>0</asrwt>
<pdfrwt beam="1">  1       21 0.60100405E-01 0.19796945E+03</pdfrwt>
<pdfrwt beam="2">  1       21 0.15462298E-01 0.19796945E+03</pdfrwt>
<totfact> 0.95621941E+04</totfact>
</mgrwt>
</event>
<event>
12    2  0.4097182E-002  0.1991527E+03  0.7546771E-02  0.1151310E+00
         21   -1    0    0  503  502  0.00000000000E+00  0.00000000000E+00  0.47959138907E+03  0.47959138907E+03  0.00000000000E+00 0.  1.
         21   -1    0    0  501  503 -0.00000000000E+00 -0.00000000000E+00 -0.94955175120E+02  0.94955175120E+02  0.00000000000E+00 0.  1.
          6    2    1    2  501    0 -0.65070588693E+02  0.76934301660E+02  0.80748028410E+02  0.21121499248E+03  0.16714802025E+03 0.  0.
         24    2    3    3    0    0 -0.23166534467E+02  0.10501739333E+03  0.28348907503E+02  0.13832900158E+03  0.82255157288E+02 0.  0.
         -6    2    1    2    0  502  0.65070588693E+02 -0.76934301660E+02  0.30388818554E+03  0.36333157170E+03  0.17178106241E+03 0.  0.
        -24    2    5    5    0    0  0.15883624375E+01 -0.52556705631E+02  0.69100453763E+02  0.11884920173E+03  0.81151277491E+02 0.  0.
          5    1    3    3  501    0 -0.41904054226E+02 -0.28083091670E+02  0.52399120906E+02  0.72885990904E+02  0.47000000000E+01 0. -1.
        -15    1    4    4    0    0 -0.29295227897E+02  0.63812025011E+02  0.54709454519E+02  0.89030708502E+02  0.17770000000E+01 0.  1.
         16    1    4    4    0    0  0.61286934300E+01  0.41205368319E+02 -0.26360547016E+02  0.49298293079E+02  0.00000000000E+00 0. -1.
         -5    1    5    5    0  502  0.63482226255E+02 -0.24377596029E+02  0.23478773177E+03  0.24448236998E+03  0.47000000000E+01 0.  1.
         15    1    6    6    0    0  0.16643796064E+02  0.86382175410E+01 -0.69533881527E+01  0.20078398479E+02  0.17770000000E+01 0. -1.
        -16    1    6    6    0    0 -0.15055433626E+02 -0.61194923172E+02  0.76053841916E+02  0.98770803246E+02  0.00000000000E+00 0.  1.
<mgrwt>
<rscale>  2 0.19814961E+03</rscale>
<asrwt>0</asrwt>
<pdfrwt beam="1">  1       21 0.73783289E-01 0.19915271E+03</pdfrwt>
<pdfrwt beam="2">  1       21 0.14608489E-01 0.19915271E+03</pdfrwt>
<totfact> 0.67671185E+04</totfact>
</mgrwt>
</event>
<event>
12    2  0.4097182E-002  0.1733416E+03  0.7546771E-02  0.1174574E+00
         21   -1    0    0  503  502  0.00000000000E+00  0.00000000000E+00  0.54942760685E+02  0.54942760685E+02  0.00000000000E+00 0. -1.
         21   -1    0    0  501  503 -0.00000000000E+00 -0.00000000000E+00 -0.94045816391E+03  0.94045816391E+03  0.00000000000E+00 0. -1.
          6    2    1    2  501    0  0.42006630164E+01  0.11253839492E+02 -0.76508190075E+03  0.78432853138E+03  0.17226907967E+03 0.  0.
         24    2    3    3    0    0 -0.53057291811E+02 -0.19003707287E+02 -0.57673340032E+03  0.58510192638E+03  0.80911260631E+02 0.  0.
         -6    2    1    2    0  502 -0.42006630164E+01 -0.11253839492E+02 -0.12043350247E+03  0.21107239321E+03  0.17292493223E+03 0.  0.
        -24    2    5    5    0    0  0.20585684752E+02  0.95218246122E+01  0.92510264317E+01  0.77333250507E+02  0.73351309349E+02 0.  0.
          5    1    3    3  501    0  0.57257954827E+02  0.30257546779E+02 -0.18834850043E+03  0.19922660500E+03  0.47000000000E+01 0. -1.
        -15    1    4    4    0    0  0.17236098088E+02 -0.21570823294E+01 -0.41706785534E+02  0.45214486286E+02  0.17770000000E+01 0.  1.
         16    1    4    4    0    0 -0.70293389899E+02 -0.16846624958E+02 -0.53502661479E+03  0.53988744009E+03  0.00000000000E+00 0. -1.
         -5    1    5    5    0  502 -0.24786347769E+02 -0.20775664104E+02 -0.12968452891E+03  0.13373914271E+03  0.47000000000E+01 0.  1.
         15    1    6    6    0    0  0.18846203690E+02  0.15562813100E+02 -0.29343208257E+02  0.38230382485E+02  0.17770000000E+01 0. -1.
        -16    1    6    6    0    0  0.17394810624E+01 -0.60409884882E+01  0.38594234689E+02  0.39102868022E+02  0.00000000000E+00 0.  1.
<mgrwt>
<rscale>  2 0.17317785E+03</rscale>
<asrwt>0</asrwt>
<pdfrwt beam="1">  1       21 0.84527321E-02 0.17334165E+03</pdfrwt>
<pdfrwt beam="2">  1       21 0.14468588E+00 0.17334165E+03</pdfrwt>
<totfact> 0.36234131E+04</totfact>
</mgrwt>
</event>
<event>
12    2  0.4097182E-002  0.2179351E+03  0.7546771E-02  0.1135538E+00
         21   -1    0    0  503  502  0.00000000000E+00  0.00000000000E+00  0.13780069884E+04  0.13780069884E+04  0.00000000000E+00 0. -1.
         21   -1    0    0  501  503 -0.00000000000E+00 -0.00000000000E+00 -0.60649923698E+02  0.60649923698E+02  0.00000000000E+00 0.  1.
          6    2    1    2  501    0 -0.12508013416E+03  0.42291604017E+02  0.18572869912E+03  0.28634047214E+03  0.17338424547E+03 0.  0.
         24    2    3    3    0    0 -0.15101077792E+03  0.66999324695E+02  0.14285851889E+03  0.23027968281E+03  0.72986377758E+02 0.  0.
         -6    2    1    2    0  502  0.12508013416E+03 -0.42291604017E+02  0.11316283656E+04  0.11523164399E+04  0.17267541883E+03 0.  0.
        -24    2    5    5    0    0  0.14169032007E+03 -0.70048171521E+02  0.10413617857E+04  0.10563139881E+04  0.79887293283E+02 0.  0.
          5    1    3    3  501    0  0.25930643766E+02 -0.24707720679E+02  0.42870180227E+02  0.56060789327E+02  0.47000000000E+01 0. -1.
        -15    1    4    4    0    0 -0.49178637258E+02  0.46755440529E+02  0.22920575170E+02  0.71645795946E+02  0.17770000000E+01 0.  1.
         16    1    4    4    0    0 -0.10183214067E+03  0.20243884166E+02  0.11993794372E+03  0.15863388687E+03  0.00000000000E+00 0. -1.
         -5    1    5    5    0  502 -0.16610185914E+02  0.27756567504E+02  0.90266579829E+02  0.96002451790E+02  0.47000000000E+01 0.  1.
         15    1    6    6    0    0  0.93614175057E+02 -0.13015705671E+02  0.73239640633E+03  0.73847185194E+03  0.17770000000E+01 0. -1.
        -16    1    6    6    0    0  0.48076145014E+02 -0.57032465850E+02  0.30896537940E+03  0.31784213621E+03  0.00000000000E+00 0.  1.
<mgrwt>
<rscale>  2 0.21779411E+03</rscale>
<asrwt>0</asrwt>
<pdfrwt beam="1">  1       21 0.21200105E+00 0.21793512E+03</pdfrwt>
<pdfrwt beam="2">  1       21 0.93307586E-02 0.21793512E+03</pdfrwt>
<totfact> 0.10120950E+04</totfact>
</mgrwt>
</event>
<event>
12    2  0.4097182E-002  0.1848153E+03  0.7546771E-02  0.1164596E+00
         21   -1    0    0  503  502  0.00000000000E+00  0.00000000000E+00  0.27671427981E+03  0.27671427981E+03  0.00000000000E+00 0.  1.
         21   -1    0    0  501  503 -0.00000000000E+00 -0.00000000000E+00 -0.12116582138E+03  0.12116582138E+03  0.00000000000E+00 0.  1.
          6    2    1    2  501    0 -0.22112931495E+02  0.64267760443E+02  0.56436949145E+02  0.19324030182E+03  0.17186436002E+03 0.  0.
         24    2    3    3    0    0 -0.37708372711E+02  0.59843666112E+02  0.10004356458E+03  0.14648116039E+03  0.80279697245E+02 0.  0.
         -6    2    1    2    0  502  0.22112931495E+02 -0.64267760443E+02  0.99111509289E+02  0.20463979937E+03  0.16563523008E+03 0.  0.
        -24    2    5    5    0    0  0.36620027084E+02 -0.72630978505E+02  0.12525363116E+03  0.17324075839E+03  0.87792954303E+02 0.  0.
          5    1    3    3  501    0  0.15595441216E+02  0.44240943313E+01 -0.43606615432E+02  0.46759141425E+02  0.47000000000E+01 0. -1.
        -15    1    4    4    0    0 -0.24165272147E+02 -0.15202261303E+02  0.15159995681E+02  0.32373636261E+02  0.17770000000E+01 0.  1.
         16    1    4    4    0    0 -0.13543100564E+02  0.75045927415E+02  0.84883568895E+02  0.11410752413E+03  0.00000000000E+00 0. -1.
         -5    1    5    5    0  502 -0.14507095589E+02  0.83632180619E+01 -0.26142121874E+02  0.31399040986E+02  0.47000000000E+01 0.  1.
         15    1    6    6    0    0  0.10153186655E+01 -0.29598028900E+02 -0.62923570493E+01  0.30328627945E+02  0.17770000000E+01 0. -1.
        -16    1    6    6    0    0  0.35604708419E+02 -0.43032949605E+02  0.13154598821E+03  0.14291213044E+03  0.00000000000E+00 0.  1.
<mgrwt>
<rscale>  2 0.18335353E+03</rscale>
<asrwt>0</asrwt>
<pdfrwt beam="1">  1       21 0.42571427E-01 0.18481527E+03</pdfrwt>
<pdfrwt beam="2">  1       21 0.18640896E-01 0.18481527E+03</pdfrwt>
<totfact> 0.14004405E+05</totfact>
</mgrwt>
</event>
<event>
12    2  0.4097182E-002  0.1952016E+03  0.7546771E-02  0.1154003E+00
         21   -1    0    0  503  502  0.00000000000E+00  0.00000000000E+00  0.40853052661E+03  0.40853052661E+03  0.00000000000E+00 0. -1.
         21   -1    0    0  501  503 -0.00000000000E+00 -0.00000000000E+00 -0.13814199570E+03  0.13814199570E+03  0.00000000000E+00 0. -1.
          6    2    1    2  501    0  0.82726895670E+02  0.34697587647E+02 -0.21002231445E+02  0.19632823949E+03  0.17336672703E+03 0.  0.
         24    2    3    3    0    0  0.61018653094E+02 -0.45190424615E+02 -0.25082746796E+02  0.11330966985E+03  0.80277559711E+02 0.  0.
         -6    2    1    2    0  502 -0.82726895670E+02 -0.34697587647E+02  0.29139076236E+03  0.35034428282E+03  0.17258296052E+03 0.  0.
        -24    2    5    5    0    0 -0.88574838520E+02 -0.46787773024E+02  0.30496433880E+03  0.33067951749E+03  0.79442417030E+02 0.  0.
          5    1    3    3  501    0  0.21708242577E+02  0.79888012262E+02  0.40805153504E+01  0.83018569636E+02  0.47000000000E+01 0. -1.
        -15    1    4    4    0    0  0.24935851851E+02  0.13743949437E+02  0.16207446176E+02  0.32810545473E+02  0.17770000000E+01 0.  1.
         16    1    4    4    0    0  0.36082801242E+02 -0.58934374052E+02 -0.41290192971E+02  0.80499124381E+02  0.00000000000E+00 0. -1.
         -5    1    5    5    0  502  0.58479428500E+01  0.12090185377E+02 -0.13573576445E+02  0.19664765331E+02  0.47000000000E+01 0.  1.
         15    1    6    6    0    0 -0.13241281420E+02  0.26335816059E+01  0.15596039700E+03  0.15655373022E+03  0.17770000000E+01 0. -1.
        -16    1    6    6    0    0 -0.75333557101E+02 -0.49421354630E+02  0.14900394181E+03  0.17412578727E+03  0.00000000000E+00 0.  1.
<mgrwt>
<rscale>  2 0.19502748E+03</rscale>
<asrwt>0</asrwt>
<pdfrwt beam="1">  1       21 0.62850850E-01 0.19520165E+03</pdfrwt>
<pdfrwt beam="2">  1       21 0.21252615E-01 0.19520165E+03</pdfrwt>
<totfact> 0.48237665E+04</totfact>
</mgrwt>
</event>
<event>
12    2  0.4097182E-002  0.3398563E+03  0.7546771E-02  0.1067149E+00
         21   -1    0    0  501  502  0.00000000000E+00  0.00000000000E+00  0.10744473549E+03  0.10744473549E+03  0.00000000000E+00 0. -1.
         21   -1    0    0  502  503 -0.00000000000E+00 -0.00000000000E+00 -0.11402855975E+04  0.11402855975E+04  0.00000000000E+00 0.  1.
         -6    2    1    2    0  503  0.18673802536E+03 -0.22642805842E+03 -0.67330909475E+03  0.75299266275E+03  0.16586758978E+03 0.  0.
        -24    2    3    3    0    0  0.12382682806E+03 -0.17792927022E+03 -0.34693058972E+03  0.41705372523E+03  0.81123776382E+02 0.  0.
          6    2    1    2  501    0 -0.18673802536E+03  0.22642805842E+03 -0.35953176726E+03  0.49473767023E+03  0.17135202049E+03 0.  0.
         24    2    5    5    0    0 -0.33140770719E+02  0.35327251486E+02 -0.10552556638E+03  0.14167552963E+03  0.81178723532E+02 0.  0.
          5    1    5    5  501    0 -0.15359725464E+03  0.19110080693E+03 -0.25400620089E+03  0.35306214061E+03  0.47000000000E+01 0. -1.
        -15    1    6    6    0    0 -0.26277353905E+02 -0.20352679073E+02 -0.63092299888E+02  0.71333911346E+02  0.17770000000E+01 0.  1.
         16    1    6    6    0    0 -0.68634168145E+01  0.55679930559E+02 -0.42433266489E+02  0.70341618281E+02  0.00000000000E+00 0. -1.
         -5    1    3    3    0  503  0.62911197297E+02 -0.48498788193E+02 -0.32637850502E+03  0.33593893752E+03  0.47000000000E+01 0.  1.
         15    1    4    4    0    0  0.27525323870E+02 -0.52814107316E+02 -0.39607253776E+02  0.71546248443E+02  0.17770000000E+01 0. -1.
        -16    1    4    4    0    0  0.96301504189E+02 -0.12511516291E+03 -0.30732333595E+03  0.34550747679E+03  0.00000000000E+00 0.  1.
<mgrwt>
<rscale>  2 0.33917120E+03</rscale>
<asrwt>0</asrwt>
<pdfrwt beam="1">  1       21 0.16529960E-01 0.33985625E+03</pdfrwt>
<pdfrwt beam="2">  1       21 0.17542855E+00 0.33985625E+03</pdfrwt>
<totfact> 0.58381593E+03</totfact>
</mgrwt>
</event>
<event>
12    2  0.4097182E-002  0.2360644E+03  0.7546771E-02  0.1122508E+00
         21   -1    0    0  501  502  0.00000000000E+00  0.00000000000E+00  0.42582180827E+03  0.42582180827E+03  0.00000000000E+00 0. -1.
         21   -1    0    0  502  503 -0.00000000000E+00 -0.00000000000E+00 -0.32284030546E+03  0.32284030546E+03  0.00000000000E+00 0.  1.
         -6    2    1    2    0  503 -0.78186791044E+02  0.13994131121E+03 -0.23734215626E+03  0.33448029868E+03  0.17276870720E+03 0.  0.
        -24    2    3    3    0    0 -0.31479375714E+02  0.16160729381E+03 -0.19964461652E+03  0.27049442562E+03  0.78748923001E+02 0.  0.
          6    2    1    2  501    0  0.78186791044E+02 -0.13994131121E+03  0.34032365907E+03  0.41418181506E+03  0.17329061753E+03 0.  0.
         24    2    5    5    0    0  0.47416557450E+02 -0.90433581237E+00  0.99797279458E+02  0.13462302501E+03  0.76907178677E+02 0.  0.
          5    1    5    5  501    0  0.30770233594E+02 -0.13903697540E+03  0.24052637961E+03  0.27955879005E+03  0.47000000000E+01 0. -1.
        -15    1    6    6    0    0 -0.10914052772E+02 -0.60573148643E+01  0.65621737216E+02  0.66821985420E+02  0.17770000000E+01 0.  1.
         16    1    6    6    0    0  0.58330610222E+02  0.51529790519E+01  0.34175542242E+02  0.67801039590E+02  0.00000000000E+00 0. -1.
         -5    1    3    3    0  503 -0.46707415330E+02 -0.21665982607E+02 -0.37697539741E+02  0.63985873063E+02  0.47000000000E+01 0.  1.
         15    1    4    4    0    0 -0.61093546118E+01  0.10820782407E+03 -0.17624997218E+03  0.20691415569E+03  0.17770000000E+01 0. -1.
        -16    1    4    4    0    0 -0.25370021102E+02  0.53399469749E+02 -0.23394644347E+02  0.63580269929E+02  0.00000000000E+00 0.  1.
<mgrwt>
<rscale>  2 0.23596859E+03</rscale>
<asrwt>0</asrwt>
<pdfrwt beam="1">  1       21 0.65511047E-01 0.23606436E+03</pdfrwt>
<pdfrwt beam="2">  1       21 0.49667739E-01 0.23606436E+03</pdfrwt>
<totfact> 0.80414068E+03</totfact>
</mgrwt>
</event>
<event>
12    2  0.4097182E-002  0.1773364E+03  0.7546771E-02  0.1170442E+00
         21   -1    0    0  501  502  0.00000000000E+00  0.00000000000E+00  0.95063199284E+02  0.95063199284E+02  0.00000000000E+00 0.  1.
         21   -1    0    0  502  503 -0.00000000000E+00 -0.00000000000E+00 -0.81551641878E+03  0.81551641878E+03  0.00000000000E+00 0.  1.
         -6    2    1    2    0  503  0.27335419913E+02  0.25477445273E+02 -0.71138544189E+03  0.73315581377E+03  0.17335476611E+03 0.  0.
        -24    2    3    3    0    0  0.55228670041E+02  0.29115659483E+02 -0.23632457791E+03  0.25723966097E+03  0.80156156553E+02 0.  0.
          6    2    1    2  501    0 -0.27335419913E+02 -0.25477445273E+02 -0.90677776079E+01  0.17742380429E+03  0.17320697544E+03 0.  0.
         24    2    5    5    0    0 -0.40718814603E+02 -0.35674250718E+02  0.53903644832E+02  0.11207412840E+03  0.82002032320E+02 0.  0.
          5    1    5    5  501    0  0.13383394690E+02  0.10196805444E+02 -0.62971422440E+02  0.65349675889E+02  0.47000000000E+01 0. -1.
        -15    1    6    6    0    0 -0.61945616740E+02 -0.42354822831E+02  0.47833561919E+02  0.89007852604E+02  0.17770000000E+01 0.  1.
         16    1    6    6    0    0  0.21226802137E+02  0.66805721138E+01  0.60700829134E+01  0.23066275801E+02  0.00000000000E+00 0. -1.
         -5    1    3    3    0  503 -0.27893250128E+02 -0.36382142092E+01 -0.47506086398E+03  0.47591615279E+03  0.47000000000E+01 0.  1.
         15    1    4    4    0    0  0.72318184100E+02  0.38618760528E+02 -0.19377223305E+03  0.21040951606E+03  0.17770000000E+01 0. -1.
        -16    1    4    4    0    0 -0.17089514059E+02 -0.95031010459E+01 -0.42552344855E+02  0.46830144917E+02  0.00000000000E+00 0.  1.
<mgrwt>
<rscale>  2 0.17730028E+03</rscale>
<asrwt>0</asrwt>
<pdfrwt beam="1">  1       21 0.14625107E-01 0.17733640E+03</pdfrwt>
<pdfrwt beam="2">  1       21 0.12546407E+00 0.17733640E+03</pdfrwt>
<totfact> 0.19608059E+04</totfact>
</mgrwt>
</event>
<event>
12    2  0.4097182E-002  0.2103063E+03  0.7546771E-02  0.1141505E+00
         21   -1    0    0  503  502  0.00000000000E+00  0.00000000000E+00  0.71886542297E+03  0.71886542297E+03  0.00000000000E+00 0. -1.
         21   -1    0    0  501  503 -0.00000000000E+00 -0.00000000000E+00 -0.64820631785E+02  0.64820631785E+02  0.00000000000E+00 0. -1.
          6    2    1    2  501    0 -0.48218117128E+02  0.10983783844E+03  0.23583718943E+03  0.31598723789E+03  0.17274089561E+03 0.  0.
         24    2    3    3    0    0 -0.68346712447E+01  0.13797381676E+03  0.18041559341E+03  0.24116834873E+03  0.80801604190E+02 0.  0.
         -6    2    1    2    0  502  0.48218117128E+02 -0.10983783844E+03  0.41820760175E+03  0.46769881687E+03  0.17162531154E+03 0.  0.
        -24    2    5    5    0    0  0.91038426624E+02 -0.42127372426E+02  0.27261091939E+03  0.30144969648E+03  0.80576023166E+02 0.  0.
          5    1    3    3  501    0 -0.41383445883E+02 -0.28135978322E+02  0.55421596018E+02  0.74818889155E+02  0.47000000000E+01 0. -1.
        -15    1    4    4    0    0  0.28537636631E+02  0.65950881242E+02  0.48325918457E+02  0.86616785699E+02  0.17770000000E+01 0.  1.
         16    1    4    4    0    0 -0.35372307876E+02  0.72022935522E+02  0.13208967496E+03  0.15455156303E+03  0.00000000000E+00 0. -1.
         -5    1    5    5    0  502 -0.42820309496E+02 -0.67710466016E+02  0.14559668237E+03  0.16624912039E+03  0.47000000000E+01 0.  1.
         15    1    6    6    0    0  0.55044905105E+02 -0.29337387254E+02  0.24864521007E+03  0.25635565546E+03  0.17770000000E+01 0. -1.
        -16    1    6    6    0    0  0.35993521519E+02 -0.12789985173E+02  0.23965709317E+02  0.45094041015E+02  0.00000000000E+00 0.  1.
<mgrwt>
<rscale>  2 0.21007712E+03</rscale>
<asrwt>0</asrwt>
<pdfrwt beam="1">  1       21 0.11059468E+00 0.21030634E+03</pdfrwt>
<pdfrwt beam="2">  1       21 0.99724054E-02 0.21030634E+03</pdfrwt>
<totfact> 0.52091576E+04</totfact>
</mgrwt>
</event>
<event>
12    2  0.4097182E-002  0.1996778E+03  0.7546771E-02  0.1150286E+00
         21   -1    0    0  501  502  0.00000000000E+00  0.00000000000E+00  0.27636287798E+03  0.27636287798E+03  0.00000000000E+00 0. -1.
         21   -1    0    0  502  503 -0.00000000000E+00 -0.00000000000E+00 -0.28421827339E+03  0.28421827339E+03  0.00000000000E+00 0. -1.
         -6    2    1    2    0  503  0.98152652005E+02 -0.10384744302E+02 -0.20127179227E+03  0.28351638650E+03  0.17357828505E+03 0.  0.
        -24    2    3    3    0    0  0.10332571642E+03  0.47109549184E+02 -0.11548593187E+03  0.18000958371E+03  0.78555308358E+02 0.  0.
          6    2    1    2  501    0 -0.98152652005E+02  0.10384744302E+02  0.19341639687E+03  0.27706476486E+03  0.17208484925E+03 0.  0.
         24    2    5    5    0    0 -0.10180659152E+03 -0.30411298759E+02  0.78309929705E+02  0.15479760989E+03  0.80872898852E+02 0.  0.
          5    1    5    5  501    0  0.36539395121E+01  0.40796043061E+02  0.11510646716E+03  0.12226715497E+03  0.47000000000E+01 0. -1.
        -15    1    6    6    0    0 -0.87080524703E+01 -0.25137607458E+02 -0.78959225055E+01  0.27807063990E+02  0.17770000000E+01 0.  1.
         16    1    6    6    0    0 -0.93098539047E+02 -0.52736913014E+01  0.86205852211E+02  0.12699054590E+03  0.00000000000E+00 0. -1.
         -5    1    3    3    0  503 -0.51730644106E+01 -0.57494293486E+02 -0.85785860404E+02  0.10350680279E+03  0.47000000000E+01 0.  1.
         15    1    4    4    0    0  0.59012048661E+02  0.66771643000E+02 -0.67576601600E+02  0.11185092315E+03  0.17770000000E+01 0. -1.
        -16    1    4    4    0    0  0.44313667754E+02 -0.19662093816E+02 -0.47909330268E+02  0.68158660563E+02  0.00000000000E+00 0.  1.
<mgrwt>
<rscale>  2 0.19935275E+03</rscale>
<asrwt>0</asrwt>
<pdfrwt beam="1">  1       21 0.42517366E-01 0.19967776E+03</pdfrwt>
<pdfrwt beam="2">  1       21 0.43725888E-01 0.19967776E+03</pdfrwt>
<totfact> 0.26641700E+04</totfact>
</mgrwt>
</event>
<event>
12    2  0.4097182E-002  0.2216427E+03  0.7546771E-02  0.1133411E+00
         21   -1    0    0  503  502  0.00000000000E+00  0.00000000000E+00  0.60631323702E+02  0.60631323702E+02  0.00000000000E+00 0. -1.
         21   -1    0    0  501  503 -0.00000000000E+00 -0.00000000000E+00 -0.95939951266E+03  0.95939951266E+03  0.00000000000E+00 0. -1.
          6    2    1    2  501    0  0.31454683107E+02  0.12847006681E+03 -0.66347369671E+03  0.69951613253E+03  0.17785251837E+03 0.  0.
         24    2    3    3    0    0  0.54498277689E+02  0.65157104805E+02 -0.58076763058E+03  0.59273635081E+03  0.82642787154E+02 0.  0.
         -6    2    1    2    0  502 -0.31454683107E+02 -0.12847006681E+03 -0.23529449225E+03  0.32051470383E+03  0.17283582422E+03 0.  0.
        -24    2    5    5    0    0 -0.81181271598E+01 -0.90315584414E+00 -0.11165186333E+03  0.14127324294E+03  0.86170011640E+02 0.  0.
          5    1    3    3  501    0 -0.23043594582E+02  0.63312962007E+02 -0.82706066131E+02  0.10677978172E+03  0.47000000000E+01 0. -1.
        -15    1    4    4    0    0  0.10529591886E+02  0.19208648538E+02 -0.40872763333E+03  0.40931806760E+03  0.17770000000E+01 0.  1.
         16    1    4    4    0    0  0.43968685803E+02  0.45948456267E+02 -0.17203999725E+03  0.18341828321E+03  0.00000000000E+00 0. -1.
         -5    1    5    5    0  502 -0.23336555947E+02 -0.12756691097E+03 -0.12364262892E+03  0.17924146089E+03  0.47000000000E+01 0.  1.
         15    1    6    6    0    0  0.18984382501E+02 -0.29511958098E+02 -0.17596650404E+02  0.39295830366E+02  0.17770000000E+01 0. -1.
        -16    1    6    6    0    0 -0.27102509661E+02  0.28608802254E+02 -0.94055212926E+02  0.10197741257E+03  0.00000000000E+00 0.  1.
<mgrwt>
<rscale>  2 0.22063458E+03</rscale>
<asrwt>0</asrwt>
<pdfrwt beam="1">  1       21 0.93278964E-02 0.22164267E+03</pdfrwt>
<pdfrwt beam="2">  1       21 0.14759992E+00 0.22164267E+03</pdfrwt>
<totfact> 0.28103794E+04</totfact>
</mgrwt>
</event>
<event>
12    2  0.4097182E-002  0.2107477E+03  0.7546771E-02  0.1141610E+00
         21   -1    0    0  503  502  0.00000000000E+00  0.00000000000E+00  0.45935088316E+02  0.45935088316E+02  0.00000000000E+00 0. -1.
         21   -1    0    0  501  503 -0.00000000000E+00 -0.00000000000E+00 -0.95520168118E+03  0.95520168118E+03  0.00000000000E+00 0. -1.
          6    2    1    2  501    0  0.10145268923E+03 -0.52467385480E+02 -0.48575304714E+03  0.52950035834E+03  0.17711333091E+03 0.  0.
         24    2    3    3    0    0  0.96604493129E+02 -0.20289272665E+02 -0.16725100920E+03  0.20930577044E+03  0.78050770542E+02 0.  0.
         -6    2    1    2    0  502 -0.10145268923E+03  0.52467385480E+02 -0.42351354572E+03  0.47163641115E+03  0.17329658457E+03 0.  0.
        -24    2    5    5    0    0 -0.81889487931E+01 -0.12030828037E+02 -0.26456592575E+03  0.27633003460E+03  0.78430601485E+02 0.  0.
          5    1    3    3  501    0  0.48481961017E+01 -0.32178112815E+02 -0.31850203794E+03  0.32019458790E+03  0.47000000000E+01 0. -1.
        -15    1    4    4    0    0  0.48539163060E+02 -0.45877180314E+02 -0.63709282414E+02  0.92318992731E+02  0.17770000000E+01 0.  1.
         16    1    4    4    0    0  0.48065330069E+02  0.25587907649E+02 -0.10354172678E+03  0.11698677770E+03  0.00000000000E+00 0. -1.
         -5    1    5    5    0  502 -0.93263740437E+02  0.64498213517E+02 -0.15894761998E+03  0.19530637656E+03  0.47000000000E+01 0.  1.
         15    1    6    6    0    0 -0.25818005622E+02 -0.17020692589E+02 -0.25249869427E+03  0.25439147338E+03  0.17770000000E+01 0. -1.
        -16    1    6    6    0    0  0.17629056829E+02  0.49898645516E+01 -0.12067231477E+02  0.21938561221E+02  0.00000000000E+00 0.  1.
<mgrwt>
<rscale>  2 0.20994382E+03</rscale>
<asrwt>0</asrwt>
<pdfrwt beam="1">  1       21 0.70669361E-02 0.21074773E+03</pdfrwt>
<pdfrwt beam="2">  1       21 0.14695412E+00 0.21074773E+03</pdfrwt>
<totfact> 0.46458966E+04</totfact>
</mgrwt>
</event>
<event>
12    2  0.4097182E-002  0.1954487E+03  0.7546771E-02  0.1154662E+00
         21   -1    0    0  503  502  0.00000000000E+00  0.00000000000E+00  0.80975585841E+02  0.80975585841E+02  0.00000000000E+00 0.  1.
         21   -1    0    0  501  503 -0.00000000000E+00 -0.00000000000E+00 -0.76287657384E+03  0.76287657384E+03  0.00000000000E+00 0.  1.
          6    2    1    2  501    0  0.19304591647E+02  0.89688215134E+02 -0.60405827068E+03  0.63347225977E+03  0.16728438760E+03 0.  0.
         24    2    3    3    0    0 -0.40643408238E+02  0.60059391685E+02 -0.51012838217E+03  0.51807492955E+03  0.53959699432E+02 0.  0.
         -6    2    1    2    0  502 -0.19304591647E+02 -0.89688215134E+02 -0.77842717321E+02  0.21037989991E+03  0.17257917155E+03 0.  0.
        -24    2    5    5    0    0  0.27721025097E+02 -0.71452848324E+02 -0.10486978872E+03  0.15296483375E+03  0.80787393901E+02 0.  0.
          5    1    3    3  501    0  0.59947999886E+02  0.29628823449E+02 -0.93929888505E+02  0.11539733023E+03  0.47000000000E+01 0. -1.
        -15    1    4    4    0    0 -0.17236564379E+02 -0.65333942495E+01 -0.74635948778E+02  0.76899070027E+02  0.17770000000E+01 0.  1.
         16    1    4    4    0    0 -0.23406843859E+02  0.66592785935E+02 -0.43549243340E+03  0.44117585952E+03  0.00000000000E+00 0. -1.
         -5    1    5    5    0  502 -0.47025616744E+02 -0.18235366810E+02  0.27027071399E+02  0.57415066152E+02  0.47000000000E+01 0.  1.
         15    1    6    6    0    0 -0.51920740248E+01 -0.70854256104E+02 -0.94919121166E+02  0.11857521045E+03  0.17770000000E+01 0. -1.
        -16    1    6    6    0    0  0.32913099122E+02 -0.59859222015E+00 -0.99506675542E+01  0.34389623307E+02  0.00000000000E+00 0.  1.
<mgrwt>
<rscale>  2 0.19427343E+03</rscale>
<asrwt>0</asrwt>
<pdfrwt beam="1">  1       21 0.12457782E-01 0.19544875E+03</pdfrwt>
<pdfrwt beam="2">  1       21 0.11736563E+00 0.19544875E+03</pdfrwt>
<totfact> 0.30560864E+04</totfact>
</mgrwt>
</event>
<event>
12    2  0.4097182E-002  0.2628608E+03  0.7546771E-02  0.1105495E+00
         21   -1    0    0  501  502  0.00000000000E+00  0.00000000000E+00  0.61331967478E+02  0.61331967478E+02  0.00000000000E+00 0. -1.
         21   -1    0    0  502  503 -0.00000000000E+00 -0.00000000000E+00 -0.13059416264E+04  0.13059416264E+04  0.00000000000E+00 0.  1.
         -6    2    1    2    0  503 -0.12459244479E+03  0.15318789345E+03 -0.87644257551E+03  0.91489895554E+03  0.17291241332E+03 0.  0.
        -24    2    3    3    0    0 -0.18748882695E+01  0.34893497332E+02 -0.23858803351E+03  0.25464622394E+03  0.81849729817E+02 0.  0.
          6    2    1    2  501    0  0.12459244479E+03 -0.15318789345E+03 -0.36816708340E+03  0.45237463832E+03  0.17351081841E+03 0.  0.
         24    2    5    5    0    0  0.10832094049E+03 -0.18229551875E+03 -0.34277133189E+03  0.41019585340E+03  0.76179852152E+02 0.  0.
          5    1    5    5  501    0  0.16271504303E+02  0.29107625304E+02 -0.25395751503E+02  0.42178784922E+02  0.47000000000E+01 0. -1.
        -15    1    6    6    0    0  0.62237085914E+02 -0.15429054740E+03 -0.29230061232E+03  0.33633589397E+03  0.17770000000E+01 0.  1.
         16    1    6    6    0    0  0.46083854577E+02 -0.28004971354E+02 -0.50470719569E+02  0.73859959430E+02  0.00000000000E+00 0. -1.
         -5    1    3    3    0  503 -0.12271755652E+03  0.11829439612E+03 -0.63785454200E+03  0.66025273160E+03  0.47000000000E+01 0.  1.
         15    1    4    4    0    0  0.54666273137E+01 -0.25320339892E+02 -0.47134951402E+02  0.53813241856E+02  0.17770000000E+01 0. -1.
        -16    1    4    4    0    0 -0.73415155832E+01  0.60213837224E+02 -0.19145308211E+03  0.20083298209E+03  0.00000000000E+00 0.  1.
<mgrwt>
<rscale>  2 0.26276211E+03</rscale>
<asrwt>0</asrwt>
<pdfrwt beam="1">  1       21 0.94356865E-02 0.26286082E+03</pdfrwt>
<pdfrwt beam="2">  1       21 0.20091411E+00 0.26286082E+03</pdfrwt>
<totfact> 0.11317434E+04</totfact>
</mgrwt>
</event>
<event>
12    2  0.4097182E-002  0.2344760E+03  0.7546771E-02  0.1124440E+00
         21   -1    0    0  501  502  0.00000000000E+00  0.00000000000E+00  0.47034505103E+03  0.47034505103E+03  0.00000000000E+00 0.  1.
         21   -1    0    0  502  503 -0.00000000000E+00 -0.00000000000E+00 -0.20902403375E+03  0.20902403375E+03  0.00000000000E+00 0.  1.
         -6    2    1    2    0  503 -0.80395379593E+02 -0.12710313454E+03 -0.98823618051E+02  0.24962129855E+03  0.17299150654E+03 0.  0.
        -24    2    3    3    0    0 -0.89709800937E+02 -0.15631819496E+03 -0.77615002149E+02  0.21204240037E+03  0.80340926905E+02 0.  0.
          6    2    1    2  501    0  0.80395379593E+02  0.12710313454E+03  0.36014463534E+03  0.42974778623E+03  0.17988990392E+03 0.  0.
         24    2    5    5    0    0  0.10476928949E+03  0.14926328713E+03  0.28846531520E+03  0.35072136797E+03  0.80852377678E+02 0.  0.
          5    1    5    5  501    0 -0.24373909894E+02 -0.22160152587E+02  0.71679320139E+02  0.79026418253E+02  0.47000000000E+01 0. -1.
        -15    1    6    6    0    0  0.12387780448E+02  0.52986687667E+02  0.14457629352E+03  0.15448789128E+03  0.17770000000E+01 0.  1.
         16    1    6    6    0    0  0.92381509040E+02  0.96276599460E+02  0.14388902168E+03  0.19623347669E+03  0.00000000000E+00 0. -1.
         -5    1    3    3    0  503  0.93144213439E+01  0.29215060419E+02 -0.21208615902E+02  0.37578898184E+02  0.47000000000E+01 0.  1.
         15    1    4    4    0    0  0.17387787999E+01 -0.58370535439E+02 -0.26206938639E+01  0.58482206905E+02  0.17770000000E+01 0. -1.
        -16    1    4    4    0    0 -0.91448579737E+02 -0.97947659520E+02 -0.74994308285E+02  0.15356019346E+03  0.00000000000E+00 0.  1.
<mgrwt>
<rscale>  2 0.23315241E+03</rscale>
<asrwt>0</asrwt>
<pdfrwt beam="1">  1       21 0.72360777E-01 0.23447601E+03</pdfrwt>
<pdfrwt beam="2">  1       21 0.32157544E-01 0.23447601E+03</pdfrwt>
<totfact> 0.15621646E+04</totfact>
</mgrwt>
</event>
<event>
12    2  0.4097182E-002  0.1929755E+03  0.7546771E-02  0.1156023E+00
         21   -1    0    0  503  502  0.00000000000E+00  0.00000000000E+00  0.65074393050E+03  0.65074393050E+03  0.00000000000E+00 0. -1.
         21   -1    0    0  501  503 -0.00000000000E+00 -0.00000000000E+00 -0.13887122911E+03  0.13887122911E+03  0.00000000000E+00 0.  1.
          6    2    1    2  501    0  0.38814730032E+02 -0.74078724662E+02 -0.47595616342E+02  0.19780070841E+03  0.17281648312E+03 0.  0.
         24    2    3    3    0    0  0.58045307670E+02  0.12535486809E+02 -0.53104932540E+02  0.10878228723E+03  0.74074664920E+02 0.  0.
         -6    2    1    2    0  502 -0.38814730032E+02  0.74078724662E+02  0.55946831773E+03  0.59181445120E+03  0.17391177472E+03 0.  0.
        -24    2    5    5    0    0 -0.69127937338E+02  0.52123326354E+02  0.53235342218E+03  0.54535761518E+03  0.80741869280E+02 0.  0.
          5    1    3    3  501    0 -0.19230577638E+02 -0.86614211471E+02  0.55093161986E+01  0.89018421183E+02  0.47000000000E+01 0. -1.
        -15    1    4    4    0    0  0.63034172627E+02 -0.12344019144E+02 -0.53178546926E+02  0.83407417593E+02  0.17770000000E+01 0.  1.
         16    1    4    4    0    0 -0.49888649572E+01  0.24879505953E+02  0.73614385718E-01  0.25374869637E+02  0.00000000000E+00 0. -1.
         -5    1    5    5    0  502  0.30313207306E+02  0.21955398308E+02  0.27114895546E+02  0.46456836015E+02  0.47000000000E+01 0.  1.
         15    1    6    6    0    0 -0.19718526258E+02 -0.20304191421E+02  0.18223163554E+03  0.18442507201E+03  0.17770000000E+01 0. -1.
        -16    1    6    6    0    0 -0.49409411080E+02  0.72427517775E+02  0.35012178665E+03  0.36093254317E+03  0.00000000000E+00 0.  1.
<mgrwt>
<rscale>  2 0.19272841E+03</rscale>
<asrwt>0</asrwt>
<pdfrwt beam="1">  1       21 0.10011445E+00 0.19297551E+03</pdfrwt>
<pdfrwt beam="2">  1       21 0.21364805E-01 0.19297551E+03</pdfrwt>
<totfact> 0.16697945E+04</totfact>
</mgrwt>
</event>
<event>
12    2  0.4097182E-002  0.2382283E+03  0.7546771E-02  0.1121232E+00
         21   -1    0    0  501  502  0.00000000000E+00  0.00000000000E+00  0.65707082160E+03  0.65707082160E+03  0.00000000000E+00 0.  1.
         21   -1    0    0  502  503 -0.00000000000E+00 -0.00000000000E+00 -0.87712566273E+02  0.87712566273E+02  0.00000000000E+00 0.  1.
         -6    2    1    2    0  503 -0.16192785178E+03  0.12606028926E+02  0.33836873822E+03  0.41295679621E+03  0.17222186673E+03 0.  0.
        -24    2    3    3    0    0 -0.66540499949E+01  0.24497829960E+01  0.10732133933E+03  0.13435655682E+03  0.80520411491E+02 0.  0.
          6    2    1    2  501    0  0.16192785178E+03 -0.12606028926E+02  0.23098951711E+03  0.33182659167E+03  0.17427905433E+03 0.  0.
         24    2    5    5    0    0  0.10862818194E+03 -0.46776482410E+02  0.67760667979E+02  0.15668601418E+03  0.77271454597E+02 0.  0.
          5    1    5    5  501    0  0.53299669835E+02  0.34170453484E+02  0.16322884913E+03  0.17514057749E+03  0.47000000000E+01 0. -1.
        -15    1    6    6    0    0  0.10423669676E+03 -0.55243198939E+02  0.78965718879E+02  0.14197127339E+03  0.17770000000E+01 0.  1.
         16    1    6    6    0    0  0.43914851852E+01  0.84667165287E+01 -0.11205050900E+02  0.14714740792E+02  0.00000000000E+00 0. -1.
         -5    1    3    3    0  503 -0.15527380178E+03  0.10156245930E+02  0.23104739889E+03  0.27860023939E+03  0.47000000000E+01 0.  1.
         15    1    4    4    0    0  0.11568464814E+02 -0.35215067553E+02  0.36207059605E+02  0.51846304161E+02  0.17770000000E+01 0. -1.
        -16    1    4    4    0    0 -0.18222514809E+02  0.37664850549E+02  0.71114279725E+02  0.82510252658E+02  0.00000000000E+00 0.  1.
<mgrwt>
<rscale>  2 0.23785222E+03</rscale>
<asrwt>0</asrwt>
<pdfrwt beam="1">  1       21 0.10108782E+00 0.23822831E+03</pdfrwt>
<pdfrwt beam="2">  1       21 0.13494241E-01 0.23822831E+03</pdfrwt>
<totfact> 0.37145046E+04</totfact>
</mgrwt>
</event>
<event>
12    2  0.4097182E-002  0.2087437E+03  0.7546771E-02  0.1142691E+00
         21   -1    0    0  503  502  0.00000000000E+00  0.00000000000E+00  0.17103739186E+03  0.17103739186E+03  0.00000000000E+00 0.  1.
         21   -1    0    0  501  503 -0.00000000000E+00 -0.00000000000E+00 -0.37889150123E+03  0.37889150123E+03  0.00000000000E+00 0.  1.
          6    2    1    2  501    0  0.10454907478E+03  0.53524443616E+02 -0.26190455936E+03  0.33491482162E+03  0.17256466736E+03 0.  0.
         24    2    3    3    0    0  0.51217551508E+02  0.99513268821E+02 -0.15878681537E+03  0.20995649839E+03  0.79638873836E+02 0.  0.
         -6    2    1    2    0  502 -0.10454907478E+03 -0.53524443616E+02  0.54050450000E+02  0.21501407148E+03  0.17179704504E+03 0.  0.
        -24    2    5    5    0    0 -0.19437469645E+01  0.21904209589E+02  0.76608108625E+01  0.79399088383E+02  0.75907540225E+02 0.  0.
          5    1    3    3  501    0  0.53331523271E+02 -0.45988825206E+02 -0.10311774399E+03  0.12495832323E+03  0.47000000000E+01 0. -1.
        -15    1    4    4    0    0  0.32330729737E+02  0.46025417249E+02 -0.19491318158E+02  0.59554045461E+02  0.17770000000E+01 0.  1.
         16    1    4    4    0    0  0.18886821771E+02  0.53487851572E+02 -0.13929549722E+03  0.15040245293E+03  0.00000000000E+00 0. -1.
         -5    1    5    5    0  502 -0.10260532781E+03 -0.75428653205E+02  0.46389639138E+02  0.13561498309E+03  0.47000000000E+01 0.  1.
         15    1    6    6    0    0 -0.94564744615E+01 -0.27205267744E+01 -0.31211585660E+02  0.32774181661E+02  0.17770000000E+01 0. -1.
        -16    1    6    6    0    0  0.75127274971E+01  0.24624736363E+02  0.38872396522E+02  0.46624906721E+02  0.00000000000E+00 0.  1.
<mgrwt>
<rscale>  2 0.20858500E+03</rscale>
<asrwt>0</asrwt>
<pdfrwt beam="1">  1       21 0.26313445E-01 0.20874372E+03</pdfrwt>
<pdfrwt beam="2">  1       21 0.58290999E-01 0.20874372E+03</pdfrwt>
<totfact> 0.37540046E+04</totfact>
</mgrwt>
</event>
<event>
12    2  0.4097182E-002  0.2067356E+03  0.7546771E-02  0.1144259E+00
         21   -1    0    0  501  502  0.00000000000E+00  0.00000000000E+00  0.16766893170E+03  0.16766893170E+03  0.00000000000E+00 0.  1.
         21   -1    0    0  502  503 -0.00000000000E+00 -0.00000000000E+00 -0.56468158119E+03  0.56468158119E+03  0.00000000000E+00 0.  1.
         -6    2    1    2    0  503  0.40625584537E+02 -0.10401633345E+03  0.72837191756E+02  0.21919138510E+03  0.17398209982E+03 0.  0.
        -24    2    3    3    0    0  0.35176910568E+02  0.11882020949E+02  0.46778886864E+02  0.10018196592E+03  0.80433603558E+02 0.  0.
          6    2    1    2  501    0 -0.40625584537E+02  0.10401633345E+03 -0.46984984124E+03  0.51315912779E+03  0.17350383676E+03 0.  0.
         24    2    5    5    0    0  0.40596657110E+02  0.27390608276E+02 -0.20457102203E+03  0.22529892522E+03  0.80696769837E+02 0.  0.
          5    1    5    5  501    0 -0.81222241647E+02  0.76625725171E+02 -0.26527881922E+03  0.28786020256E+03  0.47000000000E+01 0. -1.
        -15    1    6    6    0    0 -0.17465221332E+02 -0.14159876535E+02 -0.58929990840E+02  0.63098633971E+02  0.17770000000E+01 0.  1.
         16    1    6    6    0    0  0.58061878441E+02  0.41550484811E+02 -0.14564103119E+03  0.16220029125E+03  0.00000000000E+00 0. -1.
         -5    1    3    3    0  503  0.54486739692E+01 -0.11589835440E+03  0.26058304892E+02  0.11900941918E+03  0.47000000000E+01 0.  1.
         15    1    4    4    0    0  0.55428576199E+02 -0.11907590194E+02  0.35764698497E+02  0.67055120247E+02  0.17770000000E+01 0. -1.
        -16    1    4    4    0    0 -0.20251665631E+02  0.23789611143E+02  0.11014188367E+02  0.33126845678E+02  0.00000000000E+00 0.  1.
<mgrwt>
<rscale>  2 0.20663494E+03</rscale>
<asrwt>0</asrwt>
<pdfrwt beam="1">  1       21 0.25795220E-01 0.20673560E+03</pdfrwt>
<pdfrwt beam="2">  1       21 0.86874090E-01 0.20673560E+03</pdfrwt>
<totfact> 0.16116204E+04</totfact>
</mgrwt>
</event>
<event>
12    2  0.4097182E-002  0.1870345E+03  0.7546771E-02  0.1161361E+00
         21   -1    0    0  503  502  0.00000000000E+00  0.00000000000E+00  0.34718478953E+03  0.34718478953E+03  0.00000000000E+00 0.  1.
         21   -1    0    0  501  503 -0.00000000000E+00 -0.00000000000E+00 -0.10419175569E+03  0.10419175569E+03  0.00000000000E+00 0.  1.
          6    2    1    2  501    0 -0.51962967915E+02 -0.46390245453E+02  0.78135019556E+02  0.20269927357E+03  0.17357911545E+03 0.  0.
         24    2    3    3    0    0 -0.61893722344E+02  0.28484799510E+02  0.39292985271E+02  0.11763643875E+03  0.87476718963E+02 0.  0.
         -6    2    1    2    0  502  0.51962967915E+02  0.46390245453E+02  0.16485801428E+03  0.24867727164E+03  0.17265577213E+03 0.  0.
        -24    2    5    5    0    0  0.14845203699E+02  0.83466674393E+02  0.60261255047E+02  0.13156637528E+03  0.80568147788E+02 0.  0.
          5    1    3    3  501    0  0.99307544284E+01 -0.74875044963E+02  0.38842034285E+02  0.85062834829E+02  0.47000000000E+01 0. -1.
        -15    1    4    4    0    0  0.95916385297E+01 -0.15470352887E+02 -0.94535274783E+01  0.20587818216E+02  0.17770000000E+01 0.  1.
         16    1    4    4    0    0 -0.71485360873E+02  0.43955152397E+02  0.48746512749E+02  0.97048620529E+02  0.00000000000E+00 0. -1.
         -5    1    5    5    0  502  0.37117764217E+02 -0.37076428940E+02  0.10459675923E+03  0.11711089636E+03  0.47000000000E+01 0.  1.
         15    1    6    6    0    0 -0.14340019508E+02  0.23252392596E+00 -0.11009820155E+02  0.18167666215E+02  0.17770000000E+01 0. -1.
        -16    1    6    6    0    0  0.29185223207E+02  0.83234150467E+02  0.71271075202E+02  0.11339870907E+03  0.00000000000E+00 0.  1.
<mgrwt>
<rscale>  2 0.18682001E+03</rscale>
<asrwt>0</asrwt>
<pdfrwt beam="1">  1       21 0.53413044E-01 0.18703453E+03</pdfrwt>
<pdfrwt beam="2">  1       21 0.16029501E-01 0.18703453E+03</pdfrwt>
<totfact> 0.11553790E+05</totfact>
</mgrwt>
</event>
<event>
12    2  0.4097182E-002  0.2101144E+03  0.7546771E-02  0.1141786E+00
         21   -1    0    0  503  502  0.00000000000E+00  0.00000000000E+00  0.78229728925E+03  0.78229728925E+03  0.00000000000E+00 0. -1.
         21   -1    0    0  501  503 -0.00000000000E+00 -0.00000000000E+00 -0.73370872018E+02  0.73370872018E+02  0.00000000000E+00 0. -1.
          6    2    1    2  501    0  0.91065481105E+02 -0.72477906283E+02  0.14738958074E+03  0.25665490294E+03  0.17493450758E+03 0.  0.
         24    2    3    3    0    0  0.49811317537E+02 -0.39364128359E+02  0.10241316151E+02  0.10958293151E+03  0.88728982667E+02 0.  0.
         -6    2    1    2    0  502 -0.91065481105E+02  0.72477906283E+02  0.56153683649E+03  0.59901325833E+03  0.17305287103E+03 0.  0.
        -24    2    5    5    0    0 -0.52567529100E+02 -0.11487702423E+02  0.16449990569E+03  0.19134583239E+03  0.81594706802E+02 0.  0.
          5    1    3    3  501    0  0.41254163568E+02 -0.33113777924E+02  0.13714826459E+03  0.14707197143E+03  0.47000000000E+01 0. -1.
        -15    1    4    4    0    0 -0.24870900538E+02 -0.33198459353E+01  0.87864875528E+01  0.26644758642E+02  0.17770000000E+01 0.  1.
         16    1    4    4    0    0  0.74682218075E+02 -0.36044282424E+02  0.14548285981E+01  0.82938172865E+02  0.00000000000E+00 0. -1.
         -5    1    5    5    0  502 -0.38497952005E+02  0.83965608705E+02  0.39703693080E+03  0.40766742594E+03  0.47000000000E+01 0.  1.
         15    1    6    6    0    0  0.30687027737E+01  0.25275851427E+02  0.78347201018E+02  0.82399801204E+02  0.17770000000E+01 0. -1.
        -16    1    6    6    0    0 -0.55636231874E+02 -0.36763553850E+02  0.86152704676E+02  0.10894603119E+03  0.00000000000E+00 0.  1.
<mgrwt>
<rscale>  2 0.20972228E+03</rscale>
<asrwt>0</asrwt>
<pdfrwt beam="1">  1       21 0.12035342E+00 0.21011438E+03</pdfrwt>
<pdfrwt beam="2">  1       21 0.11287827E-01 0.21011438E+03</pdfrwt>
<totfact> 0.33975088E+04</totfact>
</mgrwt>
</event>
<event>
12    2  0.4097182E-002  0.2695592E+03  0.7546771E-02  0.1101555E+00
         21   -1    0    0  501  502  0.00000000000E+00  0.00000000000E+00  0.30818727237E+03  0.30818727237E+03  0.00000000000E+00 0. -1.
         21   -1    0    0  502  503 -0.00000000000E+00 -0.00000000000E+00 -0.24206021538E+03  0.24206021538E+03  0.00000000000E+00 0.  1.
         -6    2    1    2    0  503  0.20382902299E+03 -0.33283900211E+02  0.77908912313E+02  0.28059218028E+03  0.17322841681E+03 0.  0.
        -24    2    3    3    0    0  0.30162371333E+02  0.29969540146E+02  0.46968414605E+02  0.93134163611E+02  0.68264181531E+02 0.  0.
          6    2    1    2  501    0 -0.20382902299E+03  0.33283900211E+02 -0.11781855323E+02  0.26965530748E+03  0.17297712019E+03 0.  0.
         24    2    5    5    0    0 -0.13273445600E+03  0.78677338616E+02  0.27201627298E+02  0.17661336197E+03  0.81509457597E+02 0.  0.
          5    1    5    5  501    0 -0.71094566987E+02 -0.45393438406E+02 -0.38983482621E+02  0.93041945501E+02  0.47000000000E+01 0. -1.
        -15    1    6    6    0    0 -0.11593652565E+03  0.28421306158E+02  0.59785622528E+01  0.11953221138E+03  0.17770000000E+01 0.  1.
         16    1    6    6    0    0 -0.16797930356E+02  0.50256032458E+02  0.21223065046E+02  0.57081150589E+02  0.00000000000E+00 0. -1.
         -5    1    3    3    0  503  0.17366665166E+03 -0.63253440356E+02  0.30940497707E+02  0.18745801667E+03  0.47000000000E+01 0.  1.
         15    1    4    4    0    0  0.50502044499E+02  0.15750811870E+02  0.20260616109E+02  0.56676228415E+02  0.17770000000E+01 0. -1.
        -16    1    4    4    0    0 -0.20339673166E+02  0.14218728276E+02  0.26707798496E+02  0.36457935197E+02  0.00000000000E+00 0.  1.
<mgrwt>
<rscale>  2 0.26951885E+03</rscale>
<asrwt>0</asrwt>
<pdfrwt beam="1">  1       21 0.47413426E-01 0.26955922E+03</pdfrwt>
<pdfrwt beam="2">  1       21 0.37240033E-01 0.26955922E+03</pdfrwt>
<totfact> 0.28505341E+04</totfact>
</mgrwt>
</event>
<event>
12    2  0.4097182E-002  0.2198224E+03  0.7546771E-02  0.1134554E+00
         21   -1    0    0  503  502  0.00000000000E+00  0.00000000000E+00  0.50919232227E+03  0.50919232227E+03  0.00000000000E+00 0.  1.
         21   -1    0    0  501  503 -0.00000000000E+00 -0.00000000000E+00 -0.93677796676E+02  0.93677796676E+02  0.00000000000E+00 0. -1.
          6    2    1    2  501    0 -0.93587181337E+02 -0.92860369412E+02  0.20579511219E+03  0.30112040568E+03  0.17589844171E+03 0.  0.
         24    2    3    3    0    0 -0.73525154718E+02 -0.47423461803E+02  0.22012347659E+03  0.24921289648E+03  0.77445398328E+02 0.  0.
         -6    2    1    2    0  502  0.93587181337E+02  0.92860369412E+02  0.20971941340E+03  0.30174971326E+03  0.17230510260E+03 0.  0.
        -24    2    5    5    0    0  0.29360034940E+02 -0.14142406532E+02  0.54587228414E+02  0.10259448433E+03  0.80522316128E+02 0.  0.
          5    1    3    3  501    0 -0.20062026619E+02 -0.45436907609E+02 -0.14328364393E+02  0.51907509200E+02  0.47000000000E+01 0. -1.
        -15    1    4    4    0    0  0.11359851027E+02  0.80225415779E+01  0.15845607508E+02  0.21157702971E+02  0.17770000000E+01 0.  1.
         16    1    4    4    0    0 -0.84885005745E+02 -0.55446003381E+02  0.20427786908E+03  0.22805519351E+03  0.00000000000E+00 0. -1.
         -5    1    5    5    0  502  0.64227146396E+02  0.10700277594E+03  0.15513218498E+03  0.19915522894E+03  0.47000000000E+01 0.  1.
         15    1    6    6    0    0  0.36900833490E+02  0.26446124089E+02  0.31606212162E+02  0.55345996854E+02  0.17770000000E+01 0. -1.
        -16    1    6    6    0    0 -0.75407985494E+01 -0.40588530621E+02  0.22981016252E+02  0.47248487476E+02  0.00000000000E+00 0.  1.
<mgrwt>
<rscale>  2 0.21910268E+03</rscale>
<asrwt>0</asrwt>
<pdfrwt beam="1">  1       21 0.78337279E-01 0.21982236E+03</pdfrwt>
<pdfrwt beam="2">  1       21 0.14411969E-01 0.21982236E+03</pdfrwt>
<totfact> 0.60074541E+04</totfact>
</mgrwt>
</event>
<event>
12    2  0.4097182E-002  0.2027207E+03  0.7546771E-02  0.1147672E+00
         21   -1    0    0  503  502  0.00000000000E+00  0.00000000000E+00  0.18620754403E+03  0.18620754403E+03  0.00000000000E+00 0.  1.
         21   -1    0    0  501  503 -0.00000000000E+00 -0.00000000000E+00 -0.22496106400E+03  0.22496106400E+03  0.00000000000E+00 0.  1.
          6    2    1    2  501    0 -0.91608127036E+02  0.33969855915E+02 -0.51141996597E+02  0.20907222815E+03  0.17762233170E+03 0.  0.
         24    2    3    3    0    0 -0.12781077551E+03  0.44857212936E+02 -0.61283083976E+02  0.16965017908E+03  0.81717825414E+02 0.  0.
         -6    2    1    2    0  502  0.91608127036E+02 -0.33969855915E+02  0.12388476623E+02  0.20209637988E+03  0.17647513241E+03 0.  0.
        -24    2    5    5    0    0 -0.17282399385E+01 -0.20269013971E+02 -0.41829143753E+02  0.93188020105E+02  0.80749675438E+02 0.  0.
          5    1    3    3  501    0  0.36202648478E+02 -0.10887357021E+02  0.10141087379E+02  0.39422049071E+02  0.47000000000E+01 0. -1.
        -15    1    4    4    0    0 -0.48579101449E+02  0.96078258225E+01 -0.66317381070E+02  0.82785217132E+02  0.17770000000E+01 0.  1.
         16    1    4    4    0    0 -0.79231674065E+02  0.35249387114E+02  0.50342970935E+01  0.86864961949E+02  0.00000000000E+00 0. -1.
         -5    1    5    5    0  502  0.93336366975E+02 -0.13700841944E+02  0.54217620376E+02  0.10890835978E+03  0.47000000000E+01 0.  1.
         15    1    6    6    0    0 -0.23808419262E+02  0.50607528352E+01  0.13919395387E+02  0.28095539574E+02  0.17770000000E+01 0. -1.
        -16    1    6    6    0    0  0.22080179324E+02 -0.25329766806E+02 -0.55748539140E+02  0.65092480531E+02  0.00000000000E+00 0.  1.
<mgrwt>
<rscale>  2 0.20246916E+03</rscale>
<asrwt>0</asrwt>
<pdfrwt beam="1">  1       21 0.28647314E-01 0.20272073E+03</pdfrwt>
<pdfrwt beam="2">  1       21 0.34609394E-01 0.20272073E+03</pdfrwt>
<totfact> 0.93403800E+04</totfact>
</mgrwt>
</event>
<event>
12    2  0.4097182E-002  0.2485781E+03  0.7546771E-02  0.1114527E+00
         21   -1    0    0  501  502  0.00000000000E+00  0.00000000000E+00  0.21524299022E+03  0.21524299022E+03  0.00000000000E+00 0.  1.
         21   -1    0    0  502  503 -0.00000000000E+00 -0.00000000000E+00 -0.49679123356E+03  0.49679123356E+03  0.00000000000E+00 0. -1.
         -6    2    1    2    0  503 -0.67331957506E+02 -0.16348856572E+03 -0.37368065518E+03  0.44880764284E+03  0.17472539767E+03 0.  0.
        -24    2    3    3    0    0 -0.14794700154E+02 -0.17996063978E+03 -0.28460091435E+03  0.34398024728E+03  0.68702365633E+02 0.  0.
          6    2    1    2  501    0  0.67331957506E+02  0.16348856572E+03  0.92132411842E+02  0.26322658094E+03  0.17186549385E+03 0.  0.
         24    2    5    5    0    0 -0.59828622306E+01  0.64999930726E+02  0.95700495817E+02  0.14030426710E+03  0.79157544380E+02 0.  0.
          5    1    5    5  501    0  0.73314819737E+02  0.98488634991E+02 -0.35680839752E+01  0.12292231384E+03  0.47000000000E+01 0. -1.
        -15    1    6    6    0    0 -0.13239333109E+02  0.81170961098E+02  0.64955010096E+02  0.10481562828E+03  0.17770000000E+01 0.  1.
         16    1    6    6    0    0  0.72564708782E+01 -0.16171030372E+02  0.30745485721E+02  0.35488638818E+02  0.00000000000E+00 0. -1.
         -5    1    3    3    0  503 -0.52537257352E+02  0.16472074060E+02 -0.89079740828E+02  0.10482739556E+03  0.47000000000E+01 0.  1.
         15    1    4    4    0    0 -0.31035466592E+02 -0.12814730901E+03 -0.23946691492E+03  0.27337244569E+03  0.17770000000E+01 0. -1.
        -16    1    4    4    0    0  0.16240766439E+02 -0.51813330771E+02 -0.45133999439E+02  0.70607801591E+02  0.00000000000E+00 0.  1.
<mgrwt>
<rscale>  2 0.24807612E+03</rscale>
<asrwt>0</asrwt>
<pdfrwt beam="1">  1       21 0.33114306E-01 0.24857809E+03</pdfrwt>
<pdfrwt beam="2">  1       21 0.76429420E-01 0.24857809E+03</pdfrwt>
<totfact> 0.12941416E+04</totfact>
</mgrwt>
</event>
<event>
12    2  0.4097182E-002  0.3021716E+03  0.7546771E-02  0.1084804E+00
         21   -1    0    0  501  502  0.00000000000E+00  0.00000000000E+00  0.19672647690E+03  0.19672647690E+03  0.00000000000E+00 0. -1.
         21   -1    0    0  502  503 -0.00000000000E+00 -0.00000000000E+00 -0.66366297536E+03  0.66366297536E+03  0.00000000000E+00 0.  1.
         -6    2    1    2    0  503  0.12731052057E+03 -0.21262022621E+03 -0.47533535781E+03  0.56325069731E+03  0.17289394554E+03 0.  0.
        -24    2    3    3    0    0  0.11916933021E+03 -0.11173063676E+03 -0.19836348630E+03  0.26832613773E+03  0.77238455707E+02 0.  0.
          6    2    1    2  501    0 -0.12731052057E+03  0.21262022621E+03  0.83988593404E+01  0.29713875495E+03  0.16372406547E+03 0.  0.
         24    2    5    5    0    0 -0.10650686601E+03  0.65109036119E+02  0.23263928682E+00  0.14787013670E+03  0.79263005958E+02 0.  0.
          5    1    5    5  501    0 -0.20803654554E+02  0.14751119009E+03  0.81662200536E+01  0.14926861825E+03  0.47000000000E+01 0. -1.
        -15    1    6    6    0    0 -0.30345546370E+02  0.27622662524E+02 -0.36902399769E+02  0.55216016763E+02  0.17770000000E+01 0.  1.
         16    1    6    6    0    0 -0.76161319644E+02  0.37486373595E+02  0.37135039056E+02  0.92654119935E+02  0.00000000000E+00 0. -1.
         -5    1    3    3    0  503  0.81411903607E+01 -0.10088958944E+03 -0.27697187150E+03  0.29492455958E+03  0.47000000000E+01 0.  1.
         15    1    4    4    0    0  0.10359911656E+03 -0.57775690509E+02 -0.16427397347E+03  0.20263243435E+03  0.17770000000E+01 0. -1.
        -16    1    4    4    0    0  0.15570213652E+02 -0.53954946254E+02 -0.34089512835E+02  0.65693703380E+02  0.00000000000E+00 0.  1.
<mgrwt>
<rscale>  2 0.30087535E+03</rscale>
<asrwt>0</asrwt>
<pdfrwt beam="1">  1       21 0.30265612E-01 0.30217155E+03</pdfrwt>
<pdfrwt beam="2">  1       21 0.10210199E+00 0.30217155E+03</pdfrwt>
<totfact> 0.76626070E+03</totfact>
</mgrwt>
</event>
<event>
12    2  0.4097182E-002  0.1824365E+03  0.7546771E-02  0.1165586E+00
         21   -1    0    0  501  502  0.00000000000E+00  0.00000000000E+00  0.43310620319E+03  0.43310620319E+03  0.00000000000E+00 0. -1.
         21   -1    0    0  502  503 -0.00000000000E+00 -0.00000000000E+00 -0.25704222085E+03  0.25704222085E+03  0.00000000000E+00 0. -1.
         -6    2    1    2    0  503 -0.59616628310E+01  0.53253299948E+02 -0.20102474589E+03  0.27146642390E+03  0.17438926420E+03 0.  0.
        -24    2    3    3    0    0  0.29954702552E+02 -0.22663796266E+02 -0.14736155300E+03  0.17169057978E+03  0.79695018757E+02 0.  0.
          6    2    1    2  501    0  0.59616628310E+01 -0.53253299948E+02  0.37708872823E+03  0.41868200014E+03  0.17385986571E+03 0.  0.
         24    2    5    5    0    0  0.10082337513E+02  0.34153217010E+02  0.13167406343E+03  0.15809165714E+03  0.79917565748E+02 0.  0.
          5    1    5    5  501    0 -0.41206746820E+01 -0.87406516958E+02  0.24541466480E+03  0.26059034300E+03  0.47000000000E+01 0. -1.
        -15    1    6    6    0    0  0.35286069266E+02 -0.66348490249E+01  0.34958857266E+02  0.50143866387E+02  0.17770000000E+01 0.  1.
         16    1    6    6    0    0 -0.25203731753E+02  0.40788066035E+02  0.96715206161E+02  0.10794779075E+03  0.00000000000E+00 0. -1.
         -5    1    3    3    0  503 -0.35916365383E+02  0.75917096214E+02 -0.53663192882E+02  0.99775844121E+02  0.47000000000E+01 0.  1.
         15    1    4    4    0    0  0.29147216140E+02  0.86771577466E+01 -0.13432628618E+03  0.13773729402E+03  0.17770000000E+01 0. -1.
        -16    1    4    4    0    0  0.80748641148E+00 -0.31340954013E+02 -0.13035266822E+02  0.33953285759E+02  0.00000000000E+00 0.  1.
<mgrwt>
<rscale>  2 0.18230986E+03</rscale>
<asrwt>0</asrwt>
<pdfrwt beam="1">  1       21 0.66631723E-01 0.18243648E+03</pdfrwt>
<pdfrwt beam="2">  1       21 0.39544957E-01 0.18243648E+03</pdfrwt>
<totfact> 0.12813585E+04</totfact>
</mgrwt>
</event>
<event>
12    2  0.4097182E-002  0.1842687E+03  0.7546771E-02  0.1166319E+00
         21   -1    0    0  501  502  0.00000000000E+00  0.00000000000E+00  0.80295739605E+03  0.80295739605E+03  0.00000000000E+00 0.  1.
         21   -1    0    0  502  503 -0.00000000000E+00 -0.00000000000E+00 -0.10996897519E+03  0.10996897519E+03  0.00000000000E+00 0.  1.
         -6    2    1    2    0  503  0.18561352147E+02 -0.45515085387E+01 -0.14129555511E+02  0.18480966638E+03  0.18327500764E+03 0.  0.
        -24    2    3    3    0    0 -0.69821065440E+01  0.60734230231E+02 -0.44192117218E+02  0.10838621720E+03  0.77828223168E+02 0.  0.
          6    2    1    2  501    0 -0.18561352147E+02  0.45515085387E+01  0.70711797637E+03  0.72811670486E+03  0.17254814796E+03 0.  0.
         24    2    5    5    0    0  0.51683184788E+02  0.30746210649E+02  0.46564522087E+03  0.47523009186E+03  0.73496172867E+02 0.  0.
          5    1    5    5  501    0 -0.70244536935E+02 -0.26194702110E+02  0.24147275550E+03  0.25288661300E+03  0.47000000000E+01 0. -1.
        -15    1    6    6    0    0  0.57977198844E+00  0.42479516879E+02  0.21200734136E+03  0.21622931348E+03  0.17770000000E+01 0.  1.
         16    1    6    6    0    0  0.51103412799E+02 -0.11733306230E+02  0.25363787951E+03  0.25900077837E+03  0.00000000000E+00 0. -1.
         -5    1    3    3    0  503  0.25543458691E+02 -0.65285738769E+02  0.30062561707E+02  0.76423449182E+02  0.47000000000E+01 0.  1.
         15    1    4    4    0    0 -0.18277921082E+02  0.69071695480E+02 -0.10955530491E+02  0.72306036352E+02  0.17770000000E+01 0. -1.
        -16    1    4    4    0    0  0.11295814538E+02 -0.83374652491E+01 -0.33236586727E+02  0.36080180849E+02  0.00000000000E+00 0.  1.
<mgrwt>
<rscale>  2 0.18154247E+03</rscale>
<asrwt>0</asrwt>
<pdfrwt beam="1">  1       21 0.12353190E+00 0.18426874E+03</pdfrwt>
<pdfrwt beam="2">  1       21 0.16918304E-01 0.18426874E+03</pdfrwt>
<totfact> 0.15551295E+04</totfact>
</mgrwt>
</event>
<event>
12    2  0.4097182E-002  0.1737581E+03  0.7546771E-02  0.1175816E+00
         21   -1    0    0  503  502  0.00000000000E+00  0.00000000000E+00  0.31188989625E+03  0.31188989625E+03  0.00000000000E+00 0.  1.
         21   -1    0    0  501  503 -0.00000000000E+00 -0.00000000000E+00 -0.97095692178E+02  0.97095692178E+02  0.00000000000E+00 0.  1.
          6    2    1    2  501    0  0.22753490185E+02  0.28173828771E+01  0.67056796052E+02  0.18624850531E+03  0.17223888316E+03 0.  0.
         24    2    3    3    0    0  0.50999494854E+02 -0.42375431832E+02  0.75077516484E+02  0.13214999112E+03  0.86199541607E+02 0.  0.
         -6    2    1    2    0  502 -0.22753490185E+02 -0.28173828771E+01  0.14773740802E+03  0.22273708312E+03  0.16510544360E+03 0.  0.
        -24    2    5    5    0    0  0.44448497761E+02 -0.17579004645E+02  0.87767982414E+02  0.13134542776E+03  0.85227415187E+02 0.  0.
          5    1    3    3  501    0 -0.28246004669E+02  0.45192814709E+02 -0.80207204325E+01  0.54098514188E+02  0.47000000000E+01 0. -1.
        -15    1    4    4    0    0  0.41398182840E+02 -0.51434756429E+02  0.11285467739E+02  0.67006441649E+02  0.17770000000E+01 0.  1.
         16    1    4    4    0    0  0.96013120137E+01  0.90593245966E+01  0.63792048745E+02  0.65143549471E+02  0.00000000000E+00 0. -1.
         -5    1    5    5    0  502 -0.67201987946E+02  0.14761621768E+02  0.59969425603E+02  0.91391655354E+02  0.47000000000E+01 0.  1.
         15    1    6    6    0    0  0.47187471130E+01  0.36068468693E+01 -0.16578176662E+02  0.17699423411E+02  0.17770000000E+01 0. -1.
        -16    1    6    6    0    0  0.39729750648E+02 -0.21185851515E+02  0.10434615908E+03  0.11364600435E+03  0.00000000000E+00 0.  1.
<mgrwt>
<rscale>  2 0.17196342E+03</rscale>
<asrwt>0</asrwt>
<pdfrwt beam="1">  1       21 0.47983061E-01 0.17375814E+03</pdfrwt>
<pdfrwt beam="2">  1       21 0.14937799E-01 0.17375814E+03</pdfrwt>
<totfact> 0.16505383E+05</totfact>
</mgrwt>
</event>
<event>
12    2  0.4097182E-002  0.2443893E+03  0.7546771E-02  0.1117234E+00
         21   -1    0    0  503  502  0.00000000000E+00  0.00000000000E+00  0.75449048243E+02  0.75449048243E+02  0.00000000000E+00 0. -1.
         21   -1    0    0  501  503 -0.00000000000E+00 -0.00000000000E+00 -0.78892700488E+03  0.78892700488E+03  0.00000000000E+00 0. -1.
          6    2    1    2  501    0 -0.11820122862E+03  0.12134153757E+03 -0.38850502348E+03  0.45897963447E+03  0.17615576176E+03 0.  0.
         24    2    3    3    0    0 -0.44851132314E+02  0.23190772031E+02 -0.68234080634E+02  0.11603739992E+03  0.79116069442E+02 0.  0.
         -6    2    1    2    0  502  0.11820122862E+03 -0.12134153757E+03 -0.32497293316E+03  0.40539641866E+03  0.17333075257E+03 0.  0.
        -24    2    5    5    0    0  0.11636047775E+03 -0.15220338848E+03 -0.30258814882E+03  0.36693850952E+03  0.79866449249E+02 0.  0.
          5    1    3    3  501    0 -0.73350096305E+02  0.98150765535E+02 -0.32027094284E+03  0.34294223454E+03  0.47000000000E+01 0. -1.
        -15    1    4    4    0    0 -0.22303469278E+02  0.41442626500E+02 -0.61321869437E+01  0.47494183631E+02  0.17770000000E+01 0.  1.
         16    1    4    4    0    0 -0.22547663036E+02 -0.18251854469E+02 -0.62101893690E+02  0.68543216293E+02  0.00000000000E+00 0. -1.
         -5    1    5    5    0  502  0.18407508706E+01  0.30861850912E+02 -0.22384784348E+02  0.38457909145E+02  0.47000000000E+01 0.  1.
         15    1    6    6    0    0  0.48046286989E+02 -0.86359919204E+02 -0.21986366694E+03  0.24105947628E+03  0.17770000000E+01 0. -1.
        -16    1    6    6    0    0  0.68314190759E+02 -0.65843469274E+02 -0.82724481879E+02  0.12587903323E+03  0.00000000000E+00 0.  1.
<mgrwt>
<rscale>  2 0.24388067E+03</rscale>
<asrwt>0</asrwt>
<pdfrwt beam="1">  1       21 0.11607546E-01 0.24438934E+03</pdfrwt>
<pdfrwt beam="2">  1       21 0.12137338E+00 0.24438934E+03</pdfrwt>
<totfact> 0.31088043E+04</totfact>
</mgrwt>
</event>
<event>
12    2  0.4097182E-002  0.1845386E+03  0.7546771E-02  0.1163497E+00
         21   -1    0    0  501  502  0.00000000000E+00  0.00000000000E+00  0.31359490137E+03  0.31359490137E+03  0.00000000000E+00 0.  1.
         21   -1    0    0  502  503 -0.00000000000E+00 -0.00000000000E+00 -0.45500259022E+03  0.45500259022E+03  0.00000000000E+00 0.  1.
         -6    2    1    2    0  503  0.63362480571E+02  0.10386862631E+02 -0.40603722298E+03  0.44597807743E+03  0.17293793176E+03 0.  0.
        -24    2    3    3    0    0  0.83814910721E+00 -0.36521147544E+02 -0.11707580856E+03  0.14659464023E+03  0.80304090078E+02 0.  0.
          6    2    1    2  501    0 -0.63362480571E+02 -0.10386862631E+02  0.26462953412E+03  0.32261941416E+03  0.17300810735E+03 0.  0.
         24    2    5    5    0    0 -0.37309180005E+02  0.10934050513E+01  0.27725715135E+03  0.29112151370E+03  0.80542146221E+02 0.  0.
          5    1    5    5  501    0 -0.26053300565E+02 -0.11480267683E+02 -0.12627617233E+02  0.31497900460E+02  0.47000000000E+01 0. -1.
        -15    1    6    6    0    0 -0.19041570098E+02  0.22772956522E+02  0.29989790269E+02  0.42234277429E+02  0.17770000000E+01 0.  1.
         16    1    6    6    0    0 -0.18267609908E+02 -0.21679551470E+02  0.24726736108E+03  0.24888723627E+03  0.00000000000E+00 0. -1.
         -5    1    3    3    0  503  0.62524331463E+02  0.46908010176E+02 -0.28896141442E+03  0.29938343719E+03  0.47000000000E+01 0.  1.
         15    1    4    4    0    0 -0.89054827673E+00  0.23155516335E+02 -0.13048721323E+02  0.26653290044E+02  0.17770000000E+01 0. -1.
        -16    1    4    4    0    0  0.17286973839E+01 -0.59676663879E+02 -0.10402708723E+03  0.11994135019E+03  0.00000000000E+00 0.  1.
<mgrwt>
<rscale>  2 0.18452215E+03</rscale>
<asrwt>0</asrwt>
<pdfrwt beam="1">  1       21 0.48245369E-01 0.18453860E+03</pdfrwt>
<pdfrwt beam="2">  1       21 0.70000399E-01 0.18453860E+03</pdfrwt>
<totfact> 0.76497772E+03</totfact>
</mgrwt>
</event>
<event>
12    2  0.4097182E-002  0.1993442E+03  0.7546771E-02  0.1153709E+00
         21   -1    0    0  501  502  0.00000000000E+00  0.00000000000E+00  0.43826327797E+03  0.43826327797E+03  0.00000000000E+00 0. -1.
         21   -1    0    0  502  503 -0.00000000000E+00 -0.00000000000E+00 -0.11776793631E+03  0.11776793631E+03  0.00000000000E+00 0.  1.
         -6    2    1    2    0  503  0.60779981204E+02 -0.96673604813E+01  0.15581829931E+02  0.19995223778E+03  0.18960601255E+03 0.  0.
        -24    2    3    3    0    0  0.37145075347E+01 -0.32568904666E+02  0.74033348754E+02  0.11498389624E+03  0.81644525529E+02 0.  0.
          6    2    1    2  501    0 -0.60779981204E+02  0.96673604813E+01  0.30491351173E+03  0.35607897650E+03  0.17329836669E+03 0.  0.
         24    2    5    5    0    0 -0.42153900269E+02 -0.62422184705E+02  0.21006660690E+03  0.23540644950E+03  0.74931546646E+02 0.  0.
          5    1    5    5  501    0 -0.18626080935E+02  0.72089545187E+02  0.94846904832E+02  0.12067252700E+03  0.47000000000E+01 0. -1.
        -15    1    6    6    0    0 -0.14979220187E+02 -0.20658740084E+02  0.16875218515E+03  0.17067987082E+03  0.17770000000E+01 0.  1.
         16    1    6    6    0    0 -0.27174680082E+02 -0.41763444621E+02  0.41314421743E+02  0.64726578684E+02  0.00000000000E+00 0. -1.
         -5    1    3    3    0  503  0.57065473669E+02  0.22901544185E+02 -0.58451518823E+02  0.84968341539E+02  0.47000000000E+01 0.  1.
         15    1    4    4    0    0 -0.31533410300E+02 -0.40667608104E+02  0.48276676161E+02  0.70583323131E+02  0.17770000000E+01 0. -1.
        -16    1    4    4    0    0  0.35247917835E+02  0.80987034382E+01  0.25756672593E+02  0.44400573106E+02  0.00000000000E+00 0.  1.
<mgrwt>
<rscale>  2 0.19536617E+03</rscale>
<asrwt>0</asrwt>
<pdfrwt beam="1">  1       21 0.67425119E-01 0.19934418E+03</pdfrwt>
<pdfrwt beam="2">  1       21 0.18118144E-01 0.19934418E+03</pdfrwt>
<totfact> 0.55628864E+04</totfact>
</mgrwt>
</event>
<event>
12    2  0.4097182E-002  0.2355962E+03  0.7546771E-02  0.1122886E+00
         21   -1    0    0  503  502  0.00000000000E+00  0.00000000000E+00  0.10491795644E+04  0.10491795644E+04  0.00000000000E+00 0.  1.
         21   -1    0    0  501  503 -0.00000000000E+00 -0.00000000000E+00 -0.10081755769E+03  0.10081755769E+03  0.00000000000E+00 0. -1.
          6    2    1    2  501    0 -0.14547811145E+03 -0.66597490479E+02  0.76728823822E+02  0.24708518466E+03  0.17194379729E+03 0.  0.
         24    2    3    3    0    0 -0.91210474678E+01 -0.45972452515E+02  0.18489201058E+02  0.97310070748E+02  0.83251062552E+02 0.  0.
         -6    2    1    2    0  502  0.14547811145E+03  0.66597490479E+02  0.87163318287E+03  0.90291193740E+03  0.17293482752E+03 0.  0.
        -24    2    5    5    0    0  0.31982889937E+02  0.39183395389E+02  0.19276955247E+03  0.21406462733E+03  0.78136550923E+02 0.  0.
          5    1    3    3  501    0 -0.13635706398E+03 -0.20625037964E+02  0.58239622764E+02  0.14977511392E+03  0.47000000000E+01 0. -1.
        -15    1    4    4    0    0  0.10994570061E+02 -0.10776131873E+02 -0.30205645390E+02  0.33949143309E+02  0.17770000000E+01 0.  1.
         16    1    4    4    0    0 -0.20115617529E+02 -0.35196320642E+02  0.48694846448E+02  0.63360927439E+02  0.00000000000E+00 0. -1.
         -5    1    5    5    0  502  0.11349522151E+03  0.27414095090E+02  0.67886363039E+03  0.68884731006E+03  0.47000000000E+01 0.  1.
         15    1    6    6    0    0 -0.23333978715E+02 -0.18284902227E+01  0.61548149978E+02  0.65872228093E+02  0.17770000000E+01 0. -1.
        -16    1    6    6    0    0  0.55316868652E+02  0.41011885611E+02  0.13122140250E+03  0.14819239924E+03  0.00000000000E+00 0.  1.
<mgrwt>
<rscale>  2 0.23541435E+03</rscale>
<asrwt>0</asrwt>
<pdfrwt beam="1">  1       21 0.16141223E+00 0.23559618E+03</pdfrwt>
<pdfrwt beam="2">  1       21 0.15510394E-01 0.23559618E+03</pdfrwt>
<totfact> 0.87888159E+03</totfact>
</mgrwt>
</event>
<event>
12    2  0.4097182E-002  0.2174159E+03  0.7546771E-02  0.1136463E+00
         21   -1    0    0  503  502  0.00000000000E+00  0.00000000000E+00  0.38250857406E+02  0.38250857406E+02  0.00000000000E+00 0. -1.
         21   -1    0    0  501  503 -0.00000000000E+00 -0.00000000000E+00 -0.27186623514E+04  0.27186623514E+04  0.00000000000E+00 0. -1.
          6    2    1    2  501    0 -0.37992268053E+02 -0.12054587975E+03 -0.23600723657E+04  0.23697609902E+04  0.17277400666E+03 0.  0.
         24    2    3    3    0    0 -0.27310402602E+02  0.30285744168E+01 -0.61722032630E+03  0.62249453385E+03  0.76049215080E+02 0.  0.
         -6    2    1    2    0  502  0.37992268053E+02  0.12054587975E+03 -0.32033912830E+03  0.38715221870E+03  0.17690382066E+03 0.  0.
        -24    2    5    5    0    0  0.90205410100E+02  0.10636060521E+03 -0.20931865901E+03  0.26355986934E+03  0.78739503224E+02 0.  0.
          5    1    3    3  501    0 -0.10681865451E+02 -0.12357445417E+03 -0.17428520394E+04  0.17472664563E+04  0.47000000000E+01 0. -1.
        -15    1    4    4    0    0  0.26137314042E+02  0.56320589723E+01 -0.24167197570E+03  0.24315299884E+03  0.17770000000E+01 0.  1.
         16    1    4    4    0    0 -0.53447716643E+02 -0.26034845555E+01 -0.37554835060E+03  0.37934153501E+03  0.00000000000E+00 0. -1.
         -5    1    5    5    0  502 -0.52213142047E+02  0.14185274541E+02 -0.11102046929E+03  0.12359234935E+03  0.47000000000E+01 0.  1.
         15    1    6    6    0    0  0.84482912034E+02  0.90734906234E+02 -0.21305298222E+03  0.24650540886E+03  0.17770000000E+01 0. -1.
        -16    1    6    6    0    0  0.57224980654E+01  0.15625698977E+02  0.37343232110E+01  0.17054460486E+02  0.00000000000E+00 0.  1.
<mgrwt>
<rscale>  2 0.21657434E+03</rscale>
<asrwt>0</asrwt>
<pdfrwt beam="1">  1       21 0.58847472E-02 0.21741592E+03</pdfrwt>
<pdfrwt beam="2">  1       21 0.41825576E+00 0.21741592E+03</pdfrwt>
<totfact> 0.13152149E+03</totfact>
</mgrwt>
</event>
<event>
12    2  0.4097182E-002  0.2147337E+03  0.7546771E-02  0.1137881E+00
         21   -1    0    0  503  502  0.00000000000E+00  0.00000000000E+00  0.42119013113E+03  0.42119013113E+03  0.00000000000E+00 0.  1.
         21   -1    0    0  501  503 -0.00000000000E+00 -0.00000000000E+00 -0.15607671274E+03  0.15607671274E+03  0.00000000000E+00 0.  1.
          6    2    1    2  501    0 -0.12462241879E+03  0.26777237354E+02 -0.25189686832E+02  0.21620614044E+03  0.17280858524E+03 0.  0.
         24    2    3    3    0    0 -0.15285475210E+03  0.45678636731E+02 -0.27833560318E+02  0.18180544845E+03  0.82628087902E+02 0.  0.
         -6    2    1    2    0  502  0.12462241879E+03 -0.26777237354E+02  0.29030310522E+03  0.36106070344E+03  0.17274597234E+03 0.  0.
        -24    2    5    5    0    0  0.12715575970E+03 -0.70813216023E+02  0.20083050834E+03  0.26119569041E+03  0.81897477510E+02 0.  0.
          5    1    3    3  501    0  0.28232333309E+02 -0.18901399378E+02  0.26438734857E+01  0.34400691992E+02  0.47000000000E+01 0. -1.
        -15    1    4    4    0    0 -0.34238342410E+02 -0.22147109169E+02 -0.18602854822E+02  0.44855127601E+02  0.17770000000E+01 0.  1.
         16    1    4    4    0    0 -0.11861640969E+03  0.67825745901E+02 -0.92307054953E+01  0.13695032085E+03  0.00000000000E+00 0. -1.
         -5    1    5    5    0  502 -0.25333409019E+01  0.44035978670E+02  0.89472596883E+02  0.99865013025E+02  0.47000000000E+01 0.  1.
         15    1    6    6    0    0  0.38372429995E+02  0.12219166500E+02  0.24990698617E+02  0.47428305473E+02  0.17770000000E+01 0. -1.
        -16    1    6    6    0    0  0.88783329701E+02 -0.83032382524E+02  0.17583980972E+03  0.21376738494E+03  0.00000000000E+00 0.  1.
<mgrwt>
<rscale>  2 0.21472113E+03</rscale>
<asrwt>0</asrwt>
<pdfrwt beam="1">  1       21 0.64798481E-01 0.21473373E+03</pdfrwt>
<pdfrwt beam="2">  1       21 0.24011802E-01 0.21473373E+03</pdfrwt>
<totfact> 0.35477756E+04</totfact>
</mgrwt>
</event>
<event>
12    2  0.4097182E-002  0.2280862E+03  0.7546771E-02  0.1128070E+00
         21   -1    0    0  501  502  0.00000000000E+00  0.00000000000E+00  0.14818036457E+04  0.14818036457E+04  0.00000000000E+00 0. -1.
         21   -1    0    0  502  503 -0.00000000000E+00 -0.00000000000E+00 -0.11231797868E+03  0.11231797868E+03  0.00000000000E+00 0.  1.
         -6    2    1    2    0  503 -0.11776479418E+02 -0.14735964551E+03  0.23811675032E+02  0.22932577467E+03  0.17369445721E+03 0.  0.
        -24    2    3    3    0    0  0.63609779085E+01 -0.16839932684E+03 -0.77558723354E+01  0.18701459889E+03  0.80718717308E+02 0.  0.
          6    2    1    2  501    0  0.11776479418E+02  0.14735964551E+03  0.13456739920E+04  0.13647958498E+04  0.17313482630E+03 0.  0.
         24    2    5    5    0    0  0.73100422254E+02  0.90381817902E+02  0.94852904305E+03  0.95889771068E+03  0.79151306308E+02 0.  0.
          5    1    5    5  501    0 -0.61323942836E+02  0.56977827605E+02  0.39714494898E+03  0.40589813908E+03  0.47000000000E+01 0. -1.
        -15    1    6    6    0    0  0.79151927584E+02  0.47626994329E+02  0.51488455168E+03  0.52310860967E+03  0.17770000000E+01 0.  1.
         16    1    6    6    0    0 -0.60515053304E+01  0.42754823572E+02  0.43364449137E+03  0.43578910100E+03  0.00000000000E+00 0. -1.
         -5    1    3    3    0  503 -0.18137457326E+02  0.21039681329E+02  0.31567547367E+02  0.42311175775E+02  0.47000000000E+01 0.  1.
         15    1    4    4    0    0  0.11047367436E+02 -0.10729468231E+01  0.14285489011E+02  0.18177691477E+02  0.17770000000E+01 0. -1.
        -16    1    4    4    0    0 -0.46863895279E+01 -0.16732638001E+03 -0.22041361346E+02  0.16883690741E+03  0.00000000000E+00 0.  1.
<mgrwt>
<rscale>  2 0.22797965E+03</rscale>
<asrwt>0</asrwt>
<pdfrwt beam="1">  1       21 0.22796978E+00 0.22808620E+03</pdfrwt>
<pdfrwt beam="2">  1       21 0.17279690E-01 0.22808620E+03</pdfrwt>
<totfact> 0.26288228E+03</totfact>
</mgrwt>
</event>
<event>
12    2  0.4097182E-002  0.1914963E+03  0.7546771E-02  0.1159957E+00
         21   -1    0    0  501  502  0.00000000000E+00  0.00000000000E+00  0.15696809444E+04  0.15696809444E+04  0.00000000000E+00 0.  1.
         21   -1    0    0  502  503 -0.00000000000E+00 -0.00000000000E+00 -0.13228602645E+03  0.13228602645E+03  0.00000000000E+00 0. -1.
         -6    2    1    2    0  503 -0.83771791917E+02  0.58680469922E+01 -0.54693344272E+02  0.19915370697E+03  0.17210081347E+03 0.  0.
        -24    2    3    3    0    0 -0.72372163859E+02 -0.18384386783E+02 -0.10249779570E+03  0.14414927405E+03  0.68538305399E+02 0.  0.
          6    2    1    2  501    0  0.83771791917E+02 -0.58680469922E+01  0.14920882622E+04  0.15028132639E+04  0.15832933001E+03 0.  0.
         24    2    5    5    0    0  0.25285647213E+02  0.36774487207E+02  0.48741458509E+03  0.49552467447E+03  0.77330449254E+02 0.  0.
          5    1    5    5  501    0  0.58486144704E+02 -0.42642534200E+02  0.10046736771E+04  0.10072885894E+04  0.47000000000E+01 0. -1.
        -15    1    6    6    0    0 -0.87861124819E+01 -0.27943226586E+01  0.32040292164E+03  0.32054047160E+03  0.17770000000E+01 0.  1.
         16    1    6    6    0    0  0.34071759695E+02  0.39568809866E+02  0.16701166345E+03  0.17498420286E+03  0.00000000000E+00 0. -1.
         -5    1    3    3    0  503 -0.11399628058E+02  0.24252433775E+02  0.47804451432E+02  0.55004432918E+02  0.47000000000E+01 0.  1.
         15    1    4    4    0    0 -0.66248533981E+02 -0.14515754869E+02 -0.35141370811E+02  0.76404509458E+02  0.17770000000E+01 0. -1.
        -16    1    4    4    0    0 -0.61236298779E+01 -0.38686319138E+01 -0.67356424893E+02  0.67744764595E+02  0.00000000000E+00 0.  1.
<mgrwt>
<rscale>  2 0.18835094E+03</rscale>
<asrwt>0</asrwt>
<pdfrwt beam="1">  1       21 0.24148936E+00 0.19149631E+03</pdfrwt>
<pdfrwt beam="2">  1       21 0.20351697E-01 0.19149631E+03</pdfrwt>
<totfact> 0.16701993E+03</totfact>
</mgrwt>
</event>
<event>
12    2  0.4097182E-002  0.1984849E+03  0.7546771E-02  0.1151947E+00
         21   -1    0    0  501  502  0.00000000000E+00  0.00000000000E+00  0.26483345881E+03  0.26483345881E+03  0.00000000000E+00 0. -1.
         21   -1    0    0  502  503 -0.00000000000E+00 -0.00000000000E+00 -0.33856439862E+03  0.33856439862E+03  0.00000000000E+00 0. -1.
         -6    2    1    2    0  503 -0.87321244202E+02  0.15623823110E+02 -0.26447394924E+03  0.32811769626E+03  0.17275893387E+03 0.  0.
        -24    2    3    3    0    0 -0.61167382393E+01 -0.41004070074E+02 -0.93302542557E+02  0.13032328142E+03  0.80994104618E+02 0.  0.
          6    2    1    2  501    0  0.87321244202E+02 -0.15623823110E+02  0.19074300943E+03  0.27528016117E+03  0.17755891404E+03 0.  0.
         24    2    5    5    0    0  0.43923672570E+02  0.45275523790E+01  0.14092958975E+02  0.92204336768E+02  0.79707217262E+02 0.  0.
          5    1    5    5  501    0  0.43397571632E+02 -0.20151375489E+02  0.17665005045E+03  0.18307582441E+03  0.47000000000E+01 0. -1.
        -15    1    6    6    0    0  0.41215213324E+01 -0.25859135431E+02  0.29812595652E+02  0.39719395915E+02  0.17770000000E+01 0.  1.
         16    1    6    6    0    0  0.39802151238E+02  0.30386687810E+02 -0.15719636677E+02  0.52484940854E+02  0.00000000000E+00 0. -1.
         -5    1    3    3    0  503 -0.81204505963E+02  0.56627893184E+02 -0.17117140668E+03  0.19779441484E+03  0.47000000000E+01 0.  1.
         15    1    4    4    0    0 -0.42425641516E+02 -0.10962910651E+02 -0.44153675913E+02  0.62232027877E+02  0.17770000000E+01 0. -1.
        -16    1    4    4    0    0  0.36308903277E+02 -0.30041159423E+02 -0.49148866644E+02  0.68091253543E+02  0.00000000000E+00 0.  1.
<mgrwt>
<rscale>  2 0.19740565E+03</rscale>
<asrwt>0</asrwt>
<pdfrwt beam="1">  1       21 0.40743609E-01 0.19848494E+03</pdfrwt>
<pdfrwt beam="2">  1       21 0.52086831E-01 0.19848494E+03</pdfrwt>
<totfact> 0.20229192E+04</totfact>
</mgrwt>
</event>
<event>
12    2  0.4097182E-002  0.2395443E+03  0.7546771E-02  0.1120274E+00
         21   -1    0    0  503  502  0.00000000000E+00  0.00000000000E+00  0.76312729764E+02  0.76312729764E+02  0.00000000000E+00 0. -1.
         21   -1    0    0  501  503 -0.00000000000E+00 -0.00000000000E+00 -0.81709330527E+03  0.81709330527E+03  0.00000000000E+00 0.  1.
          6    2    1    2  501    0  0.12778913816E+02 -0.16322109179E+03 -0.50046437714E+03  0.55483876201E+03  0.17486289942E+03 0.  0.
         24    2    3    3    0    0 -0.38088203681E+01 -0.18879730659E+03 -0.38391967945E+03  0.43428150487E+03  0.74479360296E+02 0.  0.
         -6    2    1    2    0  502 -0.12778913816E+02  0.16322109179E+03 -0.24031619836E+03  0.33856727302E+03  0.17341135408E+03 0.  0.
        -24    2    5    5    0    0 -0.69926091684E+02  0.14002398926E+03 -0.17094025821E+03  0.24562096284E+03  0.81318568887E+02 0.  0.
          5    1    3    3  501    0  0.16587734184E+02  0.25576214803E+02 -0.11654469770E+03  0.12055725714E+03  0.47000000000E+01 0. -1.
        -15    1    4    4    0    0 -0.27556401604E+02 -0.10522697095E+03 -0.26939616944E+03  0.29053317284E+03  0.17770000000E+01 0.  1.
         16    1    4    4    0    0  0.23747581236E+02 -0.83570335647E+02 -0.11452351001E+03  0.14374833203E+03  0.00000000000E+00 0. -1.
         -5    1    5    5    0  502  0.57147177869E+02  0.23197102535E+02 -0.69375940151E+02  0.92946310180E+02  0.47000000000E+01 0.  1.
         15    1    6    6    0    0 -0.14359526478E+02  0.10153142819E+03 -0.70119165724E+02  0.12423639580E+03  0.17770000000E+01 0. -1.
        -16    1    6    6    0    0 -0.55566565207E+02  0.38492561070E+02 -0.10082109249E+03  0.12138456704E+03  0.00000000000E+00 0.  1.
<mgrwt>
<rscale>  2 0.23927945E+03</rscale>
<asrwt>0</asrwt>
<pdfrwt beam="1">  1       21 0.11740419E-01 0.23954427E+03</pdfrwt>
<pdfrwt beam="2">  1       21 0.12570667E+00 0.23954427E+03</pdfrwt>
<totfact> 0.27953345E+04</totfact>
</mgrwt>
</event>
<event>
12    2  0.4097182E-002  0.2118601E+03  0.7546771E-02  0.1140293E+00
         21   -1    0    0  501  502  0.00000000000E+00  0.00000000000E+00  0.39193675431E+03  0.39193675431E+03  0.00000000000E+00 0. -1.
         21   -1    0    0  502  503 -0.00000000000E+00 -0.00000000000E+00 -0.67916022708E+03  0.67916022708E+03  0.00000000000E+00 0.  1.
         -6    2    1    2    0  503  0.84019625551E+01  0.12106216538E+03 -0.63220807552E+03  0.66676215081E+03  0.17366080198E+03 0.  0.
        -24    2    3    3    0    0  0.59256449605E+02  0.77656648067E+02 -0.51251003137E+03  0.52957640244E+03  0.90789602643E+02 0.  0.
          6    2    1    2  501    0 -0.84019625551E+01 -0.12106216538E+03  0.34498460274E+03  0.40433483057E+03  0.17246923848E+03 0.  0.
         24    2    5    5    0    0  0.29247108027E+02 -0.22590316425E+01  0.15310942788E+03  0.17549032041E+03  0.80584484242E+02 0.  0.
          5    1    5    5  501    0 -0.37649070582E+02 -0.11880313374E+03  0.19187517486E+03  0.22884451016E+03  0.47000000000E+01 0. -1.
        -15    1    6    6    0    0  0.37281553816E+02 -0.25298392870E+02  0.41620031301E+02  0.61362102891E+02  0.17770000000E+01 0.  1.
         16    1    6    6    0    0 -0.80344457887E+01  0.23039361227E+02  0.11148939658E+03  0.11412821752E+03  0.00000000000E+00 0. -1.
         -5    1    3    3    0  503 -0.50854487050E+02  0.43405517313E+02 -0.11969804414E+03  0.13718574838E+03  0.47000000000E+01 0.  1.
         15    1    4    4    0    0 -0.15937071870E+01  0.31859449748E+02 -0.41114683395E+02  0.52068602445E+02  0.17770000000E+01 0. -1.
        -16    1    4    4    0    0  0.60850156792E+02  0.45797198319E+02 -0.47139534798E+03  0.47750779999E+03  0.00000000000E+00 0.  1.
<mgrwt>
<rscale>  2 0.21161580E+03</rscale>
<asrwt>0</asrwt>
<pdfrwt beam="1">  1       21 0.60297963E-01 0.21186013E+03</pdfrwt>
<pdfrwt beam="2">  1       21 0.10448619E+00 0.21186013E+03</pdfrwt>
<totfact> 0.18627751E+03</totfact>
</mgrwt>
</event>
<event>
12    2  0.4097182E-002  0.1932488E+03  0.7546771E-02  0.1155690E+00
         21   -1    0    0  501  502  0.00000000000E+00  0.00000000000E+00  0.15330308431E+03  0.15330308431E+03  0.00000000000E+00 0. -1.
         21   -1    0    0  502  503 -0.00000000000E+00 -0.00000000000E+00 -0.50607236781E+03  0.50607236781E+03  0.00000000000E+00 0. -1.
         -6    2    1    2    0  503  0.61251335341E+02  0.60376192251E+02 -0.41401599820E+03  0.45665332939E+03  0.17241231337E+03 0.  0.
        -24    2    3    3    0    0  0.45450769343E+02  0.14676062157E+02 -0.39301955783E+03  0.40372790747E+03  0.79061312922E+02 0.  0.
          6    2    1    2  501    0 -0.61251335341E+02 -0.60376192251E+02  0.61246714696E+02  0.20272212273E+03  0.17305515974E+03 0.  0.
         24    2    5    5    0    0 -0.61183424891E+02 -0.19026967021E+02  0.10191600321E+03  0.14453411652E+03  0.79986262393E+02 0.  0.
          5    1    5    5  501    0 -0.67910450189E-01 -0.41349225230E+02 -0.40669288516E+02  0.58188006216E+02  0.47000000000E+01 0. -1.
        -15    1    6    6    0    0  0.47581056004E+01  0.21776003729E+02  0.10631620289E+02  0.24759301005E+02  0.17770000000E+01 0.  1.
         16    1    6    6    0    0 -0.65941530491E+02 -0.40802970750E+02  0.91284382924E+02  0.11977481551E+03  0.00000000000E+00 0. -1.
         -5    1    3    3    0  503  0.15800565998E+02  0.45700130095E+02 -0.20996440372E+02  0.52925421914E+02  0.47000000000E+01 0.  1.
         15    1    4    4    0    0  0.30584832192E+02  0.39979422703E+02 -0.13580462271E+03  0.14484419035E+03  0.17770000000E+01 0. -1.
        -16    1    4    4    0    0  0.14865937152E+02 -0.25303360547E+02 -0.25721493512E+03  0.25888371712E+03  0.00000000000E+00 0.  1.
<mgrwt>
<rscale>  2 0.19310477E+03</rscale>
<asrwt>0</asrwt>
<pdfrwt beam="1">  1       21 0.23585090E-01 0.19324880E+03</pdfrwt>
<pdfrwt beam="2">  1       21 0.77857286E-01 0.19324880E+03</pdfrwt>
<totfact> 0.24737520E+04</totfact>
</mgrwt>
</event>
<event>
12    2  0.4097182E-002  0.2106375E+03  0.7546771E-02  0.1141485E+00
         21   -1    0    0  503  502  0.00000000000E+00  0.00000000000E+00  0.87572218560E+02  0.87572218560E+02  0.00000000000E+00 0. -1.
         21   -1    0    0  501  503 -0.00000000000E+00 -0.00000000000E+00 -0.51071626578E+03  0.51071626578E+03  0.00000000000E+00 0.  1.
          6    2    1    2  501    0 -0.10529675238E+03  0.49441815909E+02 -0.25064360610E+03  0.32603021223E+03  0.17303636261E+03 0.  0.
         24    2    3    3    0    0 -0.27399055129E+02  0.31501012486E+02 -0.36403107505E+02  0.97314220433E+02  0.80011556995E+02 0.  0.
         -6    2    1    2    0  502  0.10529675238E+03 -0.49441815909E+02 -0.17250044111E+03  0.27225827211E+03  0.17560257778E+03 0.  0.
        -24    2    5    5    0    0  0.51950634850E+02  0.29080222182E+02 -0.34562192187E+02  0.10474537935E+03  0.78946320901E+02 0.  0.
          5    1    3    3  501    0 -0.77897697250E+02  0.17940803423E+02 -0.21424049860E+03  0.22871599180E+03  0.47000000000E+01 0. -1.
        -15    1    4    4    0    0  0.28087609676E+02  0.55802509667E+01 -0.15446051318E+02  0.32585138460E+02  0.17770000000E+01 0.  1.
         16    1    4    4    0    0 -0.55486664805E+02  0.25920761519E+02 -0.20957056188E+02  0.64729081973E+02  0.00000000000E+00 0. -1.
         -5    1    5    5    0  502  0.53346117529E+02 -0.78522038091E+02 -0.13793824892E+03  0.16751289275E+03  0.47000000000E+01 0.  1.
         15    1    6    6    0    0 -0.28985945757E+01  0.42260017620E+02 -0.12857000945E+02  0.44303173047E+02  0.17770000000E+01 0. -1.
        -16    1    6    6    0    0  0.54849229426E+02 -0.13179795438E+02 -0.21705191242E+02  0.60442206307E+02  0.00000000000E+00 0.  1.
<mgrwt>
<rscale>  2 0.21010184E+03</rscale>
<asrwt>0</asrwt>
<pdfrwt beam="1">  1       21 0.13472649E-01 0.21063752E+03</pdfrwt>
<pdfrwt beam="2">  1       21 0.78571733E-01 0.21063752E+03</pdfrwt>
<totfact> 0.67709433E+04</totfact>
</mgrwt>
</event>
<event>
12    2  0.4097182E-002  0.2211070E+03  0.7546771E-02  0.1133177E+00
         21   -1    0    0  501  502  0.00000000000E+00  0.00000000000E+00  0.34774693961E+02  0.34774693961E+02  0.00000000000E+00 0.  1.
         21   -1    0    0  502  503 -0.00000000000E+00 -0.00000000000E+00 -0.16279490347E+04  0.16279490347E+04  0.00000000000E+00 0. -1.
         -6    2    1    2    0  503  0.45257734926E+01  0.13757828873E+03 -0.11054204796E+04  0.11271939531E+04  0.17223095848E+03 0.  0.
        -24    2    3    3    0    0 -0.45024795017E+01 -0.16519304544E+01 -0.45407059985E+03  0.46105183679E+03  0.79785245278E+02 0.  0.
          6    2    1    2  501    0 -0.45257734926E+01 -0.13757828873E+03 -0.48775386117E+03  0.53552977558E+03  0.17303191408E+03 0.  0.
         24    2    5    5    0    0 -0.39379378501E+00  0.36533512114E+01 -0.12312406653E+03  0.14445378997E+03  0.75457667802E+02 0.  0.
          5    1    5    5  501    0 -0.41319797076E+01 -0.14123163995E+03 -0.36462979464E+03  0.39107598561E+03  0.47000000000E+01 0. -1.
        -15    1    6    6    0    0  0.19750665918E+02  0.33858754264E+02 -0.63425025008E+02  0.74581469353E+02  0.17770000000E+01 0.  1.
         16    1    6    6    0    0 -0.20144459703E+02 -0.30205403052E+02 -0.59699041522E+02  0.69872320621E+02  0.00000000000E+00 0. -1.
         -5    1    3    3    0  503  0.90282529942E+01  0.13923021919E+03 -0.65134987970E+03  0.66614211628E+03  0.47000000000E+01 0.  1.
         15    1    4    4    0    0 -0.11780501995E+02 -0.13982475439E+02 -0.21645290627E+02  0.28389543533E+02  0.17770000000E+01 0. -1.
        -16    1    4    4    0    0  0.72780224936E+01  0.12330544984E+02 -0.43242530922E+03  0.43266229326E+03  0.00000000000E+00 0.  1.
<mgrwt>
<rscale>  2 0.22095029E+03</rscale>
<asrwt>0</asrwt>
<pdfrwt beam="1">  1       21 0.53499543E-02 0.22110701E+03</pdfrwt>
<pdfrwt beam="2">  1       21 0.25045363E+00 0.22110701E+03</pdfrwt>
<totfact> 0.15462586E+04</totfact>
</mgrwt>
</event>
<event>
11    2  0.4097182E-002  0.2255766E+03  0.7546771E-02  0.1129892E+00
         21   -1    0    0  501  502  0.00000000000E+00  0.00000000000E+00  0.85104698808E+02  0.85104698808E+02  0.00000000000E+00 0.  1.
         21   -1    0    0  502  503 -0.00000000000E+00 -0.00000000000E+00 -0.63964761825E+03  0.63964761825E+03  0.00000000000E+00 0.  1.
         -6    2    1    2    0  503 -0.91527422333E+02  0.11220630051E+03 -0.37176467860E+03  0.43484913473E+03  0.17296609727E+03 0.  0.
        -24    2    3    3    0    0 -0.21219416128E+02  0.22330149373E+02 -0.26123138988E+03  0.27591318475E+03  0.83290739392E+02 0.  0.
          6    2    1    2  501    0  0.91527422333E+02 -0.11220630051E+03 -0.18277824084E+03  0.28990318232E+03  0.17224531019E+03 0.  0.
          5    1    5    5  501    0  0.10372981307E+02  0.20043797229E+02 -0.82104698447E+01  0.24471501050E+02  0.47000000000E+01 0. -1.
        -15    1    5    5    0    0  0.59592244346E+02  0.36455283918E+00 -0.25768599064E+02  0.64950341891E+02  0.17770000000E+01 0.  1.
         16    1    5    5    0    0  0.21562196680E+02 -0.13261465058E+03 -0.14879917193E+03  0.20048133938E+03  0.00000000000E+00 0. -1.
         -5    1    3    3    0  503 -0.70308006205E+02  0.89876151140E+02 -0.11053328872E+03  0.15893594998E+03  0.47000000000E+01 0.  1.
         15    1    4    4    0    0 -0.17574301720E+02  0.32590983969E+01 -0.25483967339E+03  0.25547190583E+03  0.17770000000E+01 0. -1.
        -16    1    4    4    0    0 -0.36451144079E+01  0.19071050976E+02 -0.63917164894E+01  0.20441278925E+02  0.00000000000E+00 0.  1.
<mgrwt>
<rscale>  2 0.22543840E+03</rscale>
<asrwt>0</asrwt>
<pdfrwt beam="1">  1       21 0.13093031E-01 0.22557658E+03</pdfrwt>
<pdfrwt beam="2">  1       21 0.98407326E-01 0.22557658E+03</pdfrwt>
<totfact> 0.42077813E+04</totfact>
</mgrwt>
</event>
<event>
12    2  0.4097182E-002  0.2089365E+03  0.7546771E-02  0.1144759E+00
         21   -1    0    0  501  502  0.00000000000E+00  0.00000000000E+00  0.15685048541E+03  0.15685048541E+03  0.00000000000E+00 0. -1.
         21   -1    0    0  502  503 -0.00000000000E+00 -0.00000000000E+00 -0.31036768431E+03  0.31036768431E+03  0.00000000000E+00 0. -1.
         -6    2    1    2    0  503  0.59562037859E+02  0.73275169841E+02 -0.16587037196E+03  0.25791676733E+03  0.17346812879E+03 0.  0.
        -24    2    3    3    0    0  0.67829815613E+02  0.30113741268E+02 -0.27797946242E+02  0.11294314969E+03  0.80471783553E+02 0.  0.
          6    2    1    2  501    0 -0.59562037859E+02 -0.73275169841E+02  0.12353173057E+02  0.20930140239E+03  0.18638022773E+03 0.  0.
         24    2    5    5    0    0  0.34025821715E+02 -0.36720751619E+02 -0.29882764309E+02  0.10021025996E+03  0.81504272626E+02 0.  0.
          5    1    5    5  501    0 -0.93587859573E+02 -0.36554418222E+02  0.42235937366E+02  0.10909114243E+03  0.47000000000E+01 0. -1.
        -15    1    6    6    0    0  0.44865847535E+02 -0.47020548953E+02  0.19452410248E+01  0.65044738377E+02  0.17770000000E+01 0.  1.
         16    1    6    6    0    0 -0.10840025820E+02  0.10299797334E+02 -0.31828005334E+02  0.35165521586E+02  0.00000000000E+00 0. -1.
         -5    1    3    3    0  503 -0.82677777540E+01  0.43161428573E+02 -0.13807242572E+03  0.14497361763E+03  0.47000000000E+01 0.  1.
         15    1    4    4    0    0  0.13495856792E+02 -0.26622773049E+02 -0.14636950094E+02  0.33291263605E+02  0.17770000000E+01 0. -1.
        -16    1    4    4    0    0  0.54333958820E+02  0.56736514316E+02 -0.13160996148E+02  0.79651886089E+02  0.00000000000E+00 0.  1.
<mgrwt>
<rscale>  2 0.20601797E+03</rscale>
<asrwt>0</asrwt>
<pdfrwt beam="1">  1       21 0.24130844E-01 0.20893654E+03</pdfrwt>
<pdfrwt beam="2">  1       21 0.47748874E-01 0.20893654E+03</pdfrwt>
<totfact> 0.67449711E+04</totfact>
</mgrwt>
</event>
<event>
12    2  0.4097182E-002  0.1757754E+03  0.7546771E-02  0.1171986E+00
         21   -1    0    0  501  502  0.00000000000E+00  0.00000000000E+00  0.38954275501E+03  0.38954275501E+03  0.00000000000E+00 0.  1.
         21   -1    0    0  502  503 -0.00000000000E+00 -0.00000000000E+00 -0.79261365526E+02  0.79261365526E+02  0.00000000000E+00 0.  1.
         -6    2    1    2    0  503  0.56646322330E+01  0.32429666950E+02  0.15437477097E+03  0.23384909254E+03  0.17254001511E+03 0.  0.
        -24    2    3    3    0    0  0.98393574918E+01 -0.35626262370E+02  0.31632967756E+02  0.93361804495E+02  0.79685245581E+02 0.  0.
          6    2    1    2  501    0 -0.56646322330E+01 -0.32429666950E+02  0.15590661851E+03  0.23495502799E+03  0.17266505184E+03 0.  0.
         24    2    5    5    0    0  0.30195576695E+02 -0.68633641885E+02  0.55570590708E+02  0.12232248003E+03  0.79071795971E+02 0.  0.
          5    1    5    5  501    0 -0.35860208928E+02  0.36203974934E+02  0.10033602781E+03  0.11263254797E+03  0.47000000000E+01 0. -1.
        -15    1    6    6    0    0 -0.83308562484E+01 -0.25687712786E+02 -0.15180253402E+02  0.31029978672E+02  0.17770000000E+01 0.  1.
         16    1    6    6    0    0  0.38526432944E+02 -0.42945929098E+02  0.70750844110E+02  0.91292501355E+02  0.00000000000E+00 0. -1.
         -5    1    3    3    0  503 -0.41747252588E+01  0.68055929320E+02  0.12274180321E+03  0.14048728805E+03  0.47000000000E+01 0.  1.
         15    1    4    4    0    0 -0.73407482842E+01  0.17757520480E+02  0.31898282079E+02  0.37281017255E+02  0.17770000000E+01 0. -1.
        -16    1    4    4    0    0  0.17180105776E+02 -0.53383782850E+02 -0.26531432305E+00  0.56080787241E+02  0.00000000000E+00 0.  1.
<mgrwt>
<rscale>  2 0.17574469E+03</rscale>
<asrwt>0</asrwt>
<pdfrwt beam="1">  1       21 0.59929654E-01 0.17577540E+03</pdfrwt>
<pdfrwt beam="2">  1       21 0.12194056E-01 0.17577540E+03</pdfrwt>
<totfact> 0.14896103E+05</totfact>
</mgrwt>
</event>
<event>
12    2  0.4097182E-002  0.3553987E+03  0.7546771E-02  0.1060477E+00
         21   -1    0    0  501  502  0.00000000000E+00  0.00000000000E+00  0.65939280493E+03  0.65939280493E+03  0.00000000000E+00 0. -1.
         21   -1    0    0  502  503 -0.00000000000E+00 -0.00000000000E+00 -0.26955394794E+03  0.26955394794E+03  0.00000000000E+00 0.  1.
         -6    2    1    2    0  503 -0.30493149299E+03 -0.58481212811E+02 -0.55307284764E+02  0.35967638038E+03  0.17293043452E+03 0.  0.
        -24    2    3    3    0    0 -0.97416654010E+02  0.29180017395E+02 -0.11252181732E+02  0.13009013998E+03  0.80345224076E+02 0.  0.
          6    2    1    2  501    0  0.30493149299E+03  0.58481212811E+02  0.44514614176E+03  0.56927037249E+03  0.17178591853E+03 0.  0.
         24    2    5    5    0    0  0.21115618975E+03  0.10302766108E+03  0.27747435627E+03  0.37200377319E+03  0.78696591161E+02 0.  0.
          5    1    5    5  501    0  0.93775303239E+02 -0.44546448274E+02  0.16767178549E+03  0.19726659930E+03  0.47000000000E+01 0. -1.
        -15    1    6    6    0    0  0.94263070908E+02  0.74863115167E+02  0.94446056690E+02  0.15301381605E+03  0.17770000000E+01 0.  1.
         16    1    6    6    0    0  0.11689311885E+03  0.28164545918E+02  0.18302829958E+03  0.21898995714E+03  0.00000000000E+00 0. -1.
         -5    1    3    3    0  503 -0.20751483898E+03 -0.87661230206E+02 -0.44055103033E+02  0.22958624040E+03  0.47000000000E+01 0.  1.
         15    1    4    4    0    0 -0.19222981715E+02  0.76221243863E+01 -0.39153429055E+02  0.44314428146E+02  0.17770000000E+01 0. -1.
        -16    1    4    4    0    0 -0.78193672295E+02  0.21557893009E+02  0.27901247323E+02  0.85775711831E+02  0.00000000000E+00 0.  1.
<mgrwt>
<rscale>  2 0.35525970E+03</rscale>
<asrwt>0</asrwt>
<pdfrwt beam="1">  1       21 0.10144505E+00 0.35539865E+03</pdfrwt>
<pdfrwt beam="2">  1       21 0.41469838E-01 0.35539865E+03</pdfrwt>
<totfact> 0.40274693E+03</totfact>
</mgrwt>
</event>
<event>
12    2  0.4097182E-002  0.1996678E+03  0.7546771E-02  0.1150450E+00
         21   -1    0    0  503  502  0.00000000000E+00  0.00000000000E+00  0.17575648811E+03  0.17575648811E+03  0.00000000000E+00 0.  1.
         21   -1    0    0  501  503 -0.00000000000E+00 -0.00000000000E+00 -0.24837441783E+03  0.24837441783E+03  0.00000000000E+00 0. -1.
          6    2    1    2  501    0  0.78658717971E+02  0.47902292457E+02 -0.10216938551E+03  0.22428953745E+03  0.17715922143E+03 0.  0.
         24    2    3    3    0    0  0.11766178956E+03  0.88095007764E+01 -0.78968089214E+02  0.16420729294E+03  0.82499526753E+02 0.  0.
         -6    2    1    2    0  502 -0.78658717971E+02 -0.47902292457E+02  0.29551455778E+02  0.19984136849E+03  0.17487555714E+03 0.  0.
        -24    2    5    5    0    0  0.13838498965E+02  0.10855645837E+02  0.36071107164E+02  0.89964954701E+02  0.80518440138E+02 0.  0.
          5    1    3    3  501    0 -0.39003071594E+02  0.39092791681E+02 -0.23201296292E+02  0.60082244505E+02  0.47000000000E+01 0. -1.
        -15    1    4    4    0    0  0.79519507716E+02 -0.14041324872E+02 -0.89489236859E+01  0.81263471964E+02  0.17770000000E+01 0.  1.
         16    1    4    4    0    0  0.38142281848E+02  0.22850825648E+02 -0.70019165529E+02  0.82943820980E+02  0.00000000000E+00 0. -1.
         -5    1    5    5    0  502 -0.92497216936E+02 -0.58757938294E+02 -0.65196513856E+01  0.10987641379E+03  0.47000000000E+01 0.  1.
         15    1    6    6    0    0 -0.42898419088E+01 -0.32310104263E+02  0.32814449985E+01  0.32806572381E+02  0.17770000000E+01 0. -1.
        -16    1    6    6    0    0  0.18128340874E+02  0.43165750100E+02  0.32789662165E+02  0.57158382320E+02  0.00000000000E+00 0.  1.
<mgrwt>
<rscale>  2 0.19915997E+03</rscale>
<asrwt>0</asrwt>
<pdfrwt beam="1">  1       21 0.27039460E-01 0.19966776E+03</pdfrwt>
<pdfrwt beam="2">  1       21 0.38211449E-01 0.19966776E+03</pdfrwt>
<totfact> 0.85822095E+04</totfact>
</mgrwt>
</event>
<event>
12    2  0.4097182E-002  0.1822786E+03  0.7546771E-02  0.1165845E+00
         21   -1    0    0  501  502  0.00000000000E+00  0.00000000000E+00  0.38284619584E+03  0.38284619584E+03  0.00000000000E+00 0. -1.
         21   -1    0    0  502  503 -0.00000000000E+00 -0.00000000000E+00 -0.10906037701E+03  0.10906037701E+03  0.00000000000E+00 0. -1.
         -6    2    1    2    0  503  0.58978835565E+01  0.54716574305E+02  0.24892024503E+02  0.18397042227E+03  0.17377230749E+03 0.  0.
        -24    2    3    3    0    0  0.54328317511E+02  0.40444417478E+02  0.62134490168E+02  0.12105545869E+03  0.78780785859E+02 0.  0.
          6    2    1    2  501    0 -0.58978835565E+01 -0.54716574305E+02  0.24889379433E+03  0.30793615058E+03  0.17276534214E+03 0.  0.
         24    2    5    5    0    0  0.41273103037E+02 -0.33047094734E+02  0.66247147151E+02  0.11799785521E+03  0.82092812257E+02 0.  0.
          5    1    5    5  501    0 -0.47170986594E+02 -0.21669479570E+02  0.18264664718E+03  0.18993829537E+03  0.47000000000E+01 0. -1.
        -15    1    6    6    0    0  0.29926014279E+02  0.22270119618E+02  0.10842294264E+02  0.38887499693E+02  0.17770000000E+01 0.  1.
         16    1    6    6    0    0  0.11347088758E+02 -0.55317214352E+02  0.55404852887E+02  0.79110355519E+02  0.00000000000E+00 0. -1.
         -5    1    3    3    0  503 -0.48430433955E+02  0.14272156827E+02 -0.37242465665E+02  0.62914963581E+02  0.47000000000E+01 0.  1.
         15    1    4    4    0    0 -0.39359008815E+01  0.44499426991E+02  0.19667418344E+02  0.48843171391E+02  0.17770000000E+01 0. -1.
        -16    1    4    4    0    0  0.58264218393E+02 -0.40550095127E+01  0.42467071824E+02  0.72212287295E+02  0.00000000000E+00 0.  1.
<mgrwt>
<rscale>  2 0.18203824E+03</rscale>
<asrwt>0</asrwt>
<pdfrwt beam="1">  1       21 0.58899414E-01 0.18227864E+03</pdfrwt>
<pdfrwt beam="2">  1       21 0.16778520E-01 0.18227864E+03</pdfrwt>
<totfact> 0.86521928E+04</totfact>
</mgrwt>
</event>
<event>
12    2  0.4097182E-002  0.2198813E+03  0.7546771E-02  0.1134025E+00
         21   -1    0    0  501  502  0.00000000000E+00  0.00000000000E+00  0.26570208101E+03  0.26570208101E+03  0.00000000000E+00 0. -1.
         21   -1    0    0  502  503 -0.00000000000E+00 -0.00000000000E+00 -0.18314847453E+03  0.18314847453E+03  0.00000000000E+00 0. -1.
         -6    2    1    2    0  503 -0.13307048003E+03 -0.17359845683E+02  0.21530969413E+02  0.22093295936E+03  0.17418000170E+03 0.  0.
        -24    2    3    3    0    0 -0.40409294471E+02 -0.41391443218E+02 -0.40507113917E+02  0.10676454529E+03  0.80072961742E+02 0.  0.
          6    2    1    2  501    0  0.13307048003E+03  0.17359845683E+02  0.61022637072E+02  0.22791759617E+03  0.17382045769E+03 0.  0.
         24    2    5    5    0    0  0.14557712604E+02 -0.37862992664E+02  0.32090377363E+02  0.93925045748E+02  0.78400182970E+02 0.  0.
          5    1    5    5  501    0  0.11851276742E+03  0.55222838347E+02  0.28932259708E+02  0.13399255042E+03  0.47000000000E+01 0. -1.
        -15    1    6    6    0    0 -0.20128979214E+02 -0.33306633955E+02  0.42275314060E+02  0.57487977678E+02  0.17770000000E+01 0.  1.
         16    1    6    6    0    0  0.34686691819E+02 -0.45563587091E+01 -0.10184936697E+02  0.36437068070E+02  0.00000000000E+00 0. -1.
         -5    1    3    3    0  503 -0.92661185557E+02  0.24031597535E+02  0.62038083329E+02  0.11416841407E+03  0.47000000000E+01 0.  1.
         15    1    4    4    0    0 -0.45958330895E+02  0.39461400543E+01 -0.40007375558E+02  0.61085906951E+02  0.17770000000E+01 0. -1.
        -16    1    4    4    0    0  0.55490364239E+01 -0.45337583272E+02 -0.49973835905E+00  0.45678638341E+02  0.00000000000E+00 0.  1.
<mgrwt>
<rscale>  2 0.21981010E+03</rscale>
<asrwt>0</asrwt>
<pdfrwt beam="1">  1       21 0.40877243E-01 0.21988131E+03</pdfrwt>
<pdfrwt beam="2">  1       21 0.28176688E-01 0.21988131E+03</pdfrwt>
<totfact> 0.68566871E+04</totfact>
</mgrwt>
</event>
<event>
12    2  0.4097182E-002  0.1973229E+03  0.7546771E-02  0.1152091E+00
         21   -1    0    0  503  502  0.00000000000E+00  0.00000000000E+00  0.18209614285E+03  0.18209614285E+03  0.00000000000E+00 0. -1.
         21   -1    0    0  501  503 -0.00000000000E+00 -0.00000000000E+00 -0.23241727956E+03  0.23241727956E+03  0.00000000000E+00 0.  1.
          6    2    1    2  501    0 -0.20074031937E+02 -0.93012073954E+02 -0.84382025447E+02  0.21460816627E+03  0.17286447337E+03 0.  0.
         24    2    3    3    0    0  0.24410325940E+02 -0.13652870568E+02 -0.88666187089E+02  0.12340956267E+03  0.81153943456E+02 0.  0.
         -6    2    1    2    0  502  0.20074031937E+02  0.93012073954E+02  0.34060888731E+02  0.19990525614E+03  0.17247537399E+03 0.  0.
        -24    2    5    5    0    0  0.24296927470E+02  0.73424944776E+02  0.86777351676E+02  0.14331370252E+03  0.83826877341E+02 0.  0.
          5    1    3    3  501    0 -0.44484357877E+02 -0.79359203387E+02  0.42841616422E+01  0.91198603601E+02  0.47000000000E+01 0. -1.
        -15    1    4    4    0    0  0.34159710680E+02 -0.31323819608E+02 -0.91927763267E+02  0.10296571709E+03  0.17770000000E+01 0.  1.
         16    1    4    4    0    0 -0.97493847401E+01  0.17670949040E+02  0.32615761779E+01  0.20443845576E+02  0.00000000000E+00 0. -1.
         -5    1    5    5    0  502 -0.42228955331E+01  0.19587129178E+02 -0.52716462946E+02  0.56591553625E+02  0.47000000000E+01 0.  1.
         15    1    6    6    0    0  0.35874458303E+02  0.14190038870E+01  0.50149456400E+02  0.61701831713E+02  0.17770000000E+01 0. -1.
        -16    1    6    6    0    0 -0.11577530832E+02  0.72005940889E+02  0.36627895277E+02  0.81611870802E+02  0.00000000000E+00 0.  1.
<mgrwt>
<rscale>  2 0.19723768E+03</rscale>
<asrwt>0</asrwt>
<pdfrwt beam="1">  1       21 0.28014791E-01 0.19732293E+03</pdfrwt>
<pdfrwt beam="2">  1       21 0.35756504E-01 0.19732293E+03</pdfrwt>
<totfact> 0.91618578E+04</totfact>
</mgrwt>
</event>
<event>
12    2  0.4097182E-002  0.2938149E+03  0.7546771E-02  0.1088417E+00
         21   -1    0    0  503  502  0.00000000000E+00  0.00000000000E+00  0.89094433303E+03  0.89094433303E+03  0.00000000000E+00 0. -1.
         21   -1    0    0  501  503 -0.00000000000E+00 -0.00000000000E+00 -0.96801037537E+02  0.96801037537E+02  0.00000000000E+00 0.  1.
          6    2    1    2  501    0  0.80387802608E+02 -0.22408040362E+03  0.40330269112E+03  0.49878366830E+03  0.17163292515E+03 0.  0.
         24    2    3    3    0    0  0.11297448076E+03 -0.15235952738E+03  0.22715815739E+03  0.30576874026E+03  0.76922267012E+02 0.  0.
         -6    2    1    2    0  502 -0.80387802608E+02  0.22408040362E+03  0.39084060437E+03  0.48896170227E+03  0.17220029665E+03 0.  0.
        -24    2    5    5    0    0 -0.12022619434E+03  0.14875642413E+03  0.29153812054E+03  0.35802709020E+03  0.81277980200E+02 0.  0.
          5    1    3    3  501    0 -0.32586678153E+02 -0.71720876238E+02  0.17614453374E+03  0.19301492804E+03  0.47000000000E+01 0. -1.
        -15    1    4    4    0    0  0.10326169781E+03 -0.79290175348E+02  0.13212988528E+03  0.18550303085E+03  0.17770000000E+01 0.  1.
         16    1    4    4    0    0  0.97127829534E+01 -0.73069352037E+02  0.95028272103E+02  0.12026570940E+03  0.00000000000E+00 0. -1.
         -5    1    5    5    0  502  0.39838391736E+02  0.75323979487E+02  0.99302483831E+02  0.13093461207E+03  0.47000000000E+01 0.  1.
         15    1    6    6    0    0 -0.72475410213E+02  0.43335539163E+02  0.17214427007E+03  0.19174843282E+03  0.17770000000E+01 0. -1.
        -16    1    6    6    0    0 -0.47750784131E+02  0.10542088497E+03  0.11939385047E+03  0.16627865739E+03  0.00000000000E+00 0.  1.
<mgrwt>
<rscale>  2 0.29373178E+03</rscale>
<asrwt>0</asrwt>
<pdfrwt beam="1">  1       21 0.13706835E+00 0.29381485E+03</pdfrwt>
<pdfrwt beam="2">  1       21 0.14892468E-01 0.29381485E+03</pdfrwt>
<totfact> 0.14166188E+04</totfact>
</mgrwt>
</event>
<event>
12    2  0.4097182E-002  0.2144352E+03  0.7546771E-02  0.1138160E+00
         21   -1    0    0  501  502  0.00000000000E+00  0.00000000000E+00  0.43284255031E+03  0.43284255031E+03  0.00000000000E+00 0.  1.
         21   -1    0    0  502  503 -0.00000000000E+00 -0.00000000000E+00 -0.17127177049E+03  0.17127177049E+03  0.00000000000E+00 0. -1.
         -6    2    1    2    0  503  0.14001422557E+02  0.12533463169E+03 -0.55508775320E+02  0.22150320050E+03  0.17342904590E+03 0.  0.
        -24    2    3    3    0    0  0.25945734463E+02 -0.27080268098E+01 -0.26010725678E+02  0.89481179937E+02  0.81546362068E+02 0.  0.
          6    2    1    2  501    0 -0.14001422557E+02 -0.12533463169E+03  0.31707955514E+03  0.38261112030E+03  0.17305205967E+03 0.  0.
         24    2    5    5    0    0 -0.38216639751E+02 -0.14131061799E+03  0.31003196626E+03  0.35238915161E+03  0.81419234589E+02 0.  0.
          5    1    5    5  501    0  0.24215217194E+02  0.15975986303E+02  0.70475888771E+01  0.30221968683E+02  0.47000000000E+01 0. -1.
        -15    1    6    6    0    0 -0.60465484094E+01 -0.34381353104E+02  0.17133845229E+02  0.38927683855E+02  0.17770000000E+01 0.  1.
         16    1    6    6    0    0 -0.32170091342E+02 -0.10692926489E+03  0.29289812103E+03  0.31346146776E+03  0.00000000000E+00 0. -1.
         -5    1    3    3    0  503 -0.11944311906E+02  0.12804265850E+03 -0.29498049642E+02  0.13202202057E+03  0.47000000000E+01 0.  1.
         15    1    4    4    0    0  0.46685563951E+02  0.18417910040E+02 -0.31627455137E+02  0.59348251357E+02  0.17770000000E+01 0. -1.
        -16    1    4    4    0    0 -0.20739829488E+02 -0.21125936850E+02  0.56167294596E+01  0.30132928580E+02  0.00000000000E+00 0.  1.
<mgrwt>
<rscale>  2 0.21435894E+03</rscale>
<asrwt>0</asrwt>
<pdfrwt beam="1">  1       21 0.66591161E-01 0.21443517E+03</pdfrwt>
<pdfrwt beam="2">  1       21 0.26349503E-01 0.21443517E+03</pdfrwt>
<totfact> 0.27978934E+04</totfact>
</mgrwt>
</event>
<event>
12    2  0.4097182E-002  0.1959216E+03  0.7546771E-02  0.1153246E+00
         21   -1    0    0  501  502  0.00000000000E+00  0.00000000000E+00  0.15367120995E+04  0.15367120995E+04  0.00000000000E+00 0.  1.
         21   -1    0    0  502  503 -0.00000000000E+00 -0.00000000000E+00 -0.40246920726E+02  0.40246920726E+02  0.00000000000E+00 0. -1.
         -6    2    1    2    0  503 -0.36301083186E+02  0.84430961018E+02  0.26230070994E+03  0.32734019017E+03  0.17292652153E+03 0.  0.
        -24    2    3    3    0    0 -0.75464587620E+01  0.16494090037E+01  0.21009262955E+03  0.22522561022E+03  0.80795995688E+02 0.  0.
          6    2    1    2  501    0  0.36301083186E+02 -0.84430961018E+02  0.12341644688E+04  0.12496188300E+04  0.17302869263E+03 0.  0.
         24    2    5    5    0    0  0.24087723300E+02 -0.41304491992E+01  0.36378237245E+03  0.37544240503E+03  0.89566209961E+02 0.  0.
          5    1    5    5  501    0  0.12213359886E+02 -0.80300511819E+02  0.87038209636E+03  0.87417642500E+03  0.47000000000E+01 0. -1.
        -15    1    6    6    0    0  0.49248295728E+01 -0.17424591949E+02  0.34504723742E+03  0.34552658961E+03  0.17770000000E+01 0.  1.
         16    1    6    6    0    0  0.19162893728E+02  0.13294142750E+02  0.18735135029E+02  0.29915815417E+02  0.00000000000E+00 0. -1.
         -5    1    3    3    0  503 -0.28754624424E+02  0.82781552014E+02  0.52208080388E+02  0.10211457995E+03  0.47000000000E+01 0.  1.
         15    1    4    4    0    0 -0.18506015045E+02  0.38309944659E+02  0.12056077584E+03  0.12786001272E+03  0.17770000000E+01 0. -1.
        -16    1    4    4    0    0  0.10959556283E+02 -0.36660535655E+02  0.89531853713E+02  0.97365597506E+02  0.00000000000E+00 0.  1.
<mgrwt>
<rscale>  2 0.19589907E+03</rscale>
<asrwt>0</asrwt>
<pdfrwt beam="1">  1       21 0.23641720E+00 0.19592163E+03</pdfrwt>
<pdfrwt beam="2">  1       21 0.61918352E-02 0.19592163E+03</pdfrwt>
<totfact> 0.14908791E+04</totfact>
</mgrwt>
</event>
<event>
12    2  0.4097182E-002  0.1895378E+03  0.7546771E-02  0.1159026E+00
         21   -1    0    0  501  502  0.00000000000E+00  0.00000000000E+00  0.54612672009E+03  0.54612672009E+03  0.00000000000E+00 0.  1.
         21   -1    0    0  502  503 -0.00000000000E+00 -0.00000000000E+00 -0.95458134589E+02  0.95458134589E+02  0.00000000000E+00 0.  1.
         -6    2    1    2    0  503  0.49262022566E+02  0.60470067415E+02  0.46056001851E+02  0.19505312942E+03  0.17274603344E+03 0.  0.
        -24    2    3    3    0    0  0.11295558088E+02  0.67741150693E+02  0.87339091867E+02  0.13830187747E+03  0.82357994227E+02 0.  0.
          6    2    1    2  501    0 -0.49262022566E+02 -0.60470067415E+02  0.40461258365E+03  0.44653172526E+03  0.17203448170E+03 0.  0.
         24    2    5    5    0    0 -0.23631473580E+02 -0.90750565158E+02  0.17701870044E+03  0.21545836189E+03  0.79325744765E+02 0.  0.
          5    1    5    5  501    0 -0.25630548986E+02  0.30280497743E+02  0.22759388321E+03  0.23107336337E+03  0.47000000000E+01 0. -1.
        -15    1    6    6    0    0 -0.23656998237E+01 -0.64794521831E+02  0.44258431665E+02  0.78523201014E+02  0.17770000000E+01 0.  1.
         16    1    6    6    0    0 -0.21265773756E+02 -0.25956043326E+02  0.13276026878E+03  0.13693516088E+03  0.00000000000E+00 0. -1.
         -5    1    3    3    0  503  0.37966464478E+02 -0.72710832784E+01 -0.41283090016E+02  0.56751251953E+02  0.47000000000E+01 0.  1.
         15    1    4    4    0    0  0.20399352106E+02 -0.13107328143E+02  0.10816153520E+02  0.26609820055E+02  0.17770000000E+01 0. -1.
        -16    1    4    4    0    0 -0.91037940180E+01  0.80848478836E+02  0.76522938347E+02  0.11169205741E+03  0.00000000000E+00 0.  1.
<mgrwt>
<rscale>  2 0.18937549E+03</rscale>
<asrwt>0</asrwt>
<pdfrwt beam="1">  1       21 0.84019493E-01 0.18953777E+03</pdfrwt>
<pdfrwt beam="2">  1       21 0.14685867E-01 0.18953777E+03</pdfrwt>
<totfact> 0.50239642E+04</totfact>
</mgrwt>
</event>
<event>
12    2  0.4097182E-002  0.1808852E+03  0.7546771E-02  0.1167077E+00
         21   -1    0    0  501  502  0.00000000000E+00  0.00000000000E+00  0.13091286760E+03  0.13091286760E+03  0.00000000000E+00 0. -1.
         21   -1    0    0  502  503 -0.00000000000E+00 -0.00000000000E+00 -0.32719489820E+03  0.32719489820E+03  0.00000000000E+00 0. -1.
         -6    2    1    2    0  503  0.44607980710E+02 -0.21381851770E+02 -0.20986388020E+03  0.27671338602E+03  0.17343700372E+03 0.  0.
        -24    2    3    3    0    0 -0.26626268646E+02  0.19815268224E+01 -0.17505708119E+03  0.19392589301E+03  0.79053056078E+02 0.  0.
          6    2    1    2  501    0 -0.44607980710E+02  0.21381851770E+02  0.13581849602E+02  0.18139437978E+03  0.17398965156E+03 0.  0.
         24    2    5    5    0    0 -0.31308815221E+02  0.32935744079E+02  0.73960868018E+02  0.11832238841E+03  0.80405052412E+02 0.  0.
          5    1    5    5  501    0 -0.13299165488E+02 -0.11553892309E+02 -0.60379018415E+02  0.63071991367E+02  0.47000000000E+01 0. -1.
        -15    1    6    6    0    0 -0.12789649625E+02  0.27265108534E+02 -0.10289378293E+02  0.31874602986E+02  0.17770000000E+01 0.  1.
         16    1    6    6    0    0 -0.18519165597E+02  0.56706355456E+01  0.84250246311E+02  0.86447785427E+02  0.00000000000E+00 0. -1.
         -5    1    3    3    0  503  0.71234249356E+02 -0.23363378592E+02 -0.34806799010E+02  0.82787493004E+02  0.47000000000E+01 0.  1.
         15    1    4    4    0    0  0.13271104452E+02  0.27047216667E+02 -0.10682251223E+03  0.11100396835E+03  0.17770000000E+01 0. -1.
        -16    1    4    4    0    0 -0.39897373098E+02 -0.25065689845E+02 -0.68234568963E+02  0.82921924659E+02  0.00000000000E+00 0.  1.
<mgrwt>
<rscale>  2 0.18075217E+03</rscale>
<asrwt>0</asrwt>
<pdfrwt beam="1">  1       21 0.20140441E-01 0.18088520E+03</pdfrwt>
<pdfrwt beam="2">  1       21 0.50337677E-01 0.18088520E+03</pdfrwt>
<totfact> 0.86005518E+04</totfact>
</mgrwt>
</event>
<event>
12    2  0.4097182E-002  0.1819406E+03  0.7546771E-02  0.1166058E+00
         21   -1    0    0  501  502  0.00000000000E+00  0.00000000000E+00  0.18251962084E+03  0.18251962084E+03  0.00000000000E+00 0. -1.
         21   -1    0    0  502  503 -0.00000000000E+00 -0.00000000000E+00 -0.24066802124E+03  0.24066802124E+03  0.00000000000E+00 0. -1.
         -6    2    1    2    0  503 -0.30546440763E+02  0.41393839322E+02 -0.13458275079E+03  0.22630709725E+03  0.17451604648E+03 0.  0.
        -24    2    3    3    0    0 -0.44550109100E+01 -0.29651029035E+02 -0.19748380729E+02  0.88694748319E+02  0.81103200879E+02 0.  0.
          6    2    1    2  501    0  0.30546440763E+02 -0.41393839322E+02  0.76434350387E+02  0.19688054483E+03  0.17399196543E+03 0.  0.
         24    2    5    5    0    0  0.60832472224E+02  0.83378150627E+01  0.92158192041E+02  0.13638417844E+03  0.79607806982E+02 0.  0.
          5    1    5    5  501    0 -0.30286031461E+02 -0.49731654384E+02 -0.15723841654E+02  0.60496366385E+02  0.47000000000E+01 0. -1.
        -15    1    6    6    0    0  0.62315469904E+02  0.80304590548E+01  0.22578667223E+02  0.66788172640E+02  0.17770000000E+01 0.  1.
         16    1    6    6    0    0 -0.14829976805E+01  0.30735600796E+00  0.69579524818E+02  0.69596005803E+02  0.00000000000E+00 0. -1.
         -5    1    3    3    0  503 -0.26091429853E+02  0.71044868356E+02 -0.11483437006E+03  0.13761234893E+03  0.47000000000E+01 0.  1.
         15    1    4    4    0    0 -0.57086403343E+01  0.27141886039E+02 -0.15271313932E+02  0.31711848108E+02  0.17770000000E+01 0. -1.
        -16    1    4    4    0    0  0.12536294243E+01 -0.56792915074E+02 -0.44770667976E+01  0.56982900211E+02  0.00000000000E+00 0.  1.
<mgrwt>
<rscale>  2 0.18181482E+03</rscale>
<asrwt>0</asrwt>
<pdfrwt beam="1">  1       21 0.28079942E-01 0.18194061E+03</pdfrwt>
<pdfrwt beam="2">  1       21 0.37025849E-01 0.18194061E+03</pdfrwt>
<totfact> 0.85602051E+04</totfact>
</mgrwt>
</event>
<event>
12    2  0.4097182E-002  0.1872695E+03  0.7546771E-02  0.1160985E+00
         21   -1    0    0  501  502  0.00000000000E+00  0.00000000000E+00  0.16739820420E+03  0.16739820420E+03  0.00000000000E+00 0. -1.
         21   -1    0    0  502  503 -0.00000000000E+00 -0.00000000000E+00 -0.23735151750E+03  0.23735151750E+03  0.00000000000E+00 0. -1.
         -6    2    1    2    0  503 -0.14944738258E+02 -0.73187960125E+02 -0.10454120625E+03  0.21447312177E+03  0.17172662417E+03 0.  0.
        -24    2    3    3    0    0  0.31676984720E+02  0.92326237519E+01 -0.74143199384E+02  0.11490974235E+03  0.81353316900E+02 0.  0.
          6    2    1    2  501    0  0.14944738258E+02  0.73187960125E+02  0.34587892948E+02  0.19027659992E+03  0.17154894179E+03 0.  0.
         24    2    5    5    0    0 -0.15522366622E+01 -0.24573468359E+02 -0.17709807586E+02  0.78086642430E+02  0.71955692307E+02 0.  0.
          5    1    5    5  501    0  0.16496974920E+02  0.97761428484E+02  0.52297700533E+02  0.11218995749E+03  0.47000000000E+01 0. -1.
        -15    1    6    6    0    0  0.22739199746E+02 -0.11248656235E+02 -0.36589491712E+02  0.44559534388E+02  0.17770000000E+01 0.  1.
         16    1    6    6    0    0 -0.24291436408E+02 -0.13324812124E+02  0.18879684126E+02  0.33527108041E+02  0.00000000000E+00 0. -1.
         -5    1    3    3    0  503 -0.46621722978E+02 -0.82420583877E+02 -0.30398006867E+02  0.99563379420E+02  0.47000000000E+01 0.  1.
         15    1    4    4    0    0 -0.94116487403E+01 -0.48313225515E+01 -0.70518555370E+02  0.71329833801E+02  0.17770000000E+01 0. -1.
        -16    1    4    4    0    0  0.41088633460E+02  0.14063946303E+02 -0.36246440137E+01  0.43579908553E+02  0.00000000000E+00 0.  1.
<mgrwt>
<rscale>  2 0.18722873E+03</rscale>
<asrwt>0</asrwt>
<pdfrwt beam="1">  1       21 0.25753570E-01 0.18726947E+03</pdfrwt>
<pdfrwt beam="2">  1       21 0.36515618E-01 0.18726947E+03</pdfrwt>
<totfact> 0.10371153E+05</totfact>
</mgrwt>
</event>
<event>
12    2  0.4097182E-002  0.1801937E+03  0.7546771E-02  0.1167956E+00
         21   -1    0    0  503  502  0.00000000000E+00  0.00000000000E+00  0.90793816585E+02  0.90793816585E+02  0.00000000000E+00 0.  1.
         21   -1    0    0  501  503 -0.00000000000E+00 -0.00000000000E+00 -0.40784209611E+03  0.40784209611E+03  0.00000000000E+00 0. -1.
          6    2    1    2  501    0  0.30615275289E+02  0.18474570754E+02 -0.24786040222E+03  0.30561588597E+03  0.17517901108E+03 0.  0.
         24    2    3    3    0    0 -0.24574789864E+02 -0.17124113019E+02 -0.21331645579E+03  0.23126143881E+03  0.84147413651E+02 0.  0.
         -6    2    1    2    0  502 -0.30615275289E+02 -0.18474570754E+02 -0.69187877301E+02  0.19302002672E+03  0.17661020215E+03 0.  0.
        -24    2    5    5    0    0 -0.46226083666E+02  0.29604140761E+02 -0.96875276086E+02  0.13519319998E+03  0.76675460506E+02 0.  0.
          5    1    3    3  501    0  0.55190065153E+02  0.35598683773E+02 -0.34543946429E+02  0.74354447162E+02  0.47000000000E+01 0. -1.
        -15    1    4    4    0    0 -0.51239465836E+02 -0.88631296083E+01 -0.82782180820E+02  0.97775687754E+02  0.17770000000E+01 0.  1.
         16    1    4    4    0    0  0.26664675972E+02 -0.82609834111E+01 -0.13053427497E+03  0.13348575105E+03  0.00000000000E+00 0. -1.
         -5    1    5    5    0  502  0.15610808377E+02 -0.48078711515E+02  0.27687398785E+02  0.57826826738E+02  0.47000000000E+01 0.  1.
         15    1    6    6    0    0  0.19301244773E+02  0.19866066339E+02 -0.23833260462E+02  0.36583885453E+02  0.17770000000E+01 0. -1.
        -16    1    6    6    0    0 -0.65527328440E+02  0.97380744221E+01 -0.73042015624E+02  0.98609314531E+02  0.00000000000E+00 0.  1.
<mgrwt>
<rscale>  2 0.17984204E+03</rscale>
<asrwt>0</asrwt>
<pdfrwt beam="1">  1       21 0.13968280E-01 0.18019370E+03</pdfrwt>
<pdfrwt beam="2">  1       21 0.62744937E-01 0.18019370E+03</pdfrwt>
<totfact> 0.10555115E+05</totfact>
</mgrwt>
</event>
<event>
12    2  0.4097182E-002  0.1802473E+03  0.7546771E-02  0.1167600E+00
         21   -1    0    0  501  502  0.00000000000E+00  0.00000000000E+00  0.84900348861E+03  0.84900348861E+03  0.00000000000E+00 0.  1.
         21   -1    0    0  502  503 -0.00000000000E+00 -0.00000000000E+00 -0.94042963521E+02  0.94042963521E+02  0.00000000000E+00 0.  1.
         -6    2    1    2    0  503 -0.14955499042E+02  0.49956586609E+02  0.14184525587E+02  0.18065668050E+03  0.17238418705E+03 0.  0.
        -24    2    3    3    0    0  0.54571438696E+01  0.97758265477E+02  0.39318666950E+00  0.12667550302E+03  0.80374558045E+02 0.  0.
          6    2    1    2  501    0  0.14955499042E+02 -0.49956586609E+02  0.74077599950E+03  0.76238977163E+03  0.17253914034E+03 0.  0.
         24    2    5    5    0    0  0.37829093499E+02 -0.51939092962E+02  0.72889967689E+03  0.73611680656E+03  0.80277669578E+02 0.  0.
          5    1    5    5  501    0 -0.22873594457E+02  0.19825063523E+01  0.11876322609E+02  0.26272965069E+02  0.47000000000E+01 0. -1.
        -15    1    6    6    0    0  0.31398651109E+02  0.10037325424E+02  0.40050277704E+03  0.40186099007E+03  0.17770000000E+01 0.  1.
         16    1    6    6    0    0  0.64304423905E+01 -0.61976418386E+02  0.32839689985E+03  0.33425581649E+03  0.00000000000E+00 0. -1.
         -5    1    3    3    0  503 -0.20412642912E+02 -0.47801678868E+02  0.13791338918E+02  0.53981177482E+02  0.47000000000E+01 0.  1.
         15    1    4    4    0    0 -0.14193872833E+02  0.46270689185E+02  0.36626132607E+02  0.60721281462E+02  0.17770000000E+01 0. -1.
        -16    1    4    4    0    0  0.19651016702E+02  0.51487576293E+02 -0.36232945937E+02  0.65954221557E+02  0.00000000000E+00 0.  1.
<mgrwt>
<rscale>  2 0.18021019E+03</rscale>
<asrwt>0</asrwt>
<pdfrwt beam="1">  1       21 0.13061592E+00 0.18024728E+03</pdfrwt>
<pdfrwt beam="2">  1       21 0.14468149E-01 0.18024728E+03</pdfrwt>
<totfact> 0.18040077E+04</totfact>
</mgrwt>
</event>
<event>
12    2  0.4097182E-002  0.1897050E+03  0.7546771E-02  0.1159051E+00
         21   -1    0    0  501  502  0.00000000000E+00  0.00000000000E+00  0.13087029081E+04  0.13087029081E+04  0.00000000000E+00 0. -1.
         21   -1    0    0  502  503 -0.00000000000E+00 -0.00000000000E+00 -0.27392116860E+02  0.27392116860E+02  0.00000000000E+00 0. -1.
         -6    2    1    2    0  503 -0.46245228229E+02  0.61945499854E+02  0.68323959446E+03  0.70908697404E+03  0.17324008549E+03 0.  0.
        -24    2    3    3    0    0  0.35020539969E+02  0.23346352949E+02  0.44821672848E+03  0.45738902658E+03  0.80839319172E+02 0.  0.
          6    2    1    2  501    0  0.46245228229E+02 -0.61945499854E+02  0.59807119682E+03  0.62700805097E+03  0.17168014860E+03 0.  0.
         24    2    5    5    0    0 -0.20983461860E+01  0.19858700430E+02  0.18062606728E+03  0.19885906457E+03  0.80748872085E+02 0.  0.
          5    1    5    5  501    0  0.48343574415E+02 -0.81804200283E+02  0.41744512954E+03  0.42814898639E+03  0.47000000000E+01 0. -1.
        -15    1    6    6    0    0  0.23717545422E+02  0.42170439374E+02  0.93539065777E+02  0.10532607689E+03  0.17770000000E+01 0.  1.
         16    1    6    6    0    0 -0.25815891608E+02 -0.22311738944E+02  0.87087001500E+02  0.93532987681E+02  0.00000000000E+00 0. -1.
         -5    1    3    3    0  503 -0.81265768198E+02  0.38599146905E+02  0.23502286598E+03  0.25169794746E+03  0.47000000000E+01 0.  1.
         15    1    4    4    0    0  0.21717251349E+02  0.25532627825E+02  0.44065467845E+03  0.44193128138E+03  0.17770000000E+01 0. -1.
        -16    1    4    4    0    0  0.13303288620E+02 -0.21862748760E+01  0.75620500317E+01  0.15457745199E+02  0.00000000000E+00 0.  1.
<mgrwt>
<rscale>  2 0.18934814E+03</rscale>
<asrwt>0</asrwt>
<pdfrwt beam="1">  1       21 0.20133886E+00 0.18970502E+03</pdfrwt>
<pdfrwt beam="2">  1       21 0.42141728E-02 0.18970502E+03</pdfrwt>
<totfact> 0.47352775E+04</totfact>
</mgrwt>
</event>
<event>
12    2  0.4097182E-002  0.1773453E+03  0.7546771E-02  0.1171320E+00
         21   -1    0    0  501  502  0.00000000000E+00  0.00000000000E+00  0.24057863842E+04  0.24057863842E+04  0.00000000000E+00 0.  1.
         21   -1    0    0  502  503 -0.00000000000E+00 -0.00000000000E+00 -0.13543710103E+02  0.13543710103E+02  0.00000000000E+00 0.  1.
         -6    2    1    2    0  503 -0.21881223373E+02  0.61655517634E+01  0.14910970722E+04  0.15016064138E+04  0.17588218037E+03 0.  0.
        -24    2    3    3    0    0  0.31657039054E+02 -0.28501386713E+02  0.12047947092E+04  0.12082478018E+04  0.80733897367E+02 0.  0.
          6    2    1    2  501    0  0.21881223373E+02 -0.61655517634E+01  0.90114560188E+03  0.91772368045E+03  0.17215271102E+03 0.  0.
         24    2    5    5    0    0  0.73208468803E+02 -0.58785052401E-01  0.46825797323E+03  0.48173564419E+03  0.86279881972E+02 0.  0.
          5    1    5    5  501    0 -0.51327245430E+02 -0.61067667110E+01  0.43288762865E+03  0.43598803626E+03  0.47000000000E+01 0. -1.
        -15    1    6    6    0    0  0.50855961742E+02  0.17271004532E+02  0.43398439078E+03  0.43729878300E+03  0.17770000000E+01 0.  1.
         16    1    6    6    0    0  0.22352507061E+02 -0.17329789585E+02  0.34273582453E+02  0.44436861198E+02  0.00000000000E+00 0. -1.
         -5    1    3    3    0  503 -0.53538262427E+02  0.34666938477E+02  0.28630236302E+03  0.29335861201E+03  0.47000000000E+01 0.  1.
         15    1    4    4    0    0  0.19899618279E+02  0.44080640607E+01  0.10183922196E+04  0.10185977108E+04  0.17770000000E+01 0. -1.
        -16    1    4    4    0    0  0.11757420775E+02 -0.32909450774E+02  0.18640248958E+03  0.18965009100E+03  0.00000000000E+00 0.  1.
<mgrwt>
<rscale>  2 0.17641344E+03</rscale>
<asrwt>0</asrwt>
<pdfrwt beam="1">  1       21 0.37012064E+00 0.17734527E+03</pdfrwt>
<pdfrwt beam="2">  1       21 0.20836496E-02 0.17734527E+03</pdfrwt>
<totfact> 0.15571138E+04</totfact>
</mgrwt>
</event>
<event>
12    2  0.4097182E-002  0.1865281E+03  0.7546771E-02  0.1161855E+00
         21   -1    0    0  501  502  0.00000000000E+00  0.00000000000E+00  0.24128347984E+03  0.24128347984E+03  0.00000000000E+00 0.  1.
         21   -1    0    0  502  503 -0.00000000000E+00 -0.00000000000E+00 -0.15809515027E+03  0.15809515027E+03  0.00000000000E+00 0.  1.
         -6    2    1    2    0  503 -0.33137929800E+02  0.54017483724E+02 -0.19087252823E+02  0.18750215561E+03  0.17543296212E+03 0.  0.
        -24    2    3    3    0    0 -0.19299180487E+02  0.95897337299E+02  0.24836676116E+02  0.12507752384E+03  0.73883481386E+02 0.  0.
          6    2    1    2  501    0  0.33137929800E+02 -0.54017483724E+02  0.10227558240E+03  0.21187647450E+03  0.17439992762E+03 0.  0.
         24    2    5    5    0    0  0.22301720902E+02 -0.11813908623E+02  0.13472514366E+03  0.15734548147E+03  0.77264487405E+02 0.  0.
          5    1    5    5  501    0  0.10836208899E+02 -0.42203575101E+02 -0.32449561260E+02  0.54530993028E+02  0.47000000000E+01 0. -1.
        -15    1    6    6    0    0  0.31077052631E+02  0.22710933709E+02  0.37367766414E+02  0.53675668658E+02  0.17770000000E+01 0.  1.
         16    1    6    6    0    0 -0.87753317293E+01 -0.34524842332E+02  0.97357377245E+02  0.10366981281E+03  0.00000000000E+00 0. -1.
         -5    1    3    3    0  503 -0.13838749314E+02 -0.41879853576E+02 -0.43923928939E+02  0.62424631769E+02  0.47000000000E+01 0.  1.
         15    1    4    4    0    0  0.28437304089E+02  0.38561026819E+02  0.11155185390E+02  0.49226303368E+02  0.17770000000E+01 0. -1.
        -16    1    4    4    0    0 -0.47736484575E+02  0.57336310480E+02  0.13681490726E+02  0.75851220475E+02  0.00000000000E+00 0.  1.
<mgrwt>
<rscale>  2 0.18628482E+03</rscale>
<asrwt>0</asrwt>
<pdfrwt beam="1">  1       21 0.37120535E-01 0.18652811E+03</pdfrwt>
<pdfrwt beam="2">  1       21 0.24322331E-01 0.18652811E+03</pdfrwt>
<totfact> 0.11196407E+05</totfact>
</mgrwt>
</event>
<event>
12    2  0.4097182E-002  0.2696129E+03  0.7546771E-02  0.1101607E+00
         21   -1    0    0  501  502  0.00000000000E+00  0.00000000000E+00  0.63562670090E+03  0.63562670090E+03  0.00000000000E+00 0. -1.
         21   -1    0    0  502  503 -0.00000000000E+00 -0.00000000000E+00 -0.17249490401E+03  0.17249490401E+03  0.00000000000E+00 0.  1.
         -6    2    1    2    0  503 -0.27568922396E+02  0.20478637398E+03 -0.34230630357E+01  0.26963465207E+03  0.17318667324E+03 0.  0.
        -24    2    3    3    0    0 -0.48809644109E+02  0.18060142258E+03  0.49278929421E+02  0.20770186477E+03  0.75580397929E+02 0.  0.
          6    2    1    2  501    0  0.27568922396E+02 -0.20478637398E+03  0.46655485992E+03  0.53848695284E+03  0.17203853235E+03 0.  0.
         24    2    5    5    0    0 -0.31186290527E+02 -0.43357145656E+02  0.17477043527E+03  0.19985468729E+03  0.80899716882E+02 0.  0.
          5    1    5    5  501    0  0.58755212923E+02 -0.16142922832E+03  0.29178442466E+03  0.33863226555E+03  0.47000000000E+01 0. -1.
        -15    1    6    6    0    0  0.12286593249E+02 -0.31180588621E+02  0.20990202913E+02  0.39584540262E+02  0.17770000000E+01 0.  1.
         16    1    6    6    0    0 -0.43472883777E+02 -0.12176557035E+02  0.15378023235E+03  0.16027014703E+03  0.00000000000E+00 0. -1.
         -5    1    3    3    0  503  0.21240721713E+02  0.24184951403E+02 -0.52701992457E+02  0.61932787295E+02  0.47000000000E+01 0.  1.
         15    1    4    4    0    0 -0.31405708689E+01  0.89048745678E+02  0.55857242066E+02  0.10517952040E+03  0.17770000000E+01 0. -1.
        -16    1    4    4    0    0 -0.45669073240E+02  0.91552676899E+02 -0.65783126455E+01  0.10252234437E+03  0.00000000000E+00 0.  1.
<mgrwt>
<rscale>  2 0.26942872E+03</rscale>
<asrwt>0</asrwt>
<pdfrwt beam="1">  1       21 0.97788723E-01 0.26961292E+03</pdfrwt>
<pdfrwt beam="2">  1       21 0.26537678E-01 0.26961292E+03</pdfrwt>
<totfact> 0.11166227E+04</totfact>
</mgrwt>
</event>
<event>
12    2  0.4097182E-002  0.2053595E+03  0.7546771E-02  0.1146237E+00
         21   -1    0    0  501  502  0.00000000000E+00  0.00000000000E+00  0.32017654143E+03  0.32017654143E+03  0.00000000000E+00 0.  1.
         21   -1    0    0  502  503 -0.00000000000E+00 -0.00000000000E+00 -0.13277414412E+03  0.13277414412E+03  0.00000000000E+00 0.  1.
         -6    2    1    2    0  503  0.56251771314E+01 -0.95460369885E+02  0.13185203556E+03  0.24021059126E+03  0.17655549846E+03 0.  0.
        -24    2    3    3    0    0 -0.22895450679E+02 -0.48567706362E+02 -0.11483897957E+01  0.96253822585E+02  0.79877755351E+02 0.  0.
          6    2    1    2  501    0 -0.56251771314E+01  0.95460369885E+02  0.55550361754E+02  0.21274009429E+03  0.18173656811E+03 0.  0.
         24    2    5    5    0    0  0.52419474913E+02  0.29732322636E+02  0.71427862298E+02  0.12350140957E+03  0.80739372641E+02 0.  0.
          5    1    5    5  501    0 -0.58044652045E+02  0.65728047248E+02 -0.15877500543E+02  0.89238684715E+02  0.47000000000E+01 0. -1.
        -15    1    6    6    0    0  0.43922094308E+02  0.42950234739E+02  0.12763404515E+02  0.62768903578E+02  0.17770000000E+01 0.  1.
         16    1    6    6    0    0  0.84973806057E+01 -0.13217912103E+02  0.58664457783E+02  0.60732505995E+02  0.00000000000E+00 0. -1.
         -5    1    3    3    0  503  0.28520627810E+02 -0.46892663523E+02  0.13300042535E+03  0.14395676867E+03  0.47000000000E+01 0.  1.
         15    1    4    4    0    0  0.23966340310E+01  0.15780154716E+02 -0.18968836193E+02  0.24854207150E+02  0.17770000000E+01 0. -1.
        -16    1    4    4    0    0 -0.25292084710E+02 -0.64347861078E+02  0.17820446398E+02  0.71399615434E+02  0.00000000000E+00 0.  1.
<mgrwt>
<rscale>  2 0.20420714E+03</rscale>
<asrwt>0</asrwt>
<pdfrwt beam="1">  1       21 0.49257929E-01 0.20535945E+03</pdfrwt>
<pdfrwt beam="2">  1       21 0.20426792E-01 0.20535945E+03</pdfrwt>
<totfact> 0.86760253E+04</totfact>
</mgrwt>
</event>
<event>
12    2  0.4097182E-002  0.2335440E+03  0.7546771E-02  0.1124684E+00
         21   -1    0    0  501  502  0.00000000000E+00  0.00000000000E+00  0.11560260638E+04  0.11560260638E+04  0.00000000000E+00 0. -1.
         21   -1    0    0  502  503 -0.00000000000E+00 -0.00000000000E+00 -0.91806304608E+02  0.91806304608E+02  0.00000000000E+00 0. -1.
         -6    2    1    2    0  503  0.64968140106E+02  0.14346632832E+03  0.92503675528E+02  0.24844508384E+03  0.16841788238E+03 0.  0.
        -24    2    3    3    0    0  0.10380304021E+03  0.14359966526E+03  0.87711210377E+02  0.20903410863E+03  0.67868012522E+02 0.  0.
          6    2    1    2  501    0 -0.64968140106E+02 -0.14346632832E+03  0.97171608368E+03  0.99938728459E+03  0.17245100962E+03 0.  0.
         24    2    5    5    0    0 -0.20322332773E+02 -0.13808606669E+02  0.25408518469E+03  0.26875702920E+03  0.84067739590E+02 0.  0.
          5    1    5    5  501    0 -0.44645807333E+02 -0.12965772165E+03  0.71763089899E+03  0.73063025539E+03  0.47000000000E+01 0. -1.
        -15    1    6    6    0    0  0.20536874856E+02 -0.30419640398E+02  0.16866760861E+03  0.17262397769E+03  0.17770000000E+01 0.  1.
         16    1    6    6    0    0 -0.40859207629E+02  0.16611033728E+02  0.85417576082E+02  0.96133051513E+02  0.00000000000E+00 0. -1.
         -5    1    3    3    0  503 -0.38834900105E+02 -0.13333693715E+00  0.47924651507E+01  0.39410975211E+02  0.47000000000E+01 0.  1.
         15    1    4    4    0    0  0.29268591895E+02  0.84942563066E+02  0.18828423446E+02  0.91812617598E+02  0.17770000000E+01 0. -1.
        -16    1    4    4    0    0  0.74534448315E+02  0.58657102193E+02  0.68882786931E+02  0.11722149103E+03  0.00000000000E+00 0.  1.
<mgrwt>
<rscale>  2 0.23279993E+03</rscale>
<asrwt>0</asrwt>
<pdfrwt beam="1">  1       21 0.17785015E+00 0.23354399E+03</pdfrwt>
<pdfrwt beam="2">  1       21 0.14124048E-01 0.23354399E+03</pdfrwt>
<totfact> 0.79791418E+03</totfact>
</mgrwt>
</event>
<event>
12    2  0.4097182E-002  0.1962278E+03  0.7546771E-02  0.1153206E+00
         21   -1    0    0  501  502  0.00000000000E+00  0.00000000000E+00  0.99808387104E+02  0.99808387104E+02  0.00000000000E+00 0.  1.
         21   -1    0    0  502  503 -0.00000000000E+00 -0.00000000000E+00 -0.41530295822E+03  0.41530295822E+03  0.00000000000E+00 0.  1.
         -6    2    1    2    0  503 -0.79530830534E+02 -0.50410464166E+02 -0.22934966302E+03  0.30183874346E+03  0.17215978399E+03 0.  0.
        -24    2    3    3    0    0 -0.36829629344E+02  0.39738993726E+02 -0.90717727552E+02  0.13098435846E+03  0.77405341225E+02 0.  0.
          6    2    1    2  501    0  0.79530830534E+02  0.50410464166E+02 -0.86144908093E+02  0.21327260186E+03  0.17087389973E+03 0.  0.
         24    2    5    5    0    0  0.10725371966E+03  0.68400144124E+02 -0.93065548847E+02  0.17918195160E+03  0.85223443385E+02 0.  0.
          5    1    5    5  501    0 -0.27722889122E+02 -0.17989679958E+02  0.69206407542E+01  0.34090650253E+02  0.47000000000E+01 0. -1.
        -15    1    6    6    0    0  0.74803207747E+02  0.86188479911E+02 -0.57280529449E+02  0.12770352674E+03  0.17770000000E+01 0.  1.
         16    1    6    6    0    0  0.32450511909E+02 -0.17788335788E+02 -0.35785019399E+02  0.51478424866E+02  0.00000000000E+00 0. -1.
         -5    1    3    3    0  503 -0.42701201190E+02 -0.90149457892E+02 -0.13863193547E+03  0.17085438500E+03  0.47000000000E+01 0.  1.
         15    1    4    4    0    0  0.13774428508E+02 -0.37630747720E+01 -0.51737823633E+02  0.53701543141E+02  0.17770000000E+01 0. -1.
        -16    1    4    4    0    0 -0.50604057853E+02  0.43502068498E+02 -0.38979903919E+02  0.77282815324E+02  0.00000000000E+00 0.  1.
<mgrwt>
<rscale>  2 0.19594542E+03</rscale>
<asrwt>0</asrwt>
<pdfrwt beam="1">  1       21 0.15355136E-01 0.19622782E+03</pdfrwt>
<pdfrwt beam="2">  1       21 0.63892764E-01 0.19622782E+03</pdfrwt>
<totfact> 0.84917079E+04</totfact>
</mgrwt>
</event>
<event>
11    2  0.4097182E-002  0.1995354E+03  0.7546771E-02  0.1150241E+00
         21   -1    0    0  501  502  0.00000000000E+00  0.00000000000E+00  0.30630758117E+03  0.30630758117E+03  0.00000000000E+00 0.  1.
         21   -1    0    0  502  503 -0.00000000000E+00 -0.00000000000E+00 -0.13067369858E+03  0.13067369858E+03  0.00000000000E+00 0. -1.
         -6    2    1    2    0  503  0.47518650617E+02  0.86783471999E+02  0.68326471516E+02  0.21042170299E+03  0.17268292681E+03 0.  0.
          6    2    1    2  501    0 -0.47518650617E+02 -0.86783471999E+02  0.10730741108E+03  0.22655957676E+03  0.17327714269E+03 0.  0.
         24    2    4    4    0    0  0.22149803928E+01 -0.87288872660E+02  0.12419953005E+02  0.11932427854E+03  0.80372724160E+02 0.  0.
          5    1    4    4  501    0 -0.49733631010E+02  0.50540066126E+00  0.94887458072E+02  0.10723529821E+03  0.47000000000E+01 0. -1.
        -15    1    5    5    0    0  0.13892831987E+02 -0.78112985276E+02  0.39343581127E+02  0.88576093582E+02  0.17770000000E+01 0.  1.
         16    1    5    5    0    0 -0.11677851594E+02 -0.91758873840E+01 -0.26923628123E+02  0.30748184961E+02  0.00000000000E+00 0. -1.
         -5    1    3    3    0  503  0.34610322175E+02  0.30138264956E+00  0.59080378085E+02  0.68633419754E+02  0.47000000000E+01 0.  1.
         15    1    3    3    0    0 -0.30859218419E+02  0.24168931078E+02 -0.35967886985E+02  0.53228518803E+02  0.17770000000E+01 0. -1.
        -16    1    3    3    0    0  0.43767546861E+02  0.62313158272E+02  0.45213980416E+02  0.88559764437E+02  0.00000000000E+00 0.  1.
<mgrwt>
<rscale>  2 0.19940629E+03</rscale>
<asrwt>0</asrwt>
<pdfrwt beam="1">  1       21 0.47124243E-01 0.19953536E+03</pdfrwt>
<pdfrwt beam="2">  1       21 0.20103646E-01 0.19953536E+03</pdfrwt>
<totfact> 0.98235270E+04</totfact>
</mgrwt>
</event>
<event>
12    2  0.4097182E-002  0.2767308E+03  0.7546771E-02  0.1097530E+00
         21   -1    0    0  503  502  0.00000000000E+00  0.00000000000E+00  0.12134754952E+03  0.12134754952E+03  0.00000000000E+00 0.  1.
         21   -1    0    0  501  503 -0.00000000000E+00 -0.00000000000E+00 -0.63216001054E+03  0.63216001054E+03  0.00000000000E+00 0.  1.
          6    2    1    2  501    0  0.30327150248E+02 -0.21381693948E+03 -0.27552911147E+03  0.39050762997E+03  0.17303900758E+03 0.  0.
         24    2    3    3    0    0  0.26747636877E+02 -0.64674651153E+02 -0.44000068111E+02  0.11503708163E+03  0.79995484716E+02 0.  0.
         -6    2    1    2    0  502 -0.30327150248E+02  0.21381693948E+03 -0.23528334954E+03  0.36299993010E+03  0.17254934086E+03 0.  0.
        -24    2    5    5    0    0 -0.85424289364E+02  0.14169640796E+03 -0.13834927421E+03  0.23012641594E+03  0.80264963684E+02 0.  0.
          5    1    3    3  501    0  0.35795133704E+01 -0.14914228832E+03 -0.23152904336E+03  0.27547054834E+03  0.47000000000E+01 0. -1.
        -15    1    4    4    0    0 -0.67522839855E+01 -0.63824362753E+02 -0.49508757133E+02  0.81076614271E+02  0.17770000000E+01 0.  1.
         16    1    4    4    0    0  0.33499920863E+02 -0.85028840008E+00  0.55086890226E+01  0.33960467354E+02  0.00000000000E+00 0. -1.
         -5    1    5    5    0  502  0.55097139117E+02  0.72120531514E+02 -0.96934075334E+02  0.13287351416E+03  0.47000000000E+01 0.  1.
         15    1    6    6    0    0 -0.40915516651E+02  0.12175411307E+02 -0.13507431430E+02  0.44809916047E+02  0.17770000000E+01 0. -1.
        -16    1    6    6    0    0 -0.44508772713E+02  0.12952099666E+03 -0.12484184278E+03  0.18531649989E+03  0.00000000000E+00 0.  1.
<mgrwt>
<rscale>  2 0.27665426E+03</rscale>
<asrwt>0</asrwt>
<pdfrwt beam="1">  1       21 0.18668854E-01 0.27673077E+03</pdfrwt>
<pdfrwt beam="2">  1       21 0.97255387E-01 0.27673077E+03</pdfrwt>
<totfact> 0.22017327E+04</totfact>
</mgrwt>
</event>
<event>
12    2  0.4097182E-002  0.2170180E+03  0.7546771E-02  0.1136163E+00
         21   -1    0    0  501  502  0.00000000000E+00  0.00000000000E+00  0.40931967879E+03  0.40931967879E+03  0.00000000000E+00 0.  1.
         21   -1    0    0  502  503 -0.00000000000E+00 -0.00000000000E+00 -0.16662989697E+03  0.16662989697E+03  0.00000000000E+00 0. -1.
         -6    2    1    2    0  503 -0.13148487105E+03 -0.55429499761E+01 -0.38980072510E+02  0.22049095021E+03  0.17256250306E+03 0.  0.
        -24    2    3    3    0    0 -0.16161968571E+03 -0.20408915611E+01 -0.46595820595E+02  0.18886088403E+03  0.85861370652E+02 0.  0.
          6    2    1    2  501    0  0.13148487105E+03  0.55429499761E+01  0.28166985433E+03  0.35545862555E+03  0.17231927352E+03 0.  0.
         24    2    5    5    0    0  0.12009872529E+03 -0.54465615510E+02  0.18696952478E+03  0.24267159320E+03  0.80880726159E+02 0.  0.
          5    1    5    5  501    0  0.11386145761E+02  0.60008565486E+02  0.94700329557E+02  0.11278703235E+03  0.47000000000E+01 0. -1.
        -15    1    6    6    0    0  0.97958560882E+02 -0.53591376955E+02  0.18991909667E+03  0.22031871537E+03  0.17770000000E+01 0.  1.
         16    1    6    6    0    0  0.22140164404E+02 -0.87423855492E+00 -0.29495718951E+01  0.22352877830E+02  0.00000000000E+00 0. -1.
         -5    1    3    3    0  503  0.30134814664E+02 -0.35020584150E+01  0.76157480853E+01  0.31630066185E+02  0.47000000000E+01 0.  1.
         15    1    4    4    0    0 -0.94465507089E+02 -0.36578456221E+02 -0.50582331517E+02  0.11324065295E+03  0.17770000000E+01 0. -1.
        -16    1    4    4    0    0 -0.67154178622E+02  0.34537564660E+02  0.39865109217E+01  0.75620231079E+02  0.00000000000E+00 0.  1.
<mgrwt>
<rscale>  2 0.21696965E+03</rscale>
<asrwt>0</asrwt>
<pdfrwt beam="1">  1       21 0.62972258E-01 0.21701800E+03</pdfrwt>
<pdfrwt beam="2">  1       21 0.25635369E-01 0.21701800E+03</pdfrwt>
<totfact> 0.33275554E+04</totfact>
</mgrwt>
</event>
<event>
12    2  0.4097182E-002  0.2000118E+03  0.7546771E-02  0.1153666E+00
         21   -1    0    0  503  502  0.00000000000E+00  0.00000000000E+00  0.13579762158E+04  0.13579762158E+04  0.00000000000E+00 0. -1.
         21   -1    0    0  501  503 -0.00000000000E+00 -0.00000000000E+00 -0.85871946176E+02  0.85871946176E+02  0.00000000000E+00 0. -1.
          6    2    1    2  501    0  0.87615697443E+01  0.56399629174E+02  0.28740664798E+02  0.18450000157E+03  0.17307958138E+03 0.  0.
         24    2    3    3    0    0 -0.29569706443E+02  0.76702263031E+02 -0.21615472228E+02  0.11787182276E+03  0.81663536952E+02 0.  0.
         -6    2    1    2    0  502 -0.87615697443E+01 -0.56399629174E+02  0.12433636048E+04  0.12593481604E+04  0.19169520608E+03 0.  0.
        -24    2    5    5    0    0 -0.19481703077E+02 -0.60239051629E+02  0.12420644274E+04  0.12469610588E+04  0.90440921310E+02 0.  0.
          5    1    3    3  501    0  0.38331276187E+02 -0.20302633858E+02  0.50356137025E+02  0.66628178812E+02  0.47000000000E+01 0. -1.
        -15    1    4    4    0    0 -0.56864382762E+02  0.49694306457E+02 -0.40544508304E+01  0.75648386776E+02  0.17770000000E+01 0.  1.
         16    1    4    4    0    0  0.27294676320E+02  0.27007956574E+02 -0.17561021397E+02  0.42223435983E+02  0.00000000000E+00 0. -1.
         -5    1    5    5    0  502  0.10720133333E+02  0.38394224558E+01  0.12991773894E+01  0.12387101572E+02  0.47000000000E+01 0.  1.
         15    1    6    6    0    0  0.30242588322E+02  0.99929229464E+00  0.43322389180E+03  0.43428298481E+03  0.17770000000E+01 0. -1.
        -16    1    6    6    0    0 -0.49724291400E+02 -0.61238343924E+02  0.80884053561E+03  0.81267807401E+03  0.00000000000E+00 0.  1.
<mgrwt>
<rscale>  2 0.19541473E+03</rscale>
<asrwt>0</asrwt>
<pdfrwt beam="1">  1       21 0.20891940E+00 0.20001184E+03</pdfrwt>
<pdfrwt beam="2">  1       21 0.13211070E-01 0.20001184E+03</pdfrwt>
<totfact> 0.57804684E+03</totfact>
</mgrwt>
</event>
<event>
12    2  0.4097182E-002  0.2476342E+03  0.7546771E-02  0.1115049E+00
         21   -1    0    0  501  502  0.00000000000E+00  0.00000000000E+00  0.31125748062E+02  0.31125748062E+02  0.00000000000E+00 0.  1.
         21   -1    0    0  502  503 -0.00000000000E+00 -0.00000000000E+00 -0.23902821710E+04  0.23902821710E+04  0.00000000000E+00 0.  1.
         -6    2    1    2    0  503 -0.14305315734E+03 -0.10545878813E+03 -0.16971811168E+04  0.17151520146E+04  0.17244398526E+03 0.  0.
        -24    2    3    3    0    0 -0.43791223244E+02 -0.31925720444E+02 -0.38338311574E+03  0.39555081678E+03  0.80875907220E+02 0.  0.
          6    2    1    2  501    0  0.14305315734E+03  0.10545878813E+03 -0.66197530608E+03  0.70625590443E+03  0.17029484685E+03 0.  0.
         24    2    5    5    0    0  0.27372143318E+02  0.10346197984E+02 -0.35200128801E+03  0.36196753157E+03  0.79115795558E+02 0.  0.
          5    1    5    5  501    0  0.11568101402E+03  0.95112590149E+02 -0.30997401807E+03  0.34428837286E+03  0.47000000000E+01 0. -1.
        -15    1    6    6    0    0  0.15622782204E+02  0.45034843003E+02 -0.20378308174E+03  0.20929144880E+03  0.17770000000E+01 0.  1.
         16    1    6    6    0    0  0.11749361114E+02 -0.34688645020E+02 -0.14821820627E+03  0.15267608277E+03  0.00000000000E+00 0. -1.
         -5    1    3    3    0  503 -0.99261934094E+02 -0.73533067688E+02 -0.13137980011E+04  0.13196011978E+04  0.47000000000E+01 0.  1.
         15    1    4    4    0    0 -0.61268449885E+02 -0.30576968938E+02 -0.20148646562E+03  0.21281148357E+03  0.17770000000E+01 0. -1.
        -16    1    4    4    0    0  0.17477226641E+02 -0.13487515065E+01 -0.18189665011E+03  0.18273933322E+03  0.00000000000E+00 0.  1.
<mgrwt>
<rscale>  2 0.24726040E+03</rscale>
<asrwt>0</asrwt>
<pdfrwt beam="1">  1       21 0.47885759E-02 0.24763419E+03</pdfrwt>
<pdfrwt beam="2">  1       21 0.36773578E+00 0.24763419E+03</pdfrwt>
<totfact> 0.37193559E+03</totfact>
</mgrwt>
</event>
<event>
12    2  0.4097182E-002  0.1847612E+03  0.7546771E-02  0.1163416E+00
         21   -1    0    0  501  502  0.00000000000E+00  0.00000000000E+00  0.12273161094E+03  0.12273161094E+03  0.00000000000E+00 0. -1.
         21   -1    0    0  502  503 -0.00000000000E+00 -0.00000000000E+00 -0.27887902437E+03  0.27887902437E+03  0.00000000000E+00 0.  1.
         -6    2    1    2    0  503  0.44529696070E+02  0.43265608419E+02 -0.93430269629E+02  0.20649494559E+03  0.17336706887E+03 0.  0.
        -24    2    3    3    0    0  0.94073328512E+02  0.50529127951E+02 -0.69631562702E+02  0.15085504370E+03  0.80657955438E+02 0.  0.
          6    2    1    2  501    0 -0.44529696070E+02 -0.43265608419E+02 -0.62717143798E+02  0.19511568972E+03  0.17401691167E+03 0.  0.
         24    2    5    5    0    0  0.15520375363E+02  0.26589280404E+02 -0.40889768313E+01  0.85822192509E+02  0.80005356769E+02 0.  0.
          5    1    5    5  501    0 -0.60050071432E+02 -0.69854888823E+02 -0.58628166966E+02  0.10929349721E+03  0.47000000000E+01 0. -1.
        -15    1    6    6    0    0  0.30795358476E+02 -0.19936645850E+02 -0.28184680303E+01  0.36836468920E+02  0.17770000000E+01 0.  1.
         16    1    6    6    0    0 -0.15274983114E+02  0.46525926254E+02 -0.12705088011E+01  0.48985723589E+02  0.00000000000E+00 0. -1.
         -5    1    3    3    0  503 -0.49543632443E+02 -0.72635195315E+01 -0.23798706927E+02  0.55639901896E+02  0.47000000000E+01 0.  1.
         15    1    4    4    0    0  0.24897419956E+02  0.40667313890E+02  0.57586596060E+01  0.48062790483E+02  0.17770000000E+01 0. -1.
        -16    1    4    4    0    0  0.69175908556E+02  0.98618140608E+01 -0.75390222308E+02  0.10279225321E+03  0.00000000000E+00 0.  1.
<mgrwt>
<rscale>  2 0.18460800E+03</rscale>
<asrwt>0</asrwt>
<pdfrwt beam="1">  1       21 0.18881787E-01 0.18476118E+03</pdfrwt>
<pdfrwt beam="2">  1       21 0.42904465E-01 0.18476118E+03</pdfrwt>
<totfact> 0.13459787E+05</totfact>
</mgrwt>
</event>
<event>
12    2  0.4097182E-002  0.2008060E+03  0.7546771E-02  0.1149343E+00
         21   -1    0    0  501  502  0.00000000000E+00  0.00000000000E+00  0.26585161789E+03  0.26585161789E+03  0.00000000000E+00 0. -1.
         21   -1    0    0  502  503 -0.00000000000E+00 -0.00000000000E+00 -0.15068583958E+03  0.15068583958E+03  0.00000000000E+00 0. -1.
         -6    2    1    2    0  503  0.44446537612E+02  0.90471996478E+02  0.59855049728E+02  0.20825318690E+03  0.17212229961E+03 0.  0.
        -24    2    3    3    0    0  0.44303556002E+02 -0.64761911365E+01 -0.18769118293E+01  0.93223205572E+02  0.81745318723E+02 0.  0.
          6    2    1    2  501    0 -0.44446537612E+02 -0.90471996478E+02  0.55310728587E+02  0.20828427057E+03  0.17367320985E+03 0.  0.
         24    2    5    5    0    0 -0.25152601891E+02 -0.51399065929E+02  0.10375544679E+03  0.14295487000E+03  0.79977401547E+02 0.  0.
          5    1    5    5  501    0 -0.19293935721E+02 -0.39072930549E+02 -0.48444718203E+02  0.65329400572E+02  0.47000000000E+01 0. -1.
        -15    1    6    6    0    0  0.22176972387E+02  0.15325005302E+01  0.47112166565E+02  0.52123705064E+02  0.17770000000E+01 0.  1.
         16    1    6    6    0    0 -0.47329574278E+02 -0.52931566459E+02  0.56643280225E+02  0.90831164937E+02  0.00000000000E+00 0. -1.
         -5    1    3    3    0  503  0.14298160984E+00  0.96948187614E+02  0.61731961558E+02  0.11502998132E+03  0.47000000000E+01 0.  1.
         15    1    4    4    0    0  0.18498649394E+02 -0.29691652264E+02 -0.31864315063E+02  0.47352788165E+02  0.17770000000E+01 0. -1.
        -16    1    4    4    0    0  0.25804906608E+02  0.23215461127E+02  0.29987403234E+02  0.45870417407E+02  0.00000000000E+00 0.  1.
<mgrwt>
<rscale>  2 0.20047023E+03</rscale>
<asrwt>0</asrwt>
<pdfrwt beam="1">  1       21 0.40900249E-01 0.20080603E+03</pdfrwt>
<pdfrwt beam="2">  1       21 0.23182437E-01 0.20080603E+03</pdfrwt>
<totfact> 0.10035188E+05</totfact>
</mgrwt>
</event>
<event>
12    2  0.4097182E-002  0.2935396E+03  0.7546771E-02  0.1088753E+00
         21   -1    0    0  501  502  0.00000000000E+00  0.00000000000E+00  0.75110197017E+02  0.75110197017E+02  0.00000000000E+00 0.  1.
         21   -1    0    0  502  503 -0.00000000000E+00 -0.00000000000E+00 -0.11474302118E+04  0.11474302118E+04  0.00000000000E+00 0.  1.
         -6    2    1    2    0  503  0.14309064123E+02 -0.23649188085E+03 -0.48864752501E+03  0.57003672988E+03  0.17329832857E+03 0.  0.
        -24    2    3    3    0    0 -0.33670548299E+01 -0.21099650363E+03 -0.28242108298E+03  0.36143688607E+03  0.79649814184E+02 0.  0.
          6    2    1    2  501    0 -0.14309064123E+02  0.23649188085E+03 -0.58367248973E+03  0.65250367890E+03  0.17015967998E+03 0.  0.
         24    2    5    5    0    0  0.44698819212E+02  0.18053922166E+03 -0.33813332793E+03  0.39380655803E+03  0.78466952910E+02 0.  0.
          5    1    5    5  501    0 -0.59007883335E+02  0.55952659183E+02 -0.24553916180E+03  0.25869712086E+03  0.47000000000E+01 0. -1.
        -15    1    6    6    0    0  0.21662601594E+01  0.14860129133E+03 -0.24517933003E+03  0.28671082657E+03  0.17770000000E+01 0.  1.
         16    1    6    6    0    0  0.42532559053E+02  0.31937930331E+02 -0.92953997892E+02  0.10709573146E+03  0.00000000000E+00 0. -1.
         -5    1    3    3    0  503  0.17676118953E+02 -0.25495377214E+02 -0.20622644204E+03  0.20859984380E+03  0.47000000000E+01 0.  1.
         15    1    4    4    0    0 -0.10586184402E+02 -0.58935023933E+01  0.94119753561E-01  0.12246111962E+02  0.17770000000E+01 0. -1.
        -16    1    4    4    0    0  0.72191295722E+01 -0.20510300124E+03 -0.28251520273E+03  0.34919077411E+03  0.00000000000E+00 0.  1.
<mgrwt>
<rscale>  2 0.29307797E+03</rscale>
<asrwt>0</asrwt>
<pdfrwt beam="1">  1       21 0.11555416E-01 0.29353955E+03</pdfrwt>
<pdfrwt beam="2">  1       21 0.17652771E+00 0.29353955E+03</pdfrwt>
<totfact> 0.11303921E+04</totfact>
</mgrwt>
</event>
<event>
12    2  0.4097182E-002  0.4391286E+03  0.7546771E-02  0.1031057E+00
         21   -1    0    0  503  502  0.00000000000E+00  0.00000000000E+00  0.64622343374E+03  0.64622343374E+03  0.00000000000E+00 0.  1.
         21   -1    0    0  501  503 -0.00000000000E+00 -0.00000000000E+00 -0.35040771296E+03  0.35040771296E+03  0.00000000000E+00 0. -1.
          6    2    1    2  501    0 -0.23391901122E+03 -0.32875829097E+03  0.34049044230E+03  0.55523593089E+03  0.17191009270E+03 0.  0.
         24    2    3    3    0    0 -0.17429726663E+03 -0.31939485161E+03  0.25760005815E+03  0.45259416450E+03  0.78045367536E+02 0.  0.
         -6    2    1    2    0  502  0.23391901122E+03  0.32875829097E+03 -0.44674721526E+02  0.44139521581E+03  0.17330259117E+03 0.  0.
        -24    2    5    5    0    0  0.20496851601E+03  0.32260073073E+03 -0.76092920902E+02  0.39797586560E+03  0.80692830932E+02 0.  0.
          5    1    3    3  501    0 -0.59621744591E+02 -0.93634393588E+01  0.82890384143E+02  0.10264176639E+03  0.47000000000E+01 0. -1.
        -15    1    4    4    0    0 -0.10283051030E+03 -0.13457351695E+03  0.83583702489E+02  0.18887439838E+03  0.17770000000E+01 0.  1.
         16    1    4    4    0    0 -0.71466756326E+02 -0.18482133465E+03  0.17401635567E+03  0.26371976612E+03  0.00000000000E+00 0. -1.
         -5    1    5    5    0  502  0.28950495206E+02  0.61575602376E+01  0.31418199376E+02  0.43419350211E+02  0.47000000000E+01 0.  1.
         15    1    6    6    0    0  0.18860266566E+02  0.50048586632E+02 -0.38256930037E+02  0.65782376847E+02  0.17770000000E+01 0. -1.
        -16    1    6    6    0    0  0.18610824944E+03  0.27255214410E+03 -0.37835990866E+02  0.33219348875E+03  0.00000000000E+00 0.  1.
<mgrwt>
<rscale>  2 0.43899159E+03</rscale>
<asrwt>0</asrwt>
<pdfrwt beam="1">  1       21 0.99418989E-01 0.43912858E+03</pdfrwt>
<pdfrwt beam="2">  1       21 0.53908879E-01 0.43912858E+03</pdfrwt>
<totfact> 0.23532181E+03</totfact>
</mgrwt>
</event>
<event>
12    2  0.4097182E-002  0.1800271E+03  0.7546771E-02  0.1168015E+00
         21   -1    0    0  503  502  0.00000000000E+00  0.00000000000E+00  0.21890405505E+03  0.21890405505E+03  0.00000000000E+00 0.  1.
         21   -1    0    0  501  503 -0.00000000000E+00 -0.00000000000E+00 -0.15005738753E+03  0.15005738753E+03  0.00000000000E+00 0. -1.
          6    2    1    2  501    0 -0.45418419962E+02  0.23053107453E+02  0.90912935807E+01  0.17927629431E+03  0.17164806858E+03 0.  0.
         24    2    3    3    0    0  0.32549512824E+02 -0.34440830157E+02  0.20568485710E+01  0.82033686256E+02  0.66930213564E+02 0.  0.
         -6    2    1    2    0  502  0.45418419962E+02 -0.23053107453E+02  0.59755373939E+02  0.18968514826E+03  0.17267157300E+03 0.  0.
        -24    2    5    5    0    0  0.49363353734E+02  0.41696136268E+02  0.53979200088E+02  0.12438980961E+03  0.91562886706E+02 0.  0.
          5    1    3    3  501    0 -0.77967932787E+02  0.57493937611E+02  0.70344450097E+01  0.97242608056E+02  0.47000000000E+01 0. -1.
        -15    1    4    4    0    0  0.40678248538E+02  0.31807090537E+00  0.15947043604E+02  0.43729703886E+02  0.17770000000E+01 0.  1.
         16    1    4    4    0    0 -0.81287357139E+01 -0.34758901063E+02 -0.13890195033E+02  0.38303982371E+02  0.00000000000E+00 0. -1.
         -5    1    5    5    0  502 -0.39449337716E+01 -0.64749243722E+02  0.57761738508E+01  0.65295338649E+02  0.47000000000E+01 0.  1.
         15    1    6    6    0    0  0.61465980224E+02  0.10935310799E+02  0.16303032416E+01  0.62477702942E+02  0.17770000000E+01 0. -1.
        -16    1    6    6    0    0 -0.12102626490E+02  0.30760825469E+02  0.52348896846E+02  0.61912106672E+02  0.00000000000E+00 0.  1.
<mgrwt>
<rscale>  2 0.17978122E+03</rscale>
<asrwt>0</asrwt>
<pdfrwt beam="1">  1       21 0.33677547E-01 0.18002708E+03</pdfrwt>
<pdfrwt beam="2">  1       21 0.23085752E-01 0.18002708E+03</pdfrwt>
<totfact> 0.15028793E+05</totfact>
</mgrwt>
</event>
<event>
12    2  0.4097182E-002  0.3811614E+03  0.7546771E-02  0.1050516E+00
         21   -1    0    0  503  502  0.00000000000E+00  0.00000000000E+00  0.43214951532E+03  0.43214951532E+03  0.00000000000E+00 0. -1.
         21   -1    0    0  501  503 -0.00000000000E+00 -0.00000000000E+00 -0.13297739320E+04  0.13297739320E+04  0.00000000000E+00 0. -1.
          6    2    1    2  501    0  0.29017461388E+03  0.17695443728E+03 -0.12103356290E+04  0.12688998229E+04  0.17227955817E+03 0.  0.
         24    2    3    3    0    0  0.91551246806E+02  0.12210855567E+03 -0.50561125139E+03  0.53465337166E+03  0.83182691299E+02 0.  0.
         -6    2    1    2    0  502 -0.29017461388E+03 -0.17695443728E+03  0.31271121234E+03  0.49302362446E+03  0.17253930723E+03 0.  0.
        -24    2    5    5    0    0 -0.20254973368E+03 -0.19038420327E+03  0.21514484410E+03  0.36111545771E+03  0.82731677052E+02 0.  0.
          5    1    3    3  501    0  0.19862336707E+03  0.54845881611E+02 -0.70472437764E+03  0.73424645121E+03  0.47000000000E+01 0. -1.
        -15    1    4    4    0    0  0.10541186166E+02  0.27883764051E+02 -0.23483354110E+03  0.23672467269E+03  0.17770000000E+01 0.  1.
         16    1    4    4    0    0  0.81010060640E+02  0.94224791623E+02 -0.27077771030E+03  0.29792869898E+03  0.00000000000E+00 0. -1.
         -5    1    5    5    0  502 -0.87624880194E+02  0.13429765981E+02  0.97566368242E+02  0.13190816675E+03  0.47000000000E+01 0.  1.
         15    1    6    6    0    0 -0.14289321827E+03 -0.92115121307E+02  0.94702527184E+02  0.19461601626E+03  0.17770000000E+01 0. -1.
        -16    1    6    6    0    0 -0.59656515417E+02 -0.98269081958E+02  0.12044231692E+03  0.16649944145E+03  0.00000000000E+00 0.  1.
<mgrwt>
<rscale>  2 0.38113199E+03</rscale>
<asrwt>0</asrwt>
<pdfrwt beam="1">  1       21 0.66484541E-01 0.38116137E+03</pdfrwt>
<pdfrwt beam="2">  1       21 0.20458060E+00 0.38116137E+03</pdfrwt>
<totfact> 0.21918192E+02</totfact>
</mgrwt>
</event>
<event>
12    2  0.4097182E-002  0.2127651E+03  0.7546771E-02  0.1139497E+00
         21   -1    0    0  501  502  0.00000000000E+00  0.00000000000E+00  0.85273963537E+02  0.85273963537E+02  0.00000000000E+00 0.  1.
         21   -1    0    0  502  503 -0.00000000000E+00 -0.00000000000E+00 -0.94006056408E+03  0.94006056408E+03  0.00000000000E+00 0.  1.
         -6    2    1    2    0  503 -0.88367689745E+02  0.87568322235E+02 -0.76647177781E+03  0.79545455888E+03  0.17260332969E+03 0.  0.
        -24    2    3    3    0    0 -0.20318992000E+02 -0.35738053455E+02 -0.29862400390E+03  0.30684559754E+03  0.57339821456E+02 0.  0.
          6    2    1    2  501    0  0.88367689745E+02 -0.87568322235E+02 -0.88314822743E+02  0.22987996874E+03  0.17195415803E+03 0.  0.
         24    2    5    5    0    0 -0.23083880369E+02 -0.61767816616E+02 -0.40553760278E+02  0.10582220938E+03  0.72149870564E+02 0.  0.
          5    1    5    5  501    0  0.11145157011E+03 -0.25800505619E+02 -0.47761062465E+02  0.12405775937E+03  0.47000000000E+01 0. -1.
        -15    1    6    6    0    0 -0.28424472196E+01 -0.76095589188E+01  0.20266465861E+02  0.21905986867E+02  0.17770000000E+01 0.  1.
         16    1    6    6    0    0 -0.20241433150E+02 -0.54158257697E+02 -0.60820226139E+02  0.83916222510E+02  0.00000000000E+00 0. -1.
         -5    1    3    3    0  503 -0.68048697745E+02  0.12330637569E+03 -0.46784777390E+03  0.48860896133E+03  0.47000000000E+01 0.  1.
         15    1    4    4    0    0 -0.26837023022E+02 -0.42575227971E+02 -0.15638652565E+03  0.16429479290E+03  0.17770000000E+01 0. -1.
        -16    1    4    4    0    0  0.65180310228E+01  0.68371745159E+01 -0.14223747826E+03  0.14255080464E+03  0.00000000000E+00 0.  1.
<mgrwt>
<rscale>  2 0.21263336E+03</rscale>
<asrwt>0</asrwt>
<pdfrwt beam="1">  1       21 0.13119072E-01 0.21276506E+03</pdfrwt>
<pdfrwt beam="2">  1       21 0.14462470E+00 0.21276506E+03</pdfrwt>
<totfact> 0.16222006E+04</totfact>
</mgrwt>
</event>
<event>
12    2  0.4097182E-002  0.2716678E+03  0.7546771E-02  0.1100388E+00
         21   -1    0    0  503  502  0.00000000000E+00  0.00000000000E+00  0.45497631168E+03  0.45497631168E+03  0.00000000000E+00 0.  1.
         21   -1    0    0  501  503 -0.00000000000E+00 -0.00000000000E+00 -0.18339645790E+03  0.18339645790E+03  0.00000000000E+00 0. -1.
          6    2    1    2  501    0 -0.81000359032E+02  0.19272246491E+03  0.26768057957E+02  0.27298339396E+03  0.17349466218E+03 0.  0.
         24    2    3    3    0    0  0.14099731095E+02  0.10142478951E+03 -0.16425908910E+02  0.13417740903E+03  0.85135047237E+02 0.  0.
         -6    2    1    2    0  502  0.81000359032E+02 -0.19272246491E+03  0.24481179583E+03  0.36538937562E+03  0.17283973441E+03 0.  0.
        -24    2    5    5    0    0  0.93723581703E+02 -0.57208423487E+02  0.13555977509E+03  0.19079261203E+03  0.77255774531E+02 0.  0.
          5    1    3    3  501    0 -0.95100090128E+02  0.91297675406E+02  0.43193966866E+02  0.13880598492E+03  0.47000000000E+01 0. -1.
        -15    1    4    4    0    0 -0.12394637776E+02 -0.10689290073E+02 -0.89356203510E+01  0.18732084986E+02  0.17770000000E+01 0.  1.
         16    1    4    4    0    0  0.26494368871E+02  0.11211407958E+03 -0.74902885585E+01  0.11544532405E+03  0.00000000000E+00 0. -1.
         -5    1    5    5    0  502 -0.12723222671E+02 -0.13551404143E+03  0.10925202074E+03  0.17459676359E+03  0.47000000000E+01 0.  1.
         15    1    6    6    0    0  0.67008080542E+02 -0.57449285446E+02  0.50651558147E+02  0.10178035826E+03  0.17770000000E+01 0. -1.
        -16    1    6    6    0    0  0.26715501161E+02  0.24086195906E+00  0.84908216944E+02  0.89012253771E+02  0.00000000000E+00 0.  1.
<mgrwt>
<rscale>  2 0.27156331E+03</rscale>
<asrwt>0</asrwt>
<pdfrwt beam="1">  1       21 0.69996355E-01 0.27166782E+03</pdfrwt>
<pdfrwt beam="2">  1       21 0.28214840E-01 0.27166782E+03</pdfrwt>
<totfact> 0.21353983E+04</totfact>
</mgrwt>
</event>
<event>
12    2  0.4097182E-002  0.2330284E+03  0.7546771E-02  0.1127281E+00
         21   -1    0    0  501  502  0.00000000000E+00  0.00000000000E+00  0.53123020198E+02  0.53123020198E+02  0.00000000000E+00 0.  1.
         21   -1    0    0  502  503 -0.00000000000E+00 -0.00000000000E+00 -0.96158275280E+03  0.96158275280E+03  0.00000000000E+00 0.  1.
         -6    2    1    2    0  503 -0.12948684928E+03 -0.45289688850E+02 -0.43080932230E+03  0.48979477513E+03  0.18837263472E+03 0.  0.
        -24    2    3    3    0    0 -0.10901678556E+03 -0.83220499957E+02 -0.20602870979E+03  0.26087080587E+03  0.82434440332E+02 0.  0.
          6    2    1    2  501    0  0.12948684928E+03  0.45289688850E+02 -0.47765041030E+03  0.52491099787E+03  0.16900781393E+03 0.  0.
         24    2    5    5    0    0  0.13542282288E+03  0.72087193424E+02 -0.31067181504E+03  0.35562637567E+03  0.80107665081E+02 0.  0.
          5    1    5    5  501    0 -0.59359736032E+01 -0.26797504574E+02 -0.16697859526E+03  0.16928462219E+03  0.47000000000E+01 0. -1.
        -15    1    6    6    0    0  0.49730051540E+02 -0.84368875860E+00 -0.16007150081E+03  0.16763004783E+03  0.17770000000E+01 0.  1.
         16    1    6    6    0    0  0.85692771342E+02  0.72930882183E+02 -0.15060031423E+03  0.18799632784E+03  0.00000000000E+00 0. -1.
         -5    1    3    3    0  503 -0.20470063723E+02  0.37930811108E+02 -0.22478061252E+03  0.22892396926E+03  0.47000000000E+01 0.  1.
         15    1    4    4    0    0  0.44916992937E+01 -0.24449462021E+02 -0.69559695497E+02  0.73889515646E+02  0.17770000000E+01 0. -1.
        -16    1    4    4    0    0 -0.11350848485E+03 -0.58771037937E+02 -0.13646901429E+03  0.18698129022E+03  0.00000000000E+00 0.  1.
<mgrwt>
<rscale>  2 0.22909096E+03</rscale>
<asrwt>0</asrwt>
<pdfrwt beam="1">  1       21 0.81727730E-02 0.23302843E+03</pdfrwt>
<pdfrwt beam="2">  1       21 0.14793580E+00 0.23302843E+03</pdfrwt>
<totfact> 0.35019047E+04</totfact>
</mgrwt>
</event>
<event>
12    2  0.4097182E-002  0.2114143E+03  0.7546771E-02  0.1140606E+00
         21   -1    0    0  503  502  0.00000000000E+00  0.00000000000E+00  0.46484081808E+03  0.46484081808E+03  0.00000000000E+00 0. -1.
         21   -1    0    0  501  503 -0.00000000000E+00 -0.00000000000E+00 -0.99195214962E+02  0.99195214962E+02  0.00000000000E+00 0.  1.
          6    2    1    2  501    0 -0.50145245850E+02  0.10849824250E+03  0.13028606593E+03  0.24766582569E+03  0.17342862489E+03 0.  0.
         24    2    3    3    0    0 -0.87288658519E+02  0.96408088217E+02  0.13886105726E+03  0.20739889867E+03  0.82571669266E+02 0.  0.
         -6    2    1    2    0  502  0.50145245850E+02 -0.10849824250E+03  0.23535953719E+03  0.31637020735E+03  0.17438343398E+03 0.  0.
        -24    2    5    5    0    0 -0.31759158999E+02 -0.33437218585E+02  0.15510344524E+03  0.17923662598E+03  0.77084353794E+02 0.  0.
          5    1    3    3  501    0  0.37143412669E+02  0.12090154287E+02 -0.85749913308E+01  0.40266927021E+02  0.47000000000E+01 0. -1.
        -15    1    4    4    0    0 -0.28192488515E+02  0.89073783531E+02  0.72776794398E+02  0.11844228490E+03  0.17770000000E+01 0.  1.
         16    1    4    4    0    0 -0.59096170004E+02  0.73343046852E+01  0.66084262861E+02  0.88956613763E+02  0.00000000000E+00 0. -1.
         -5    1    5    5    0  502  0.81904404849E+02 -0.75061023919E+02  0.80256091942E+02  0.13713358137E+03  0.47000000000E+01 0.  1.
         15    1    6    6    0    0 -0.79643551770E+01  0.22214969558E+02  0.76212680525E+02  0.79802670555E+02  0.17770000000E+01 0. -1.
        -16    1    6    6    0    0 -0.23794803822E+02 -0.55652188143E+02  0.78890764718E+02  0.99433955427E+02  0.00000000000E+00 0.  1.
<mgrwt>
<rscale>  2 0.21121728E+03</rscale>
<asrwt>0</asrwt>
<pdfrwt beam="1">  1       21 0.71513971E-01 0.21141428E+03</pdfrwt>
<pdfrwt beam="2">  1       21 0.15260803E-01 0.21141428E+03</pdfrwt>
<totfact> 0.66614271E+04</totfact>
</mgrwt>
</event>
<event>
12    2  0.4097182E-002  0.1914706E+03  0.7546771E-02  0.1157177E+00
         21   -1    0    0  501  502  0.00000000000E+00  0.00000000000E+00  0.20403970722E+03  0.20403970722E+03  0.00000000000E+00 0.  1.
         21   -1    0    0  502  503 -0.00000000000E+00 -0.00000000000E+00 -0.18598537014E+03  0.18598537014E+03  0.00000000000E+00 0.  1.
         -6    2    1    2    0  503 -0.82640768460E+02  0.48302508502E+01 -0.27321548249E+02  0.19325122335E+03  0.17247243372E+03 0.  0.
        -24    2    3    3    0    0 -0.96586182365E+02 -0.48777566582E+02 -0.12323490385E+02  0.13567254328E+03  0.80913713056E+02 0.  0.
          6    2    1    2  501    0  0.82640768460E+02 -0.48302508502E+01  0.45375885324E+02  0.19677385401E+03  0.17265037132E+03 0.  0.
         24    2    5    5    0    0  0.96470588763E+02  0.33064921351E+02  0.70564567277E+02  0.14898402555E+03  0.82565235989E+02 0.  0.
          5    1    5    5  501    0 -0.13829820302E+02 -0.37895172201E+02 -0.25188681954E+02  0.47789828461E+02  0.47000000000E+01 0. -1.
        -15    1    6    6    0    0  0.49640011003E+02  0.90902005456E+01 -0.11230138392E+02  0.51730418282E+02  0.17770000000E+01 0.  1.
         16    1    6    6    0    0  0.46830577759E+02  0.23974720806E+02  0.81794705670E+02  0.97253607268E+02  0.00000000000E+00 0. -1.
         -5    1    3    3    0  503  0.13945413905E+02  0.53607817432E+02 -0.14998057864E+02  0.57578680069E+02  0.47000000000E+01 0.  1.
         15    1    4    4    0    0  0.20101858102E+01  0.16081599721E+02  0.32745547855E+01  0.16629465855E+02  0.17770000000E+01 0. -1.
        -16    1    4    4    0    0 -0.98596368175E+02 -0.64859166302E+02 -0.15598045171E+02  0.11904307743E+03  0.00000000000E+00 0.  1.
<mgrwt>
<rscale>  2 0.19143045E+03</rscale>
<asrwt>0</asrwt>
<pdfrwt beam="1">  1       21 0.31390724E-01 0.19147057E+03</pdfrwt>
<pdfrwt beam="2">  1       21 0.28613134E-01 0.19147057E+03</pdfrwt>
<totfact> 0.11400070E+05</totfact>
</mgrwt>
</event>
<event>
12    2  0.4097182E-002  0.1770469E+03  0.7546771E-02  0.1170725E+00
         21   -1    0    0  501  502  0.00000000000E+00  0.00000000000E+00  0.20613943913E+04  0.20613943913E+04  0.00000000000E+00 0. -1.
         21   -1    0    0  502  503 -0.00000000000E+00 -0.00000000000E+00 -0.20478689672E+02  0.20478689672E+02  0.00000000000E+00 0. -1.
         -6    2    1    2    0  503  0.61930916644E+01  0.35090452980E+02  0.49140929296E+03  0.52228475994E+03  0.17328757310E+03 0.  0.
        -24    2    3    3    0    0 -0.42336092628E+02  0.52264586669E+02  0.42709033355E+03  0.43976778511E+03  0.80409079424E+02 0.  0.
          6    2    1    2  501    0 -0.61930916644E+01 -0.35090452980E+02  0.15495064086E+04  0.15595883210E+04  0.17342412260E+03 0.  0.
         24    2    5    5    0    0  0.60899616635E+02 -0.13946522172E+02  0.10910835274E+04  0.10957757237E+04  0.79736467311E+02 0.  0.
          5    1    5    5  501    0 -0.67092708299E+02 -0.21143930807E+02  0.45842288127E+03  0.46381259728E+03  0.47000000000E+01 0. -1.
        -15    1    6    6    0    0  0.74839402033E+02 -0.20571068600E+01  0.64791230653E+03  0.65222594434E+03  0.17770000000E+01 0.  1.
         16    1    6    6    0    0 -0.13939785398E+02 -0.11889415312E+02  0.44317122083E+03  0.44354977937E+03  0.00000000000E+00 0. -1.
         -5    1    3    3    0  503  0.48529184292E+02 -0.17174133690E+02  0.64318959413E+02  0.82516974835E+02  0.47000000000E+01 0.  1.
         15    1    4    4    0    0  0.59630668703E+01  0.36367587305E+02  0.70507618703E+02  0.79577896410E+02  0.17770000000E+01 0. -1.
        -16    1    4    4    0    0 -0.48299159498E+02  0.15896999364E+02  0.35658271484E+03  0.36018988870E+03  0.00000000000E+00 0.  1.
<mgrwt>
<rscale>  2 0.17701350E+03</rscale>
<asrwt>0</asrwt>
<pdfrwt beam="1">  1       21 0.31713743E+00 0.17704694E+03</pdfrwt>
<pdfrwt beam="2">  1       21 0.31505693E-02 0.17704694E+03</pdfrwt>
<totfact> 0.16139684E+04</totfact>
</mgrwt>
</event>
<event>
12    2  0.4097182E-002  0.1810434E+03  0.7546771E-02  0.1167130E+00
         21   -1    0    0  501  502  0.00000000000E+00  0.00000000000E+00  0.89980951748E+03  0.89980951748E+03  0.00000000000E+00 0.  1.
         21   -1    0    0  502  503 -0.00000000000E+00 -0.00000000000E+00 -0.40476191847E+02  0.40476191847E+02  0.00000000000E+00 0.  1.
         -6    2    1    2    0  503 -0.47838158491E+02  0.26511616295E+02  0.27741116736E+03  0.33126071040E+03  0.17258431932E+03 0.  0.
        -24    2    3    3    0    0  0.38695623787E+02 -0.42816816534E+01  0.12713057826E+03  0.15507141410E+03  0.79807740489E+02 0.  0.
          6    2    1    2  501    0  0.47838158491E+02 -0.26511616295E+02  0.58192215827E+03  0.60902499893E+03  0.17113356134E+03 0.  0.
         24    2    5    5    0    0  0.22598524796E+02 -0.81482728190E+02  0.34831807249E+03  0.36767085840E+03  0.81891710075E+02 0.  0.
          5    1    5    5  501    0  0.25239633695E+02  0.54971111895E+02  0.23360408579E+03  0.24135414052E+03  0.47000000000E+01 0. -1.
        -15    1    6    6    0    0 -0.28653957619E+02 -0.48216037919E+02  0.14998721630E+03  0.16014105776E+03  0.17770000000E+01 0.  1.
         16    1    6    6    0    0  0.51252482415E+02 -0.33266690271E+02  0.19833085619E+03  0.20752980064E+03  0.00000000000E+00 0. -1.
         -5    1    3    3    0  503 -0.86533782279E+02  0.30793297949E+02  0.15028058909E+03  0.17618929630E+03  0.47000000000E+01 0.  1.
         15    1    4    4    0    0 -0.16881321290E+02 -0.16370713865E+02  0.72379598673E+02  0.76124525050E+02  0.17770000000E+01 0. -1.
        -16    1    4    4    0    0  0.55576945078E+02  0.12089032211E+02  0.54750979591E+02  0.78946889047E+02  0.00000000000E+00 0.  1.
<mgrwt>
<rscale>  2 0.18069677E+03</rscale>
<asrwt>0</asrwt>
<pdfrwt beam="1">  1       21 0.13843222E+00 0.18104337E+03</pdfrwt>
<pdfrwt beam="2">  1       21 0.62271071E-02 0.18104337E+03</pdfrwt>
<totfact> 0.68556653E+04</totfact>
</mgrwt>
</event>
<event>
12    2  0.4097182E-002  0.2783565E+03  0.7546771E-02  0.1096674E+00
         21   -1    0    0  501  502  0.00000000000E+00  0.00000000000E+00  0.48326059932E+03  0.48326059932E+03  0.00000000000E+00 0. -1.
         21   -1    0    0  502  503 -0.00000000000E+00 -0.00000000000E+00 -0.18289525960E+03  0.18289525960E+03  0.00000000000E+00 0.  1.
         -6    2    1    2    0  503  0.94596524979E+02  0.19613919753E+03  0.32149354600E+02  0.27960425151E+03  0.17241191697E+03 0.  0.
        -24    2    3    3    0    0  0.70245906344E+02  0.17147803676E+03  0.82468034719E+02  0.21832468682E+03  0.80780490706E+02 0.  0.
          6    2    1    2  501    0 -0.94596524979E+02 -0.19613919753E+03  0.26821598511E+03  0.38655160741E+03  0.17338755196E+03 0.  0.
         24    2    5    5    0    0  0.14134190792E+02 -0.11625813903E+03  0.16051631727E+03  0.21385342991E+03  0.79070039419E+02 0.  0.
          5    1    5    5  501    0 -0.10873071577E+03 -0.79881058500E+02  0.10769966784E+03  0.17269817750E+03  0.47000000000E+01 0. -1.
        -15    1    6    6    0    0  0.39899663403E+02 -0.53294293531E+02  0.47004798330E+02  0.81516094470E+02  0.17770000000E+01 0.  1.
         16    1    6    6    0    0 -0.25765472611E+02 -0.62963845501E+02  0.11351151894E+03  0.13233733544E+03  0.00000000000E+00 0. -1.
         -5    1    3    3    0  503  0.24350618635E+02  0.24661160775E+02 -0.50318680119E+02  0.61279564682E+02  0.47000000000E+01 0.  1.
         15    1    4    4    0    0  0.84831161572E+02  0.15652478504E+03  0.60576919107E+02  0.18806662427E+03  0.17770000000E+01 0. -1.
        -16    1    4    4    0    0 -0.14585255228E+02  0.14953251712E+02  0.21891115611E+02  0.30258062554E+02  0.00000000000E+00 0.  1.
<mgrwt>
<rscale>  2 0.27820469E+03</rscale>
<asrwt>0</asrwt>
<pdfrwt beam="1">  1       21 0.74347784E-01 0.27835648E+03</pdfrwt>
<pdfrwt beam="2">  1       21 0.28137732E-01 0.27835648E+03</pdfrwt>
<totfact> 0.18702801E+04</totfact>
</mgrwt>
</event>
<event>
12    2  0.4097182E-002  0.1787784E+03  0.7546771E-02  0.1169293E+00
         21   -1    0    0  501  502  0.00000000000E+00  0.00000000000E+00  0.34736539440E+03  0.34736539440E+03  0.00000000000E+00 0. -1.
         21   -1    0    0  502  503 -0.00000000000E+00 -0.00000000000E+00 -0.11508676553E+03  0.11508676553E+03  0.00000000000E+00 0. -1.
         -6    2    1    2    0  503  0.29370075845E+02  0.24512347702E+02  0.11509380474E+02  0.17914846130E+03  0.17463747823E+03 0.  0.
        -24    2    3    3    0    0  0.19383924448E+02 -0.53368567741E+02 -0.31512450829E+00  0.99605585264E+02  0.81836622381E+02 0.  0.
          6    2    1    2  501    0 -0.29370075845E+02 -0.24512347702E+02  0.22076924839E+03  0.28330369863E+03  0.17337378140E+03 0.  0.
         24    2    5    5    0    0 -0.74189922410E+02  0.12124303468E+02  0.10303770461E+03  0.15202586632E+03  0.82728182242E+02 0.  0.
          5    1    5    5  501    0  0.44819846565E+02 -0.36636651170E+02  0.11773154378E+03  0.13127783231E+03  0.47000000000E+01 0. -1.
        -15    1    6    6    0    0 -0.17227844612E+02  0.34268773920E+02  0.82961417036E+01  0.39282708564E+02  0.17770000000E+01 0.  1.
         16    1    6    6    0    0 -0.56962077798E+02 -0.22144470452E+02  0.94741562909E+02  0.11274315776E+03  0.00000000000E+00 0. -1.
         -5    1    3    3    0  503  0.99861513972E+01  0.77880915442E+02  0.11824504982E+02  0.79542876035E+02  0.47000000000E+01 0.  1.
         15    1    4    4    0    0  0.93388137623E+01  0.21095102557E+02 -0.69915515779E+01  0.24171394599E+02  0.17770000000E+01 0. -1.
        -16    1    4    4    0    0  0.10045110686E+02 -0.74463670298E+02  0.66764270696E+01  0.75434190665E+02  0.00000000000E+00 0.  1.
<mgrwt>
<rscale>  2 0.17846901E+03</rscale>
<asrwt>0</asrwt>
<pdfrwt beam="1">  1       21 0.53440829E-01 0.17877837E+03</pdfrwt>
<pdfrwt beam="2">  1       21 0.17705656E-01 0.17877837E+03</pdfrwt>
<totfact> 0.96446885E+04</totfact>
</mgrwt>
</event>
<event>
12    2  0.4097182E-002  0.2730281E+03  0.7546771E-02  0.1099591E+00
         21   -1    0    0  501  502  0.00000000000E+00  0.00000000000E+00  0.21287026711E+03  0.21287026711E+03  0.00000000000E+00 0.  1.
         21   -1    0    0  502  503 -0.00000000000E+00 -0.00000000000E+00 -0.74507072886E+03  0.74507072886E+03  0.00000000000E+00 0. -1.
         -6    2    1    2    0  503  0.18751035834E+03 -0.96537124097E+02 -0.61487039563E+03  0.67267156980E+03  0.17303724045E+03 0.  0.
        -24    2    3    3    0    0  0.13880392220E+03 -0.10937303964E+03 -0.32602733663E+03  0.37943194017E+03  0.80285629958E+02 0.  0.
          6    2    1    2  501    0 -0.18751035834E+03  0.96537124097E+02  0.82669933879E+02  0.28526942617E+03  0.17339197423E+03 0.  0.
         24    2    5    5    0    0 -0.21175756223E+03  0.96475498373E+02  0.85020654667E+02  0.26045921491E+03  0.80384724701E+02 0.  0.
          5    1    5    5  501    0  0.24247203893E+02  0.61625723973E-01 -0.23507207879E+01  0.24810211256E+02  0.47000000000E+01 0. -1.
        -15    1    6    6    0    0 -0.89135379250E+02  0.79570446508E+02  0.21810972330E+02  0.12147200515E+03  0.17770000000E+01 0.  1.
         16    1    6    6    0    0 -0.12262218298E+03  0.16905051864E+02  0.63209682337E+02  0.13898720976E+03  0.00000000000E+00 0. -1.
         -5    1    3    3    0  503  0.48706436133E+02  0.12835915544E+02 -0.28884305900E+03  0.29323962963E+03  0.47000000000E+01 0.  1.
         15    1    4    4    0    0  0.11658005987E+03 -0.43377034020E+02 -0.20441589186E+03  0.23929373585E+03  0.17770000000E+01 0. -1.
        -16    1    4    4    0    0  0.22223862329E+02 -0.65996005620E+02 -0.12161144476E+03  0.14013820433E+03  0.00000000000E+00 0.  1.
<mgrwt>
<rscale>  2 0.27297177E+03</rscale>
<asrwt>0</asrwt>
<pdfrwt beam="1">  1       21 0.32749272E-01 0.27302807E+03</pdfrwt>
<pdfrwt beam="2">  1       21 0.11462626E+00 0.27302807E+03</pdfrwt>
<totfact> 0.50178439E+03</totfact>
</mgrwt>
</event>
<event>
12    2  0.4097182E-002  0.2150528E+03  0.7546771E-02  0.1138027E+00
         21   -1    0    0  503  502  0.00000000000E+00  0.00000000000E+00  0.18566246508E+03  0.18566246508E+03  0.00000000000E+00 0. -1.
         21   -1    0    0  501  503 -0.00000000000E+00 -0.00000000000E+00 -0.36865837561E+03  0.36865837561E+03  0.00000000000E+00 0. -1.
          6    2    1    2  501    0  0.80162876009E+02 -0.96469756600E+02 -0.25120868036E+03  0.33068639082E+03  0.17468596783E+03 0.  0.
         24    2    3    3    0    0  0.13198725932E+02 -0.57650332868E+02 -0.42304816566E+02  0.10785448251E+03  0.79656290687E+02 0.  0.
         -6    2    1    2    0  502 -0.80162876009E+02  0.96469756600E+02  0.68212769831E+02  0.22363444987E+03  0.17212461930E+03 0.  0.
        -24    2    5    5    0    0 -0.11134248786E+03  0.28556016136E+02  0.49766703546E+02  0.14651900589E+03  0.76016436672E+02 0.  0.
          5    1    3    3  501    0  0.66964150077E+02 -0.38819423732E+02 -0.20890386380E+03  0.22283190832E+03  0.47000000000E+01 0. -1.
        -15    1    4    4    0    0  0.28022117643E+02  0.42412141261E+01  0.46373988184E+01  0.28773080670E+02  0.17770000000E+01 0.  1.
         16    1    4    4    0    0 -0.14823391711E+02 -0.61891546994E+02 -0.46942215384E+02  0.79081401836E+02  0.00000000000E+00 0. -1.
         -5    1    5    5    0  502  0.31179611847E+02  0.67913740465E+02  0.18446066285E+02  0.77115443980E+02  0.47000000000E+01 0.  1.
         15    1    6    6    0    0 -0.46732412883E+02  0.37615007907E+02  0.54548670507E+02  0.81101926098E+02  0.17770000000E+01 0. -1.
        -16    1    6    6    0    0 -0.64610074973E+02 -0.90589917710E+01 -0.47819669612E+01  0.65417079788E+02  0.00000000000E+00 0.  1.
<mgrwt>
<rscale>  2 0.21453204E+03</rscale>
<asrwt>0</asrwt>
<pdfrwt beam="1">  1       21 0.28563456E-01 0.21505276E+03</pdfrwt>
<pdfrwt beam="2">  1       21 0.56716673E-01 0.21505276E+03</pdfrwt>
<totfact> 0.33855629E+04</totfact>
</mgrwt>
</event>
<event>
12    2  0.4097182E-002  0.2384312E+03  0.7546771E-02  0.1120911E+00
         21   -1    0    0  503  502  0.00000000000E+00  0.00000000000E+00  0.15512500187E+03  0.15512500187E+03  0.00000000000E+00 0. -1.
         21   -1    0    0  501  503 -0.00000000000E+00 -0.00000000000E+00 -0.50623758632E+03  0.50623758632E+03  0.00000000000E+00 0.  1.
          6    2    1    2  501    0 -0.28591028221E+02 -0.16028565297E+03 -0.34980296828E+03  0.42333383103E+03  0.17418518432E+03 0.  0.
         24    2    3    3    0    0 -0.62905826300E+02 -0.11449711223E+03 -0.32774701780E+03  0.36183057272E+03  0.80227950200E+02 0.  0.
         -6    2    1    2    0  502  0.28591028221E+02  0.16028565297E+03 -0.13096161798E+01  0.23802875716E+03  0.17362902033E+03 0.  0.
        -24    2    5    5    0    0 -0.34815010430E+02  0.95171915315E+02 -0.41283712652E+02  0.13862984893E+03  0.85112347335E+02 0.  0.
          5    1    3    3  501    0  0.34314798080E+02 -0.45788540743E+02 -0.22055950480E+02  0.61503258306E+02  0.47000000000E+01 0. -1.
        -15    1    4    4    0    0 -0.76615446103E+02 -0.75002984682E+02 -0.19351124800E+03  0.22123547438E+03  0.17770000000E+01 0.  1.
         16    1    4    4    0    0  0.13709619803E+02 -0.39494127545E+02 -0.13423576980E+03  0.14059509835E+03  0.00000000000E+00 0. -1.
         -5    1    5    5    0  502  0.63406038651E+02  0.65113737656E+02  0.39974096472E+02  0.99398908232E+02  0.47000000000E+01 0.  1.
         15    1    6    6    0    0  0.10354718958E+02  0.34751391584E+02  0.19988159551E+02  0.41443499768E+02  0.17770000000E+01 0. -1.
        -16    1    6    6    0    0 -0.45169729389E+02  0.60420523730E+02 -0.61271872203E+02  0.97186349165E+02  0.00000000000E+00 0.  1.
<mgrwt>
<rscale>  2 0.23832959E+03</rscale>
<asrwt>0</asrwt>
<pdfrwt beam="1">  1       21 0.23865385E-01 0.23843116E+03</pdfrwt>
<pdfrwt beam="2">  1       21 0.77882705E-01 0.23843116E+03</pdfrwt>
<totfact> 0.23578536E+04</totfact>
</mgrwt>
</event>
<event>
12    2  0.4097182E-002  0.2440314E+03  0.7546771E-02  0.1117212E+00
         21   -1    0    0  501  502  0.00000000000E+00  0.00000000000E+00  0.12954107823E+04  0.12954107823E+04  0.00000000000E+00 0. -1.
         21   -1    0    0  502  503 -0.00000000000E+00 -0.00000000000E+00 -0.55202966843E+02  0.55202966843E+02  0.00000000000E+00 0. -1.
         -6    2    1    2    0  503 -0.88049870387E+02  0.14690637098E+03  0.34312553793E+03  0.42105398610E+03  0.17383055808E+03 0.  0.
        -24    2    3    3    0    0 -0.92605020433E+02  0.14520519654E+03  0.35760417003E+03  0.40507386803E+03  0.80894111193E+02 0.  0.
          6    2    1    2  501    0  0.88049870387E+02 -0.14690637098E+03  0.89708227756E+03  0.92955976308E+03  0.17317759355E+03 0.  0.
         24    2    5    5    0    0  0.55459689825E+02 -0.66503164354E+02  0.24621836248E+03  0.27292232776E+03  0.79778862507E+02 0.  0.
          5    1    5    5  501    0  0.32590180561E+02 -0.80403206624E+02  0.65086391508E+03  0.65663743532E+03  0.47000000000E+01 0. -1.
        -15    1    6    6    0    0  0.34034196213E+02 -0.29993868982E+02  0.34519467272E+02  0.57032534908E+02  0.17770000000E+01 0.  1.
         16    1    6    6    0    0  0.21425493613E+02 -0.36509295372E+02  0.21169889521E+03  0.21588979285E+03  0.00000000000E+00 0. -1.
         -5    1    3    3    0  503  0.45551500466E+01  0.17011744398E+01 -0.14478632095E+02  0.15980118077E+02  0.47000000000E+01 0.  1.
         15    1    4    4    0    0 -0.63526812220E+02  0.10583625877E+03  0.16336824141E+03  0.20476647570E+03  0.17770000000E+01 0. -1.
        -16    1    4    4    0    0 -0.29078208213E+02  0.39368937768E+02  0.19423592862E+03  0.20030739232E+03  0.00000000000E+00 0.  1.
<mgrwt>
<rscale>  2 0.24391514E+03</rscale>
<asrwt>0</asrwt>
<pdfrwt beam="1">  1       21 0.19929394E+00 0.24403140E+03</pdfrwt>
<pdfrwt beam="2">  1       21 0.84927651E-02 0.24403140E+03</pdfrwt>
<totfact> 0.14129949E+04</totfact>
</mgrwt>
</event>
<event>
12    2  0.4097182E-002  0.2208640E+03  0.7546771E-02  0.1134494E+00
         21   -1    0    0  501  502  0.00000000000E+00  0.00000000000E+00  0.20523724512E+03  0.20523724512E+03  0.00000000000E+00 0.  1.
         21   -1    0    0  502  503 -0.00000000000E+00 -0.00000000000E+00 -0.27150288458E+03  0.27150288458E+03  0.00000000000E+00 0. -1.
         -6    2    1    2    0  503 -0.98266208348E+02  0.79489031355E+02 -0.12523819025E+03  0.24813857228E+03  0.17295488703E+03 0.  0.
        -24    2    3    3    0    0 -0.97500257679E+02  0.41705554866E+02 -0.17197894521E+02  0.13358302559E+03  0.79391457959E+02 0.  0.
          6    2    1    2  501    0  0.98266208348E+02 -0.79489031355E+02  0.58972550778E+02  0.22860155742E+03  0.18112469876E+03 0.  0.
         24    2    5    5    0    0  0.63194036455E+01 -0.59404308713E+01  0.83155993170E+02  0.10830799810E+03  0.68851141390E+02 0.  0.
          5    1    5    5  501    0  0.91946804703E+02 -0.73548600484E+02 -0.24183442392E+02  0.12029355932E+03  0.47000000000E+01 0. -1.
        -15    1    6    6    0    0  0.24959672401E+02 -0.19149004283E+02  0.79047203242E+02  0.85095755951E+02  0.17770000000E+01 0.  1.
         16    1    6    6    0    0 -0.18640268756E+02  0.13208573412E+02  0.41087899280E+01  0.23212242148E+02  0.00000000000E+00 0. -1.
         -5    1    3    3    0  503 -0.76595066919E+00  0.37783476489E+02 -0.10804029573E+03  0.11455554669E+03  0.47000000000E+01 0.  1.
         15    1    4    4    0    0 -0.46228791564E+02  0.57685834266E+02 -0.27511780903E+02  0.78897480707E+02  0.17770000000E+01 0. -1.
        -16    1    4    4    0    0 -0.51271466116E+02 -0.15980279400E+02  0.10313886382E+02  0.54685544888E+02  0.00000000000E+00 0.  1.
<mgrwt>
<rscale>  2 0.21918270E+03</rscale>
<asrwt>0</asrwt>
<pdfrwt beam="1">  1       21 0.31574961E-01 0.22086401E+03</pdfrwt>
<pdfrwt beam="2">  1       21 0.41769674E-01 0.22086401E+03</pdfrwt>
<totfact> 0.52504514E+04</totfact>
</mgrwt>
</event>
<event>
12    2  0.4097182E-002  0.2378972E+03  0.7546771E-02  0.1121206E+00
         21   -1    0    0  503  502  0.00000000000E+00  0.00000000000E+00  0.10352104062E+04  0.10352104062E+04  0.00000000000E+00 0. -1.
         21   -1    0    0  501  503 -0.00000000000E+00 -0.00000000000E+00 -0.56897736925E+02  0.56897736925E+02  0.00000000000E+00 0.  1.
          6    2    1    2  501    0 -0.14677233002E+03  0.70709770330E+02  0.59736422287E+03  0.64299230399E+03  0.17335829875E+03 0.  0.
         24    2    3    3    0    0 -0.13006897686E+03 -0.82853433389E+01  0.43777159675E+03  0.46407576954E+03  0.82071696046E+02 0.  0.
         -6    2    1    2    0  502  0.14677233002E+03 -0.70709770330E+02  0.38094844645E+03  0.44911583918E+03  0.17332434817E+03 0.  0.
        -24    2    5    5    0    0  0.16069497102E+03 -0.46063765017E+02  0.37695831372E+03  0.42014556701E+03  0.80498341815E+02 0.  0.
          5    1    3    3  501    0 -0.16703353164E+02  0.78995113669E+02  0.15959262612E+03  0.17891653445E+03  0.47000000000E+01 0. -1.
        -15    1    4    4    0    0 -0.14812320462E+02 -0.22165793343E+02  0.30337765733E+02  0.40426043470E+02  0.17770000000E+01 0.  1.
         16    1    4    4    0    0 -0.11525665640E+03  0.13880450004E+02  0.40743383102E+03  0.42364972607E+03  0.00000000000E+00 0. -1.
         -5    1    5    5    0  502 -0.13922641001E+02 -0.24646005313E+02  0.39901327299E+01  0.28970272168E+02  0.47000000000E+01 0.  1.
         15    1    6    6    0    0  0.81903203996E+02 -0.64592037303E+02  0.20086732891E+03  0.22634289841E+03  0.17770000000E+01 0. -1.
        -16    1    6    6    0    0  0.78791767028E+02  0.18528272285E+02  0.17609098481E+03  0.19380266860E+03  0.00000000000E+00 0.  1.
<mgrwt>
<rscale>  2 0.23789104E+03</rscale>
<asrwt>0</asrwt>
<pdfrwt beam="1">  1       21 0.15926313E+00 0.23789722E+03</pdfrwt>
<pdfrwt beam="2">  1       21 0.87534987E-02 0.23789722E+03</pdfrwt>
<totfact> 0.25417370E+04</totfact>
</mgrwt>
</event>
<event>
12    2  0.4097182E-002  0.1858084E+03  0.7546771E-02  0.1162426E+00
         21   -1    0    0  503  502  0.00000000000E+00  0.00000000000E+00  0.62000451225E+02  0.62000451225E+02  0.00000000000E+00 0. -1.
         21   -1    0    0  501  503 -0.00000000000E+00 -0.00000000000E+00 -0.17171144416E+04  0.17171144416E+04  0.00000000000E+00 0. -1.
          6    2    1    2  501    0  0.15202514403E+02 -0.67062782711E+02 -0.15597069699E+04  0.15707356896E+04  0.17261587770E+03 0.  0.
         24    2    3    3    0    0 -0.44822525546E+02  0.39522506073E+01 -0.54006237239E+03  0.54684930152E+03  0.73158139820E+02 0.  0.
         -6    2    1    2    0  502 -0.15202514403E+02  0.67062782711E+02 -0.95407020438E+02  0.20837920323E+03  0.17201993931E+03 0.  0.
        -24    2    5    5    0    0  0.48892883576E+02  0.61431415157E+02 -0.96904062048E+02  0.14384809851E+03  0.71676672431E+02 0.  0.
          5    1    3    3  501    0  0.60025039950E+02 -0.71015033319E+02 -0.10196445975E+04  0.10238863881E+04  0.47000000000E+01 0. -1.
        -15    1    4    4    0    0 -0.37421757630E+01 -0.14554818378E+02 -0.21269640261E+02  0.26103676815E+02  0.17770000000E+01 0.  1.
         16    1    4    4    0    0 -0.41080349783E+02  0.18507068985E+02 -0.51879273213E+03  0.52074562470E+03  0.00000000000E+00 0. -1.
         -5    1    5    5    0  502 -0.64095397979E+02  0.56313675541E+01  0.14970416108E+01  0.64531104719E+02  0.47000000000E+01 0.  1.
         15    1    6    6    0    0  0.32643448628E+02 -0.87864673250E+01 -0.25389988123E+02  0.42315552369E+02  0.17770000000E+01 0. -1.
        -16    1    6    6    0    0  0.16249434948E+02  0.70217882482E+02 -0.71514073925E+02  0.10153254614E+03  0.00000000000E+00 0.  1.
<mgrwt>
<rscale>  2 0.18566991E+03</rscale>
<asrwt>0</asrwt>
<pdfrwt beam="1">  1       21 0.95385300E-02 0.18580843E+03</pdfrwt>
<pdfrwt beam="2">  1       21 0.26417148E+00 0.18580843E+03</pdfrwt>
<totfact> 0.48829161E+03</totfact>
</mgrwt>
</event>
<event>
12    2  0.4097182E-002  0.2669980E+03  0.7546771E-02  0.1104162E+00
         21   -1    0    0  501  502  0.00000000000E+00  0.00000000000E+00  0.74522720024E+03  0.74522720024E+03  0.00000000000E+00 0. -1.
         21   -1    0    0  502  503 -0.00000000000E+00 -0.00000000000E+00 -0.98255203225E+02  0.98255203225E+02  0.00000000000E+00 0. -1.
         -6    2    1    2    0  503 -0.86661845088E+01 -0.20277070656E+03  0.22940404360E+03  0.35201443373E+03  0.17348453574E+03 0.  0.
        -24    2    3    3    0    0 -0.38194362179E+02 -0.21743173654E+03  0.20876772855E+03  0.31283782622E+03  0.74486050201E+02 0.  0.
          6    2    1    2  501    0  0.86661845088E+01  0.20277070656E+03  0.41756795341E+03  0.49146796973E+03  0.16120393098E+03 0.  0.
         24    2    5    5    0    0 -0.44155036152E+02  0.67359992679E+02  0.20322808523E+03  0.23245095895E+03  0.79023780324E+02 0.  0.
          5    1    5    5  501    0  0.52821220660E+02  0.13541071388E+03  0.21433986818E+03  0.25901701079E+03  0.47000000000E+01 0. -1.
        -15    1    6    6    0    0 -0.31274483572E+02  0.27374891025E+02  0.23294873992E+02  0.47678998150E+02  0.17770000000E+01 0.  1.
         16    1    6    6    0    0 -0.12880552580E+02  0.39985101654E+02  0.17993321124E+03  0.18477196080E+03  0.00000000000E+00 0. -1.
         -5    1    3    3    0  503  0.29528177671E+02  0.14661029984E+02  0.20636315049E+02  0.39176607504E+02  0.47000000000E+01 0.  1.
         15    1    4    4    0    0 -0.23009814499E+02 -0.20735933022E+03  0.20798654695E+03  0.29459956693E+03  0.17770000000E+01 0. -1.
        -16    1    4    4    0    0 -0.15184547680E+02 -0.10072406324E+02  0.78118159501E+00  0.18238259294E+02  0.00000000000E+00 0.  1.
<mgrwt>
<rscale>  2 0.26502341E+03</rscale>
<asrwt>0</asrwt>
<pdfrwt beam="1">  1       21 0.11465033E+00 0.26699803E+03</pdfrwt>
<pdfrwt beam="2">  1       21 0.15116186E-01 0.26699803E+03</pdfrwt>
<totfact> 0.21938208E+04</totfact>
</mgrwt>
</event>
<event>
12    2  0.4097182E-002  0.2300285E+03  0.7546771E-02  0.1126956E+00
         21   -1    0    0  503  502  0.00000000000E+00  0.00000000000E+00  0.11458990413E+03  0.11458990413E+03  0.00000000000E+00 0. -1.
         21   -1    0    0  501  503 -0.00000000000E+00 -0.00000000000E+00 -0.93671439411E+03  0.93671439411E+03  0.00000000000E+00 0. -1.
          6    2    1    2  501    0  0.14676540837E+03 -0.41448347219E+02 -0.78602583405E+03  0.81846055739E+03  0.16965559709E+03 0.  0.
         24    2    3    3    0    0  0.77124079387E+02 -0.70718201560E+02 -0.31416840149E+03  0.34057127550E+03  0.79610436199E+02 0.  0.
         -6    2    1    2    0  502 -0.14676540837E+03  0.41448347219E+02 -0.36098655932E+02  0.23284374085E+03  0.17220639974E+03 0.  0.
        -24    2    5    5    0    0 -0.56055127501E+01  0.32914833804E+02 -0.27898777016E+02  0.91110664265E+02  0.80050005161E+02 0.  0.
          5    1    3    3  501    0  0.69641328987E+02  0.29269854341E+02 -0.47185743256E+03  0.47788928189E+03  0.47000000000E+01 0. -1.
        -15    1    4    4    0    0 -0.13332846040E+02  0.33680221268E+01 -0.23783570550E+02  0.27530425236E+02  0.17770000000E+01 0.  1.
         16    1    4    4    0    0  0.90456925427E+02 -0.74086223687E+02 -0.29038483094E+03  0.31304085027E+03  0.00000000000E+00 0. -1.
         -5    1    5    5    0  502 -0.14115989562E+03  0.85335134154E+01 -0.81998789162E+01  0.14173307658E+03  0.47000000000E+01 0.  1.
         15    1    6    6    0    0  0.88431417604E+01 -0.17457466993E+02  0.13907898959E+02  0.24073879879E+02  0.17770000000E+01 0. -1.
        -16    1    6    6    0    0 -0.14448654510E+02  0.50372300797E+02 -0.41806675975E+02  0.67036784386E+02  0.00000000000E+00 0.  1.
<mgrwt>
<rscale>  2 0.22955115E+03</rscale>
<asrwt>0</asrwt>
<pdfrwt beam="1">  1       21 0.17629217E-01 0.23002846E+03</pdfrwt>
<pdfrwt beam="2">  1       21 0.14410990E+00 0.23002846E+03</pdfrwt>
<totfact> 0.94294879E+03</totfact>
</mgrwt>
</event>
<event>
12    2  0.4097182E-002  0.2130481E+03  0.7546771E-02  0.1139306E+00
         21   -1    0    0  503  502  0.00000000000E+00  0.00000000000E+00  0.24939618159E+04  0.24939618159E+04  0.00000000000E+00 0. -1.
         21   -1    0    0  501  503 -0.00000000000E+00 -0.00000000000E+00 -0.25132687960E+02  0.25132687960E+02  0.00000000000E+00 0.  1.
          6    2    1    2  501    0  0.97834740164E+02  0.76894452024E+02  0.56872562501E+03  0.60708434960E+03  0.17209932553E+03 0.  0.
         24    2    3    3    0    0  0.99895430473E+02  0.63824108294E+02  0.24982317192E+03  0.28787290727E+03  0.80041112433E+02 0.  0.
         -6    2    1    2    0  502 -0.97834740164E+02 -0.76894452024E+02  0.19001035029E+04  0.19120101543E+04  0.17293095450E+03 0.  0.
        -24    2    5    5    0    0 -0.10194230966E+03 -0.26657873568E+02  0.17088515884E+04  0.17141719104E+04  0.84313168259E+02 0.  0.
          5    1    3    3  501    0 -0.20606903090E+01  0.13070343730E+02  0.31890245309E+03  0.31921144233E+03  0.47000000000E+01 0. -1.
        -15    1    4    4    0    0  0.94360152372E+02  0.75068358069E+02  0.24723287465E+03  0.27507516932E+03  0.17770000000E+01 0.  1.
         16    1    4    4    0    0  0.55352781010E+01 -0.11244249775E+02  0.25902972749E+01  0.12797737950E+02  0.00000000000E+00 0. -1.
         -5    1    5    5    0  502  0.41075694945E+01 -0.50236578456E+02  0.19125191451E+03  0.19783824389E+03  0.47000000000E+01 0.  1.
         15    1    6    6    0    0 -0.27876616702E+02 -0.50016599093E+02  0.72330321941E+03  0.72556837782E+03  0.17770000000E+01 0. -1.
        -16    1    6    6    0    0 -0.74065692956E+02  0.23358725525E+02  0.98554836901E+03  0.98860353256E+03  0.00000000000E+00 0.  1.
<mgrwt>
<rscale>  2 0.21287932E+03</rscale>
<asrwt>0</asrwt>
<pdfrwt beam="1">  1       21 0.38368624E+00 0.21304814E+03</pdfrwt>
<pdfrwt beam="2">  1       21 0.38665693E-02 0.21304814E+03</pdfrwt>
<totfact> 0.44369639E+03</totfact>
</mgrwt>
</event>
<event>
12    2  0.4097182E-002  0.1977099E+03  0.7546771E-02  0.1152095E+00
         21   -1    0    0  501  502  0.00000000000E+00  0.00000000000E+00  0.36474790017E+03  0.36474790017E+03  0.00000000000E+00 0.  1.
         21   -1    0    0  502  503 -0.00000000000E+00 -0.00000000000E+00 -0.11204313823E+03  0.11204313823E+03  0.00000000000E+00 0.  1.
         -6    2    1    2    0  503  0.77498953443E+02 -0.56327729274E+02  0.72207456116E+02  0.21048302320E+03  0.17294590329E+03 0.  0.
        -24    2    3    3    0    0  0.11679622179E+03 -0.68764992627E+02  0.72417439942E+02  0.16899694225E+03  0.70325665619E+02 0.  0.
          6    2    1    2  501    0 -0.77498953443E+02  0.56327729274E+02  0.18049730583E+03  0.26630801521E+03  0.17076820747E+03 0.  0.
         24    2    5    5    0    0  0.83348906135E+01 -0.33634117684E+02  0.33661940240E+02  0.73841661574E+02  0.55845684608E+02 0.  0.
          5    1    5    5  501    0 -0.85833844056E+02  0.89961846958E+02  0.14683536559E+03  0.19246635363E+03  0.47000000000E+01 0. -1.
        -15    1    6    6    0    0 -0.10486432933E+02 -0.33006972419E+02  0.40939293146E+02  0.53652669610E+02  0.17770000000E+01 0.  1.
         16    1    6    6    0    0  0.18821323546E+02 -0.62714526468E+00 -0.72773529055E+01  0.20188991964E+02  0.00000000000E+00 0. -1.
         -5    1    3    3    0  503 -0.39297268351E+02  0.12437263353E+02 -0.20998382581E+00  0.41486080952E+02  0.47000000000E+01 0.  1.
         15    1    4    4    0    0  0.33186647376E+02 -0.57365908690E+02  0.18393644223E+02  0.68801779924E+02  0.17770000000E+01 0. -1.
        -16    1    4    4    0    0  0.83609574418E+02 -0.11399083937E+02  0.54023795719E+02  0.10019516232E+03  0.00000000000E+00 0.  1.
<mgrwt>
<rscale>  2 0.19723261E+03</rscale>
<asrwt>0</asrwt>
<pdfrwt beam="1">  1       21 0.56115061E-01 0.19770985E+03</pdfrwt>
<pdfrwt beam="2">  1       21 0.17237406E-01 0.19770985E+03</pdfrwt>
<totfact> 0.90715728E+04</totfact>
</mgrwt>
</event>
<event>
12    2  0.4097182E-002  0.2013635E+03  0.7546771E-02  0.1148704E+00
         21   -1    0    0  501  502  0.00000000000E+00  0.00000000000E+00  0.21892891557E+02  0.21892891557E+02  0.00000000000E+00 0.  1.
         21   -1    0    0  502  503 -0.00000000000E+00 -0.00000000000E+00 -0.20758228194E+04  0.20758228194E+04  0.00000000000E+00 0. -1.
         -6    2    1    2    0  503 -0.29274799699E+02  0.98715790486E+02 -0.13762263617E+04  0.13908796711E+04  0.17304750724E+03 0.  0.
        -24    2    3    3    0    0 -0.42748093625E+02 -0.74112059778E+01 -0.52620229588E+03  0.53413731109E+03  0.80817605927E+02 0.  0.
          6    2    1    2  501    0  0.29274799699E+02 -0.98715790486E+02 -0.67770356613E+03  0.70683603981E+03  0.17243329851E+03 0.  0.
         24    2    5    5    0    0 -0.28032006963E+02 -0.13251249941E+01 -0.24027215074E+03  0.25502043031E+03  0.80728954428E+02 0.  0.
          5    1    5    5  501    0  0.57306806663E+02 -0.97390665491E+02 -0.43743141539E+03  0.45181560950E+03  0.47000000000E+01 0. -1.
        -15    1    6    6    0    0 -0.14461251367E+02 -0.35294905046E+02 -0.60334469231E+02  0.71402128958E+02  0.17770000000E+01 0.  1.
         16    1    6    6    0    0 -0.13570755596E+02  0.33969780052E+02 -0.17993768151E+03  0.18361830135E+03  0.00000000000E+00 0. -1.
         -5    1    3    3    0  503  0.13473293926E+02  0.10612699646E+03 -0.85002406580E+03  0.85674236003E+03  0.47000000000E+01 0.  1.
         15    1    4    4    0    0  0.88977988115E+01  0.11080060989E+02 -0.33274038040E+03  0.33304843049E+03  0.17770000000E+01 0. -1.
        -16    1    4    4    0    0 -0.51645892436E+02 -0.18491266967E+02 -0.19346191548E+03  0.20108888060E+03  0.00000000000E+00 0.  1.
<mgrwt>
<rscale>  2 0.20123148E+03</rscale>
<asrwt>0</asrwt>
<pdfrwt beam="1">  1       21 0.33681370E-02 0.20136350E+03</pdfrwt>
<pdfrwt beam="2">  1       21 0.31935737E+00 0.20136350E+03</pdfrwt>
<totfact> 0.13656663E+04</totfact>
</mgrwt>
</event>
<event>
12    2  0.4097182E-002  0.6351419E+03  0.7546771E-02  0.9835848E-01
         21   -1    0    0  501  502  0.00000000000E+00  0.00000000000E+00  0.32225693915E+03  0.32225693915E+03  0.00000000000E+00 0.  1.
         21   -1    0    0  502  503 -0.00000000000E+00 -0.00000000000E+00 -0.14542993137E+04  0.14542993137E+04  0.00000000000E+00 0. -1.
         -6    2    1    2    0  503  0.59776154074E+03  0.12710424302E+03 -0.90069087138E+03  0.11021112615E+04  0.17300531414E+03 0.  0.
        -24    2    3    3    0    0  0.59728664769E+03  0.11532728688E+03 -0.90017208680E+03  0.10894116018E+04  0.80350044380E+02 0.  0.
          6    2    1    2  501    0 -0.59776154074E+03 -0.12710424302E+03 -0.23135150315E+03  0.67444499134E+03  0.16696760211E+03 0.  0.
         24    2    5    5    0    0 -0.18134294232E+03 -0.15212075712E+02 -0.42670134241E+02  0.20375713810E+03  0.81114493118E+02 0.  0.
          5    1    5    5  501    0 -0.41641859842E+03 -0.11189216730E+03 -0.18868136891E+03  0.47068785324E+03  0.47000000000E+01 0. -1.
        -15    1    6    6    0    0 -0.59760094533E+01 -0.63261224074E+00  0.16861295882E+02  0.17988160413E+02  0.17770000000E+01 0.  1.
         16    1    6    6    0    0 -0.17536693287E+03 -0.14579463471E+02 -0.59531430123E+02  0.18576897769E+03  0.00000000000E+00 0. -1.
         -5    1    3    3    0  503  0.47489304892E+00  0.11776956133E+02 -0.51878458172E+00  0.12699659704E+02  0.47000000000E+01 0.  1.
         15    1    4    4    0    0  0.88854612284E+02 -0.10250618958E+02 -0.14618665965E+03  0.17138819826E+03  0.17770000000E+01 0. -1.
        -16    1    4    4    0    0  0.50843203541E+03  0.12557790584E+03 -0.75398542715E+03  0.91802340352E+03  0.00000000000E+00 0.  1.
<mgrwt>
<rscale>  2 0.63473699E+03</rscale>
<asrwt>0</asrwt>
<pdfrwt beam="1">  1       21 0.49577991E-01 0.63514186E+03</pdfrwt>
<pdfrwt beam="2">  1       21 0.22373835E+00 0.63514186E+03</pdfrwt>
<totfact> 0.27610589E+02</totfact>
</mgrwt>
</event>
<event>
12    2  0.4097182E-002  0.1764590E+03  0.7546771E-02  0.1171788E+00
         21   -1    0    0  501  502  0.00000000000E+00  0.00000000000E+00  0.60715636328E+03  0.60715636328E+03  0.00000000000E+00 0.  1.
         21   -1    0    0  502  503 -0.00000000000E+00 -0.00000000000E+00 -0.52989929832E+02  0.52989929832E+02  0.00000000000E+00 0.  1.
         -6    2    1    2    0  503 -0.74061266169E+01  0.25574743789E+02  0.20675529164E+03  0.27048965449E+03  0.17236004274E+03 0.  0.
        -24    2    3    3    0    0  0.62835325542E+02  0.68953341557E+01  0.11201156432E+03  0.15098548799E+03  0.79083520858E+02 0.  0.
          6    2    1    2  501    0  0.74061266169E+01 -0.25574743789E+02  0.34741114180E+03  0.38965663862E+03  0.17443874667E+03 0.  0.
         24    2    5    5    0    0  0.35128796035E+00  0.31904076892E+02  0.29292703933E+03  0.31000619607E+03  0.96330668573E+02 0.  0.
          5    1    5    5  501    0  0.70548386565E+01 -0.57478820682E+02  0.54484102475E+02  0.79650442547E+02  0.47000000000E+01 0. -1.
        -15    1    6    6    0    0  0.28275955530E+02  0.50335507634E+02  0.11206242888E+03  0.12607275156E+03  0.17770000000E+01 0.  1.
         16    1    6    6    0    0 -0.27924667569E+02 -0.18431430742E+02  0.18086461045E+03  0.18393344452E+03  0.00000000000E+00 0. -1.
         -5    1    3    3    0  503 -0.70241452159E+02  0.18679409633E+02  0.94743727323E+02  0.11950416651E+03  0.47000000000E+01 0.  1.
         15    1    4    4    0    0  0.48001956833E+02  0.27797406943E+02  0.11239702208E+03  0.12535203227E+03  0.17770000000E+01 0. -1.
        -16    1    4    4    0    0  0.14833368709E+02 -0.20902072787E+02 -0.38545776306E+00  0.25633455712E+02  0.00000000000E+00 0.  1.
<mgrwt>
<rscale>  2 0.17594313E+03</rscale>
<asrwt>0</asrwt>
<pdfrwt beam="1">  1       21 0.93408666E-01 0.17645905E+03</pdfrwt>
<pdfrwt beam="2">  1       21 0.81522973E-02 0.17645905E+03</pdfrwt>
<totfact> 0.11261679E+05</totfact>
</mgrwt>
</event>
<event>
12    2  0.4097182E-002  0.2973839E+03  0.7546771E-02  0.1086584E+00
         21   -1    0    0  503  502  0.00000000000E+00  0.00000000000E+00  0.29337255415E+03  0.29337255415E+03  0.00000000000E+00 0. -1.
         21   -1    0    0  501  503 -0.00000000000E+00 -0.00000000000E+00 -0.35912223417E+03  0.35912223417E+03  0.00000000000E+00 0.  1.
          6    2    1    2  501    0 -0.23888901877E+03  0.34405473257E+02 -0.16386205348E+03  0.33934435016E+03  0.17335546007E+03 0.  0.
         24    2    3    3    0    0 -0.11399679273E+03 -0.49900855690E+02 -0.80731451321E+02  0.16718624771E+03  0.77125287927E+02 0.  0.
         -6    2    1    2    0  502  0.23888901877E+03 -0.34405473257E+02  0.98112373465E+02  0.31315043816E+03  0.17373963053E+03 0.  0.
        -24    2    5    5    0    0  0.73318291165E+02 -0.65057275238E+02  0.23415458976E+01  0.11937907749E+03  0.68101838628E+02 0.  0.
          5    1    3    3  501    0 -0.12489222603E+03  0.84306328947E+02 -0.83130602162E+02  0.17215810245E+03  0.47000000000E+01 0. -1.
        -15    1    4    4    0    0 -0.88980342585E+02 -0.94084235945E+01 -0.79292142726E+02  0.11956764373E+03  0.17770000000E+01 0.  1.
         16    1    4    4    0    0 -0.25016450148E+02 -0.40492432096E+02 -0.14393085950E+01  0.47618603972E+02  0.00000000000E+00 0. -1.
         -5    1    5    5    0  502  0.16557072760E+03  0.30651801981E+02  0.95770827568E+02  0.19377136067E+03  0.47000000000E+01 0.  1.
         15    1    6    6    0    0  0.41178883777E+02 -0.49368097820E+02  0.32989019214E+02  0.72279614478E+02  0.17770000000E+01 0. -1.
        -16    1    6    6    0    0  0.32139407388E+02 -0.15689177418E+02 -0.30647473316E+02  0.47099463012E+02  0.00000000000E+00 0.  1.
<mgrwt>
<rscale>  2 0.29732777E+03</rscale>
<asrwt>0</asrwt>
<pdfrwt beam="1">  1       21 0.45134239E-01 0.29738386E+03</pdfrwt>
<pdfrwt beam="2">  1       21 0.55249574E-01 0.29738386E+03</pdfrwt>
<totfact> 0.13761014E+04</totfact>
</mgrwt>
</event>
<event>
12    2  0.4097182E-002  0.2250031E+03  0.7546771E-02  0.1130314E+00
         21   -1    0    0  501  502  0.00000000000E+00  0.00000000000E+00  0.13037557854E+03  0.13037557854E+03  0.00000000000E+00 0.  1.
         21   -1    0    0  502  503 -0.00000000000E+00 -0.00000000000E+00 -0.89017386768E+03  0.89017386768E+03  0.00000000000E+00 0. -1.
         -6    2    1    2    0  503 -0.12798355166E+03 -0.62941046706E+02 -0.76364429353E+03  0.79610238084E+03  0.17402594313E+03 0.  0.
        -24    2    3    3    0    0 -0.14194708067E+03 -0.20223699219E+02 -0.44909911567E+03  0.47832807283E+03  0.80930574195E+02 0.  0.
          6    2    1    2  501    0  0.12798355166E+03  0.62941046706E+02  0.38460043904E+01  0.22444706538E+03  0.17326375429E+03 0.  0.
         24    2    5    5    0    0  0.15560258081E+03  0.69046072315E+02 -0.17459511766E+02  0.18872456368E+03  0.79577654718E+02 0.  0.
          5    1    5    5  501    0 -0.27619029146E+02 -0.61050256090E+01  0.21305516156E+02  0.35722501695E+02  0.47000000000E+01 0. -1.
        -15    1    6    6    0    0  0.66801723814E+02 -0.55715507487E+01  0.14090167337E+02  0.68521551551E+02  0.17770000000E+01 0.  1.
         16    1    6    6    0    0  0.88800856993E+02  0.74617623064E+02 -0.31549679103E+02  0.12020301213E+03  0.00000000000E+00 0. -1.
         -5    1    3    3    0  503  0.13963529006E+02 -0.42717347487E+02 -0.31454517785E+03  0.31777430800E+03  0.47000000000E+01 0.  1.
         15    1    4    4    0    0 -0.74872792239E+02 -0.27300374757E+02 -0.13255164774E+03  0.15467495766E+03  0.17770000000E+01 0. -1.
        -16    1    4    4    0    0 -0.67074288429E+02  0.70766755379E+01 -0.31654746793E+03  0.32365311517E+03  0.00000000000E+00 0.  1.
<mgrwt>
<rscale>  2 0.22485571E+03</rscale>
<asrwt>0</asrwt>
<pdfrwt beam="1">  1       21 0.20057782E-01 0.22500310E+03</pdfrwt>
<pdfrwt beam="2">  1       21 0.13694982E+00 0.22500310E+03</pdfrwt>
<totfact> 0.84933298E+03</totfact>
</mgrwt>
</event>
<event>
12    2  0.4097182E-002  0.2168117E+03  0.7546771E-02  0.1136340E+00
         21   -1    0    0  503  502  0.00000000000E+00  0.00000000000E+00  0.34567680045E+03  0.34567680045E+03  0.00000000000E+00 0.  1.
         21   -1    0    0  501  503 -0.00000000000E+00 -0.00000000000E+00 -0.14170913758E+03  0.14170913758E+03  0.00000000000E+00 0.  1.
          6    2    1    2  501    0  0.78998820320E+02  0.10416335462E+03  0.52138936197E+02  0.22269884546E+03  0.17258473004E+03 0.  0.
         24    2    3    3    0    0  0.26995141464E+02  0.11645303021E+03  0.77062438689E+02  0.16354912257E+03  0.80744350459E+02 0.  0.
         -6    2    1    2    0  502 -0.78998820320E+02 -0.10416335462E+03  0.15182872668E+03  0.26468709258E+03  0.17296380164E+03 0.  0.
        -24    2    5    5    0    0 -0.10932989393E+03 -0.54055913984E+02  0.14572248559E+03  0.20560997507E+03  0.78519752275E+02 0.  0.
          5    1    3    3  501    0  0.52003678857E+02 -0.12289675590E+02 -0.24923502492E+02  0.59149722883E+02  0.47000000000E+01 0. -1.
        -15    1    4    4    0    0 -0.36707055184E+01  0.83374311067E+02  0.11929297522E+02  0.84322094929E+02  0.17770000000E+01 0.  1.
         16    1    4    4    0    0  0.30665846982E+02  0.33078719139E+02  0.65133141167E+02  0.79227027644E+02  0.00000000000E+00 0. -1.
         -5    1    5    5    0  502  0.30331073613E+02 -0.50107440631E+02  0.61062410899E+01  0.59077117511E+02  0.47000000000E+01 0.  1.
         15    1    6    6    0    0 -0.24352337810E+02  0.16095379997E+02  0.10267363092E+02  0.30994742908E+02  0.17770000000E+01 0. -1.
        -16    1    6    6    0    0 -0.84977556123E+02 -0.70151293982E+02  0.13545512249E+03  0.17461523216E+03  0.00000000000E+00 0.  1.
<mgrwt>
<rscale>  2 0.21673605E+03</rscale>
<asrwt>0</asrwt>
<pdfrwt beam="1">  1       21 0.53181046E-01 0.21681166E+03</pdfrwt>
<pdfrwt beam="2">  1       21 0.21801406E-01 0.21681166E+03</pdfrwt>
<totfact> 0.65044510E+04</totfact>
</mgrwt>
</event>
<event>
12    2  0.4097182E-002  0.2667333E+03  0.7546771E-02  0.1103592E+00
         21   -1    0    0  503  502  0.00000000000E+00  0.00000000000E+00  0.50305651445E+03  0.50305651445E+03  0.00000000000E+00 0. -1.
         21   -1    0    0  501  503 -0.00000000000E+00 -0.00000000000E+00 -0.71609353021E+03  0.71609353021E+03  0.00000000000E+00 0.  1.
          6    2    1    2  501    0 -0.15371117058E+03 -0.12842732852E+03 -0.65343867030E+03  0.70578237460E+03  0.17614187968E+03 0.  0.
         24    2    3    3    0    0 -0.50842410403E+02 -0.36530544000E+02 -0.43670869185E+03  0.44883690493E+03  0.82587252932E+02 0.  0.
         -6    2    1    2    0  502  0.15371117058E+03  0.12842732852E+03  0.44040165454E+03  0.51336767006E+03  0.17167423997E+03 0.  0.
        -24    2    5    5    0    0  0.13406343028E+03  0.49179923871E+02  0.37332212438E+03  0.40759461958E+03  0.79826669122E+02 0.  0.
          5    1    3    3  501    0 -0.10286876018E+03 -0.91896784519E+02 -0.21672997845E+03  0.25694546967E+03  0.47000000000E+01 0. -1.
        -15    1    4    4    0    0 -0.61740112554E+02 -0.41396804066E+01 -0.35356921389E+03  0.35894752428E+03  0.17770000000E+01 0.  1.
         16    1    4    4    0    0  0.10897702151E+02 -0.32390863594E+02 -0.83139477968E+02  0.89889380648E+02  0.00000000000E+00 0. -1.
         -5    1    5    5    0  502  0.19647740298E+02  0.79247404648E+02  0.67079530161E+02  0.10577305048E+03  0.47000000000E+01 0.  1.
         15    1    6    6    0    0  0.11112039261E+03  0.52290987502E+02  0.21516977401E+03  0.24775649013E+03  0.17770000000E+01 0. -1.
        -16    1    6    6    0    0  0.22943037670E+02 -0.31110636313E+01  0.15815235037E+03  0.15983812944E+03  0.00000000000E+00 0.  1.
<mgrwt>
<rscale>  2 0.26599805E+03</rscale>
<asrwt>0</asrwt>
<pdfrwt beam="1">  1       21 0.77393310E-01 0.26673332E+03</pdfrwt>
<pdfrwt beam="2">  1       21 0.11016823E+00 0.26673332E+03</pdfrwt>
<totfact> 0.90333927E+02</totfact>
</mgrwt>
</event>
<event>
12    2  0.4097182E-002  0.3197407E+03  0.7546771E-02  0.1075826E+00
         21   -1    0    0  501  502  0.00000000000E+00  0.00000000000E+00  0.80834066706E+02  0.80834066706E+02  0.00000000000E+00 0.  1.
         21   -1    0    0  502  503 -0.00000000000E+00 -0.00000000000E+00 -0.12791595969E+04  0.12791595969E+04  0.00000000000E+00 0. -1.
         -6    2    1    2    0  503  0.25781867900E+03 -0.74935258960E+02 -0.52172754189E+03  0.61164952039E+03  0.17271289340E+03 0.  0.
        -24    2    3    3    0    0  0.21251547515E+03 -0.14502714312E+02 -0.46343490096E+03  0.51612677588E+03  0.79004971064E+02 0.  0.
          6    2    1    2  501    0 -0.25781867900E+03  0.74935258960E+02 -0.67659798826E+03  0.74834414318E+03  0.17363281554E+03 0.  0.
         24    2    5    5    0    0 -0.66409975467E+02  0.71741524249E+02 -0.23477169317E+03  0.26680488541E+03  0.80684371632E+02 0.  0.
          5    1    5    5  501    0 -0.19140870353E+03  0.31937347109E+01 -0.44182629510E+03  0.48153925776E+03  0.47000000000E+01 0. -1.
        -15    1    6    6    0    0 -0.52444231526E+02  0.36164002379E+00 -0.78342031121E+02  0.94292946571E+02  0.17770000000E+01 0.  1.
         16    1    6    6    0    0 -0.13965743941E+02  0.71379884225E+02 -0.15642966204E+03  0.17251193884E+03  0.00000000000E+00 0. -1.
         -5    1    3    3    0  503  0.45303203852E+02 -0.60432544648E+02 -0.58292640933E+02  0.95522744511E+02  0.47000000000E+01 0.  1.
         15    1    4    4    0    0  0.10687088678E+03 -0.22759159514E+02 -0.15236805253E+03  0.18750612508E+03  0.17770000000E+01 0. -1.
        -16    1    4    4    0    0  0.10564458837E+03  0.82564452025E+01 -0.31106684843E+03  0.32862065079E+03  0.00000000000E+00 0.  1.
<mgrwt>
<rscale>  2 0.31961598E+03</rscale>
<asrwt>0</asrwt>
<pdfrwt beam="1">  1       21 0.12436011E-01 0.31974071E+03</pdfrwt>
<pdfrwt beam="2">  1       21 0.19679378E+00 0.31974071E+03</pdfrwt>
<totfact> 0.71063837E+03</totfact>
</mgrwt>
</event>
<event>
12    2  0.4097182E-002  0.2501566E+03  0.7546771E-02  0.1113274E+00
         21   -1    0    0  503  502  0.00000000000E+00  0.00000000000E+00  0.45939735454E+03  0.45939735454E+03  0.00000000000E+00 0. -1.
         21   -1    0    0  501  503 -0.00000000000E+00 -0.00000000000E+00 -0.18823507606E+03  0.18823507606E+03  0.00000000000E+00 0. -1.
          6    2    1    2  501    0 -0.10335223045E+03  0.14763139030E+03 -0.34940813809E+02  0.25258498755E+03  0.17349813984E+03 0.  0.
         24    2    3    3    0    0 -0.11570425050E+01  0.65409733132E+02 -0.59892921276E+02  0.11898500622E+03  0.79312658197E+02 0.  0.
         -6    2    1    2    0  502  0.10335223045E+03 -0.14763139030E+03  0.30610309230E+03  0.39504744305E+03  0.17287761049E+03 0.  0.
        -24    2    5    5    0    0  0.80514537419E+02 -0.11253842900E+03  0.31372672386E+03  0.35223055487E+03  0.80587950593E+02 0.  0.
          5    1    3    3  501    0 -0.10219518794E+03  0.82221657167E+02  0.24952107467E+02  0.13359998133E+03  0.47000000000E+01 0. -1.
        -15    1    4    4    0    0  0.21678249416E+02  0.72288073636E+02 -0.31220959503E+02  0.81690991725E+02  0.17770000000E+01 0.  1.
         16    1    4    4    0    0 -0.22835291921E+02 -0.68783405035E+01 -0.28671961774E+02  0.37294014495E+02  0.00000000000E+00 0. -1.
         -5    1    5    5    0  502  0.22837693027E+02 -0.35092961296E+02 -0.76236315642E+01  0.42816888181E+02  0.47000000000E+01 0.  1.
         15    1    6    6    0    0  0.28159850037E+02  0.69908992561E+01  0.69346340690E+02  0.75192569597E+02  0.17770000000E+01 0. -1.
        -16    1    6    6    0    0  0.52354687382E+02 -0.11952932826E+03  0.24438038317E+03  0.27703798527E+03  0.00000000000E+00 0.  1.
<mgrwt>
<rscale>  2 0.25004902E+03</rscale>
<asrwt>0</asrwt>
<pdfrwt beam="1">  1       21 0.70676516E-01 0.25015658E+03</pdfrwt>
<pdfrwt beam="2">  1       21 0.28959243E-01 0.25015658E+03</pdfrwt>
<totfact> 0.20061589E+04</totfact>
</mgrwt>
</event>
<event>
12    2  0.4097182E-002  0.2104093E+03  0.7546771E-02  0.1142662E+00
         21   -1    0    0  501  502  0.00000000000E+00  0.00000000000E+00  0.36226100001E+03  0.36226100001E+03  0.00000000000E+00 0.  1.
         21   -1    0    0  502  503 -0.00000000000E+00 -0.00000000000E+00 -0.12003750811E+03  0.12003750811E+03  0.00000000000E+00 0. -1.
         -6    2    1    2    0  503  0.36115987967E+02  0.99669721132E+02  0.88797378376E+02  0.22189179783E+03  0.17352976010E+03 0.  0.
        -24    2    3    3    0    0  0.39094981267E+02  0.33351037059E+01  0.88376097156E+02  0.12539568188E+03  0.79838599739E+02 0.  0.
          6    2    1    2  501    0 -0.36115987967E+02 -0.99669721132E+02  0.15342611352E+03  0.26040671029E+03  0.18175165627E+03 0.  0.
         24    2    5    5    0    0 -0.51243477685E+02 -0.49314802807E+01  0.13198627038E+03  0.16198957713E+03  0.78549564152E+02 0.  0.
          5    1    5    5  501    0  0.15127489718E+02 -0.94738240851E+02  0.21439843144E+02  0.98417133157E+02  0.47000000000E+01 0. -1.
        -15    1    6    6    0    0 -0.55041868942E+02 -0.32792247180E+02  0.10499841020E+03  0.12301529452E+03  0.17770000000E+01 0.  1.
         16    1    6    6    0    0  0.37983912562E+01  0.27860766900E+02  0.26987860174E+02  0.38974282612E+02  0.00000000000E+00 0. -1.
         -5    1    3    3    0  503 -0.29789932999E+01  0.96334617426E+02  0.42128122000E+00  0.96496115951E+02  0.47000000000E+01 0.  1.
         15    1    4    4    0    0  0.49352912743E+02 -0.57685033352E+01  0.16746839980E+02  0.52465226629E+02  0.17770000000E+01 0. -1.
        -16    1    4    4    0    0 -0.10257931476E+02  0.91036070410E+01  0.71629257176E+02  0.72930455250E+02  0.00000000000E+00 0.  1.
<mgrwt>
<rscale>  2 0.20862170E+03</rscale>
<asrwt>0</asrwt>
<pdfrwt beam="1">  1       21 0.55732461E-01 0.21040932E+03</pdfrwt>
<pdfrwt beam="2">  1       21 0.18467309E-01 0.21040932E+03</pdfrwt>
<totfact> 0.80592410E+04</totfact>
</mgrwt>
</event>
<event>
12    2  0.4097182E-002  0.1927599E+03  0.7546771E-02  0.1156694E+00
         21   -1    0    0  501  502  0.00000000000E+00  0.00000000000E+00  0.14732485840E+03  0.14732485840E+03  0.00000000000E+00 0.  1.
         21   -1    0    0  502  503 -0.00000000000E+00 -0.00000000000E+00 -0.33536354274E+03  0.33536354274E+03  0.00000000000E+00 0.  1.
         -6    2    1    2    0  503  0.62001446975E+02 -0.44366733590E+02  0.28499818167E+02  0.19485542723E+03  0.17704183519E+03 0.  0.
        -24    2    3    3    0    0 -0.27051932108E+02 -0.37968884271E+02  0.42369651647E+02  0.10437946864E+03  0.83225253915E+02 0.  0.
          6    2    1    2  501    0 -0.62001446975E+02  0.44366733590E+02 -0.21653850251E+03  0.28783297390E+03  0.17362693144E+03 0.  0.
         24    2    5    5    0    0  0.19985496627E+02  0.82829177630E+01 -0.16745139607E+03  0.18558066486E+03  0.77020687623E+02 0.  0.
          5    1    5    5  501    0 -0.81986943602E+02  0.36083815827E+02 -0.49087106437E+02  0.10225230904E+03  0.47000000000E+01 0. -1.
        -15    1    6    6    0    0 -0.10752025212E+02 -0.57311226101E+00 -0.14745211693E+03  0.14785539902E+03  0.17770000000E+01 0.  1.
         16    1    6    6    0    0  0.30737521839E+02  0.88560300240E+01 -0.19999279146E+02  0.37725265843E+02  0.00000000000E+00 0. -1.
         -5    1    3    3    0  503  0.89053379083E+02 -0.63978493192E+01 -0.13869833479E+02  0.90475958590E+02  0.47000000000E+01 0.  1.
         15    1    4    4    0    0  0.18872262460E+02 -0.16307266398E+02 -0.13882163830E+02  0.28600024988E+02  0.17770000000E+01 0. -1.
        -16    1    4    4    0    0 -0.45924194568E+02 -0.21661617873E+02  0.56251815477E+02  0.75779443651E+02  0.00000000000E+00 0.  1.
<mgrwt>
<rscale>  2 0.19197222E+03</rscale>
<asrwt>0</asrwt>
<pdfrwt beam="1">  1       21 0.22665363E-01 0.19275995E+03</pdfrwt>
<pdfrwt beam="2">  1       21 0.51594391E-01 0.19275995E+03</pdfrwt>
<totfact> 0.65116553E+04</totfact>
</mgrwt>
</event>
<event>
12    2  0.4097182E-002  0.3753375E+03  0.7546771E-02  0.1052844E+00
         21   -1    0    0  501  502  0.00000000000E+00  0.00000000000E+00  0.28985580580E+03  0.28985580580E+03  0.00000000000E+00 0.  1.
         21   -1    0    0  502  503 -0.00000000000E+00 -0.00000000000E+00 -0.57782206751E+03  0.57782206751E+03  0.00000000000E+00 0. -1.
         -6    2    1    2    0  503  0.24177960540E+03 -0.22464746417E+03  0.30867541998E+02  0.37660463142E+03  0.17875788796E+03 0.  0.
        -24    2    3    3    0    0  0.27485924994E+02 -0.47368914618E+02 -0.62545264358E+01  0.95981033765E+02  0.78574484388E+02 0.  0.
          6    2    1    2  501    0 -0.24177960540E+03  0.22464746417E+03 -0.31883380371E+03  0.49107324190E+03  0.17485443596E+03 0.  0.
         24    2    5    5    0    0 -0.18602497398E+03  0.92919846859E+02 -0.14070641487E+03  0.26257334969E+03  0.76857529851E+02 0.  0.
          5    1    5    5  501    0 -0.55754631419E+02  0.13172761731E+03 -0.17812738884E+03  0.22849989221E+03  0.47000000000E+01 0. -1.
        -15    1    6    6    0    0 -0.71961325046E+02  0.40301173465E+01 -0.74019193955E+02  0.10332798726E+03  0.17770000000E+01 0.  1.
         16    1    6    6    0    0 -0.11406364894E+03  0.88889729513E+02 -0.66687220916E+02  0.15924536243E+03  0.00000000000E+00 0. -1.
         -5    1    3    3    0  503  0.21429368041E+03 -0.17727854955E+03  0.37122068434E+02  0.28062359765E+03  0.47000000000E+01 0.  1.
         15    1    4    4    0    0  0.10183516462E+01 -0.63942023541E+02 -0.91201780055E+01  0.64621627884E+02  0.17770000000E+01 0. -1.
        -16    1    4    4    0    0  0.26467573348E+02  0.16573108923E+02  0.28656515697E+01  0.31359405881E+02  0.00000000000E+00 0.  1.
<mgrwt>
<rscale>  2 0.37487583E+03</rscale>
<asrwt>0</asrwt>
<pdfrwt beam="1">  1       21 0.44593201E-01 0.37533751E+03</pdfrwt>
<pdfrwt beam="2">  1       21 0.88895702E-01 0.37533751E+03</pdfrwt>
<totfact> 0.47077479E+03</totfact>
</mgrwt>
</event>
<event>
12    2  0.4097182E-002  0.2180677E+03  0.7546771E-02  0.1138108E+00
         21   -1    0    0  503  502  0.00000000000E+00  0.00000000000E+00  0.50881792955E+02  0.50881792955E+02  0.00000000000E+00 0. -1.
         21   -1    0    0  501  503 -0.00000000000E+00 -0.00000000000E+00 -0.10612300735E+04  0.10612300735E+04  0.00000000000E+00 0.  1.
          6    2    1    2  501    0 -0.97565923791E+02 -0.53262623559E+02 -0.72417156471E+03  0.75231939228E+03  0.17089176784E+03 0.  0.
         24    2    3    3    0    0 -0.10983453387E+03 -0.26856934200E+00 -0.40059168340E+03  0.42416558968E+03  0.85901418470E+02 0.  0.
         -6    2    1    2    0  502  0.97565923791E+02  0.53262623559E+02 -0.28617671584E+03  0.35979247417E+03  0.18760995505E+03 0.  0.
        -24    2    5    5    0    0 -0.17475510048E+02  0.19046123121E+02 -0.58861456027E+02  0.10269401493E+03  0.80082716239E+02 0.  0.
          5    1    3    3  501    0  0.12268610083E+02 -0.52994054217E+02 -0.32357988131E+03  0.32815380260E+03  0.47000000000E+01 0. -1.
        -15    1    4    4    0    0 -0.60058911045E+02 -0.19373526306E+02 -0.32843942682E+03  0.33445182185E+03  0.17770000000E+01 0.  1.
         16    1    4    4    0    0 -0.49775622830E+02  0.19104956964E+02 -0.72152256580E+02  0.89713767830E+02  0.00000000000E+00 0. -1.
         -5    1    5    5    0  502  0.11504143384E+03  0.34216500438E+02 -0.22731525981E+03  0.25709845924E+03  0.47000000000E+01 0.  1.
         15    1    6    6    0    0  0.31422149977E+02  0.15599652298E+02 -0.23982647446E+02  0.42532643564E+02  0.17770000000E+01 0. -1.
        -16    1    6    6    0    0 -0.48897660025E+02  0.34464708236E+01 -0.34878808581E+02  0.60161371370E+02  0.00000000000E+00 0.  1.
<mgrwt>
<rscale>  2 0.21442624E+03</rscale>
<asrwt>0</asrwt>
<pdfrwt beam="1">  1       21 0.78279685E-02 0.21806768E+03</pdfrwt>
<pdfrwt beam="2">  1       21 0.16326616E+00 0.21806768E+03</pdfrwt>
<totfact> 0.29225318E+04</totfact>
</mgrwt>
</event>
<event>
12    2  0.4097182E-002  0.1834357E+03  0.7546771E-02  0.1164719E+00
         21   -1    0    0  501  502  0.00000000000E+00  0.00000000000E+00  0.56314796634E+02  0.56314796634E+02  0.00000000000E+00 0.  1.
         21   -1    0    0  502  503 -0.00000000000E+00 -0.00000000000E+00 -0.59795801909E+03  0.59795801909E+03  0.00000000000E+00 0.  1.
         -6    2    1    2    0  503 -0.54240301171E+02 -0.87523751461E+01 -0.24752006455E+03  0.30808252616E+03  0.17501441721E+03 0.  0.
        -24    2    3    3    0    0  0.34751325729E+02  0.14274189886E+02 -0.15032580822E+03  0.17422235352E+03  0.79650315211E+02 0.  0.
          6    2    1    2  501    0  0.54240301171E+02  0.87523751461E+01 -0.29412315791E+03  0.34619028957E+03  0.17412831541E+03 0.  0.
         24    2    5    5    0    0 -0.88508890912E+01 -0.51837610506E+02 -0.15865678307E+03  0.18486802402E+03  0.78985665713E+02 0.  0.
          5    1    5    5  501    0  0.63091190262E+02  0.60589985652E+02 -0.13546637484E+03  0.16132226555E+03  0.47000000000E+01 0. -1.
        -15    1    6    6    0    0  0.12136281410E+02 -0.25206015765E+02 -0.14601393084E+03  0.14868038971E+03  0.17770000000E+01 0.  1.
         16    1    6    6    0    0 -0.20987170501E+02 -0.26631594741E+02 -0.12642852239E+02  0.36187634308E+02  0.00000000000E+00 0. -1.
         -5    1    3    3    0  503 -0.88991626900E+02 -0.23026565032E+02 -0.97194256325E+02  0.13386017264E+03  0.47000000000E+01 0.  1.
         15    1    4    4    0    0  0.32795841936E+02 -0.25406700893E+02 -0.11016510355E+03  0.11773094524E+03  0.17770000000E+01 0. -1.
        -16    1    4    4    0    0  0.19554837927E+01  0.39680890779E+02 -0.40160704671E+02  0.56491408281E+02  0.00000000000E+00 0.  1.
<mgrwt>
<rscale>  2 0.18322404E+03</rscale>
<asrwt>0</asrwt>
<pdfrwt beam="1">  1       21 0.86638154E-02 0.18343571E+03</pdfrwt>
<pdfrwt beam="2">  1       21 0.91993536E-01 0.18343571E+03</pdfrwt>
<totfact> 0.10464608E+05</totfact>
</mgrwt>
</event>
<event>
12    2  0.4097182E-002  0.2280658E+03  0.7546771E-02  0.1128621E+00
         21   -1    0    0  501  502  0.00000000000E+00  0.00000000000E+00  0.16354605335E+03  0.16354605335E+03  0.00000000000E+00 0. -1.
         21   -1    0    0  502  503 -0.00000000000E+00 -0.00000000000E+00 -0.34193284923E+03  0.34193284923E+03  0.00000000000E+00 0. -1.
         -6    2    1    2    0  503  0.74437976235E+02 -0.12479766006E+03 -0.16294687858E+03  0.28029571111E+03  0.17577978315E+03 0.  0.
        -24    2    3    3    0    0  0.56271137929E+02  0.19621331657E+01 -0.52544991326E+02  0.11115451003E+03  0.80150221809E+02 0.  0.
          6    2    1    2  501    0 -0.74437976235E+02  0.12479766006E+03 -0.15439917301E+02  0.22518319147E+03  0.17132895381E+03 0.  0.
         24    2    5    5    0    0 -0.37475271030E+01  0.46577172909E+02 -0.59934384548E+02  0.11065183409E+03  0.80425250640E+02 0.  0.
          5    1    5    5  501    0 -0.70690449132E+02  0.78220487151E+02  0.44494467247E+02  0.11453135738E+03  0.47000000000E+01 0. -1.
        -15    1    6    6    0    0 -0.14194269657E+02 -0.20269046871E+02 -0.21567346352E+02  0.32872780683E+02  0.17770000000E+01 0.  1.
         16    1    6    6    0    0  0.10446742555E+02  0.66846219779E+02 -0.38367038196E+02  0.77779053406E+02  0.00000000000E+00 0. -1.
         -5    1    3    3    0  503  0.18166838306E+02 -0.12675979323E+03 -0.11040188725E+03  0.16914120108E+03  0.47000000000E+01 0.  1.
         15    1    4    4    0    0  0.43606531401E+02 -0.35614597432E+02 -0.19735328212E+02  0.59687268656E+02  0.17770000000E+01 0. -1.
        -16    1    4    4    0    0  0.12664606528E+02  0.37576730597E+02 -0.32809663114E+02  0.51467241373E+02  0.00000000000E+00 0.  1.
<mgrwt>
<rscale>  2 0.22720782E+03</rscale>
<asrwt>0</asrwt>
<pdfrwt beam="1">  1       21 0.25160932E-01 0.22806578E+03</pdfrwt>
<pdfrwt beam="2">  1       21 0.52605053E-01 0.22806578E+03</pdfrwt>
<totfact> 0.50423635E+04</totfact>
</mgrwt>
</event>
<event>
12    2  0.4097182E-002  0.2997403E+03  0.7546771E-02  0.1085421E+00
         21   -1    0    0  503  502  0.00000000000E+00  0.00000000000E+00  0.26293704989E+03  0.26293704989E+03  0.00000000000E+00 0.  1.
         21   -1    0    0  501  503 -0.00000000000E+00 -0.00000000000E+00 -0.35009240654E+03  0.35009240654E+03  0.00000000000E+00 0. -1.
          6    2    1    2  501    0 -0.23441601817E+03  0.68960527917E+02  0.51575535569E+01  0.29978469918E+03  0.17360253892E+03 0.  0.
         24    2    3    3    0    0 -0.79724558449E+02  0.14790338408E+02  0.57344015098E+02  0.12771095363E+03  0.80293164581E+02 0.  0.
         -6    2    1    2    0  502  0.23441601817E+03 -0.68960527917E+02 -0.92312910206E+02  0.31324475725E+03  0.17289933652E+03 0.  0.
        -24    2    5    5    0    0  0.11555076883E+03 -0.92782483047E+02 -0.81705679380E+01  0.16560175264E+03  0.73461642783E+02 0.  0.
          5    1    3    3  501    0 -0.15469145972E+03  0.54170189510E+02 -0.52186461541E+02  0.17207374555E+03  0.47000000000E+01 0. -1.
        -15    1    4    4    0    0 -0.72819729998E+02  0.12530446446E+02  0.41549714300E+01  0.74028012817E+02  0.17770000000E+01 0.  1.
         16    1    4    4    0    0 -0.69048284517E+01  0.22598919620E+01  0.53189043668E+02  0.53682940809E+02  0.00000000000E+00 0. -1.
         -5    1    5    5    0  502  0.11886524933E+03  0.23821955129E+02 -0.84142342268E+02  0.14764300460E+03  0.47000000000E+01 0.  1.
         15    1    6    6    0    0  0.14238825350E+02  0.95296335473E+01 -0.12928528883E+02  0.21537470859E+02  0.17770000000E+01 0. -1.
        -16    1    6    6    0    0  0.10131194348E+03 -0.10231211659E+03  0.47579609455E+01  0.14406428179E+03  0.00000000000E+00 0.  1.
<mgrwt>
<rscale>  2 0.29963860E+03</rscale>
<asrwt>0</asrwt>
<pdfrwt beam="1">  1       21 0.40451854E-01 0.29974033E+03</pdfrwt>
<pdfrwt beam="2">  1       21 0.53860370E-01 0.29974033E+03</pdfrwt>
<totfact> 0.18191356E+04</totfact>
</mgrwt>
</event>
<event>
12    2  0.4097182E-002  0.1921805E+03  0.7546771E-02  0.1156833E+00
         21   -1    0    0  501  502  0.00000000000E+00  0.00000000000E+00  0.29251001658E+03  0.29251001658E+03  0.00000000000E+00 0.  1.
         21   -1    0    0  502  503 -0.00000000000E+00 -0.00000000000E+00 -0.12549609836E+03  0.12549609836E+03  0.00000000000E+00 0. -1.
         -6    2    1    2    0  503  0.55170261404E+02 -0.62004244040E+02  0.91859369220E+02  0.21300585037E+03  0.17333512211E+03 0.  0.
        -24    2    3    3    0    0 -0.26858334523E+02  0.57842821460E+01  0.29364210731E+02  0.89508037977E+02  0.79966267496E+02 0.  0.
          6    2    1    2  501    0 -0.55170261404E+02  0.62004244040E+02  0.75154549000E+02  0.20500026457E+03  0.17172250353E+03 0.  0.
         24    2    5    5    0    0 -0.24861295027E+02  0.11078619226E+03  0.61379300003E+02  0.14575366636E+03  0.67712985486E+02 0.  0.
          5    1    5    5  501    0 -0.30308966376E+02 -0.48781948219E+02  0.13775248997E+02  0.59246598212E+02  0.47000000000E+01 0. -1.
        -15    1    6    6    0    0  0.10837129691E+02  0.86984915499E+02  0.51653069483E+02  0.10175960014E+03  0.17770000000E+01 0.  1.
         16    1    6    6    0    0 -0.35698424718E+02  0.23801276759E+02  0.97262305201E+01  0.43994066223E+02  0.00000000000E+00 0. -1.
         -5    1    3    3    0  503  0.82028595927E+02 -0.67788526186E+02  0.62495158489E+02  0.12349781240E+03  0.47000000000E+01 0.  1.
         15    1    4    4    0    0  0.19123250865E+02  0.23303853605E+02 -0.34042634511E+01  0.30389390503E+02  0.17770000000E+01 0. -1.
        -16    1    4    4    0    0 -0.45981585388E+02 -0.17519571459E+02  0.32768474183E+02  0.59118647474E+02  0.00000000000E+00 0.  1.
<mgrwt>
<rscale>  2 0.19181617E+03</rscale>
<asrwt>0</asrwt>
<pdfrwt beam="1">  1       21 0.45001541E-01 0.19218051E+03</pdfrwt>
<pdfrwt beam="2">  1       21 0.19307092E-01 0.19218051E+03</pdfrwt>
<totfact> 0.11683473E+05</totfact>
</mgrwt>
</event>
<event>
12    2  0.4097182E-002  0.2291688E+03  0.7546771E-02  0.1127256E+00
         21   -1    0    0  503  502  0.00000000000E+00  0.00000000000E+00  0.40617474533E+03  0.40617474533E+03  0.00000000000E+00 0.  1.
         21   -1    0    0  501  503 -0.00000000000E+00 -0.00000000000E+00 -0.13968768682E+03  0.13968768682E+03  0.00000000000E+00 0. -1.
          6    2    1    2  501    0 -0.64812398455E+02 -0.13514187932E+03  0.58522669374E+02  0.23652325436E+03  0.17336196954E+03 0.  0.
         24    2    3    3    0    0 -0.10098059815E+03 -0.13522970818E+03  0.26791908737E+02  0.18817992438E+03  0.78801791787E+02 0.  0.
         -6    2    1    2    0  502  0.64812398455E+02  0.13514187932E+03  0.20796438913E+03  0.30933917779E+03  0.17314030504E+03 0.  0.
        -24    2    5    5    0    0 -0.22735257627E+02  0.10815415619E+03  0.11739720633E+03  0.18043055168E+03  0.80986829087E+02 0.  0.
          5    1    3    3  501    0  0.36168199695E+02  0.87828852991E-01  0.31730760637E+02  0.48343329981E+02  0.47000000000E+01 0. -1.
        -15    1    4    4    0    0  0.27623505361E+01  0.35348713809E-01  0.17126269547E+02  0.17438425033E+02  0.17770000000E+01 0.  1.
         16    1    4    4    0    0 -0.10374294869E+03 -0.13526505689E+03  0.96656391902E+01  0.17074149935E+03  0.00000000000E+00 0. -1.
         -5    1    5    5    0  502  0.87547656082E+02  0.26987723131E+02  0.90567182800E+02  0.12890862611E+03  0.47000000000E+01 0.  1.
         15    1    6    6    0    0  0.46486800644E+01  0.10638526304E+03  0.76293839052E+02  0.13100893872E+03  0.17770000000E+01 0. -1.
        -16    1    6    6    0    0 -0.27383937692E+02  0.17688931563E+01  0.41103367280E+02  0.49421612967E+02  0.00000000000E+00 0.  1.
<mgrwt>
<rscale>  2 0.22912690E+03</rscale>
<asrwt>0</asrwt>
<pdfrwt beam="1">  1       21 0.62488422E-01 0.22916882E+03</pdfrwt>
<pdfrwt beam="2">  1       21 0.21490413E-01 0.22916882E+03</pdfrwt>
<totfact> 0.47067884E+04</totfact>
</mgrwt>
</event>
<event>
12    2  0.4097182E-002  0.1855418E+03  0.7546771E-02  0.1162800E+00
         21   -1    0    0  503  502  0.00000000000E+00  0.00000000000E+00  0.12270146870E+03  0.12270146870E+03  0.00000000000E+00 0.  1.
         21   -1    0    0  501  503 -0.00000000000E+00 -0.00000000000E+00 -0.27935263360E+03  0.27935263360E+03  0.00000000000E+00 0.  1.
          6    2    1    2  501    0  0.65625866537E+02 -0.20231311254E+02 -0.86526674083E+02  0.20472576949E+03  0.17236506331E+03 0.  0.
         24    2    3    3    0    0  0.12605201373E+02  0.12072138526E+02 -0.11255691691E+03  0.13723971653E+03  0.76557511828E+02 0.  0.
         -6    2    1    2    0  502 -0.65625866537E+02  0.20231311254E+02 -0.70124490815E+02  0.19732833282E+03  0.17118693410E+03 0.  0.
        -24    2    5    5    0    0 -0.25018664713E+02  0.76926302566E+02 -0.55731854157E+02  0.12596654423E+03  0.78853922462E+02 0.  0.
          5    1    3    3  501    0  0.53020665164E+02 -0.32303449780E+02  0.26030242830E+02  0.67486052959E+02  0.47000000000E+01 0. -1.
        -15    1    4    4    0    0 -0.16970811936E+02 -0.21416987192E+02 -0.71486045766E+02  0.76551343989E+02  0.17770000000E+01 0.  1.
         16    1    4    4    0    0  0.29576013309E+02  0.33489125718E+02 -0.41070871147E+02  0.60688372539E+02  0.00000000000E+00 0. -1.
         -5    1    5    5    0  502 -0.40607201824E+02 -0.56694991312E+02 -0.14392636657E+02  0.71361788583E+02  0.47000000000E+01 0.  1.
         15    1    6    6    0    0 -0.34081308080E+02  0.16262580809E+02 -0.52301453910E+02  0.64533765620E+02  0.17770000000E+01 0. -1.
        -16    1    6    6    0    0  0.90626433670E+01  0.60663721756E+02 -0.34304002473E+01  0.61432778612E+02  0.00000000000E+00 0.  1.
<mgrwt>
<rscale>  2 0.18526775E+03</rscale>
<asrwt>0</asrwt>
<pdfrwt beam="1">  1       21 0.18877149E-01 0.18554184E+03</pdfrwt>
<pdfrwt beam="2">  1       21 0.42977328E-01 0.18554184E+03</pdfrwt>
<totfact> 0.13415934E+05</totfact>
</mgrwt>
</event>
<event>
12    2  0.4097182E-002  0.2261639E+03  0.7546771E-02  0.1129697E+00
         21   -1    0    0  503  502  0.00000000000E+00  0.00000000000E+00  0.21143660623E+03  0.21143660623E+03  0.00000000000E+00 0.  1.
         21   -1    0    0  501  503 -0.00000000000E+00 -0.00000000000E+00 -0.24456950093E+03  0.24456950093E+03  0.00000000000E+00 0.  1.
          6    2    1    2  501    0 -0.12489675130E+03  0.66094009297E+02 -0.47736462558E+02  0.22937118626E+03  0.17425485554E+03 0.  0.
         24    2    3    3    0    0 -0.10288175607E+03 -0.38057743234E+01  0.15702837906E+02  0.13232854301E+03  0.81640213914E+02 0.  0.
         -6    2    1    2    0  502  0.12489675130E+03 -0.66094009297E+02  0.14603567853E+02  0.22663492090E+03  0.17658569202E+03 0.  0.
        -24    2    5    5    0    0  0.12604425452E+03 -0.10590170118E+03  0.22471633497E+02  0.18576970888E+03  0.83084812186E+02 0.  0.
          5    1    3    3  501    0 -0.22014995236E+02  0.69899783620E+02 -0.63439300463E+02  0.97042643249E+02  0.47000000000E+01 0. -1.
        -15    1    4    4    0    0  0.10035272240E+02 -0.23250189064E+00  0.16449971337E+02  0.19352520044E+02  0.17770000000E+01 0.  1.
         16    1    4    4    0    0 -0.11291702831E+03 -0.35732724328E+01 -0.74713343134E+00  0.11297602297E+03  0.00000000000E+00 0. -1.
         -5    1    5    5    0  502 -0.11475032168E+01  0.39807691878E+02 -0.78680656432E+01  0.40865212018E+02  0.47000000000E+01 0.  1.
         15    1    6    6    0    0  0.23669086578E+01 -0.42451688412E+02 -0.84081970380E+01  0.43377455112E+02  0.17770000000E+01 0. -1.
        -16    1    6    6    0    0  0.12367734586E+03 -0.63450012763E+02  0.30879830535E+02  0.14239225377E+03  0.00000000000E+00 0.  1.
<mgrwt>
<rscale>  2 0.22570877E+03</rscale>
<asrwt>0</asrwt>
<pdfrwt beam="1">  1       21 0.32528709E-01 0.22616393E+03</pdfrwt>
<pdfrwt beam="2">  1       21 0.37626077E-01 0.22616393E+03</pdfrwt>
<totfact> 0.61040434E+04</totfact>
</mgrwt>
</event>
<event>
12    2  0.4097182E-002  0.1911532E+03  0.7546771E-02  0.1158546E+00
         21   -1    0    0  503  502  0.00000000000E+00  0.00000000000E+00  0.15259594691E+04  0.15259594691E+04  0.00000000000E+00 0. -1.
         21   -1    0    0  501  503 -0.00000000000E+00 -0.00000000000E+00 -0.23913364303E+02  0.23913364303E+02  0.00000000000E+00 0. -1.
          6    2    1    2  501    0  0.49783888067E+02 -0.44245750764E+02  0.62048673500E+03  0.64782711944E+03  0.17389671185E+03 0.  0.
         24    2    3    3    0    0  0.17777914946E+01 -0.28090625627E+01  0.53671463552E+03  0.54265374310E+03  0.79996459606E+02 0.  0.
         -6    2    1    2    0  502 -0.49783888067E+02  0.44245750764E+02  0.88155936981E+03  0.90204571398E+03  0.17917428845E+03 0.  0.
        -24    2    5    5    0    0  0.16591027182E+02 -0.28368108402E+02  0.30042952699E+03  0.31262872565E+03  0.79992547510E+02 0.  0.
          5    1    3    3  501    0  0.48006096573E+02 -0.41436688202E+02  0.83772099484E+02  0.10517337633E+03  0.47000000000E+01 0. -1.
        -15    1    4    4    0    0 -0.88594764359E+01 -0.40130077162E+02  0.29119648266E+03  0.29408750851E+03  0.17770000000E+01 0.  1.
         16    1    4    4    0    0  0.10637267930E+02  0.37321014600E+02  0.24551815286E+03  0.24856623460E+03  0.00000000000E+00 0. -1.
         -5    1    5    5    0  502 -0.66374915249E+02  0.72613859166E+02  0.58112984281E+03  0.58941698833E+03  0.47000000000E+01 0.  1.
         15    1    6    6    0    0 -0.40120994411E+01 -0.38181211553E+02  0.27795421245E+03  0.28059865253E+03  0.17770000000E+01 0. -1.
        -16    1    6    6    0    0  0.20603126623E+02  0.98131031505E+01  0.22475314544E+02  0.32030073118E+02  0.00000000000E+00 0.  1.
<mgrwt>
<rscale>  2 0.18990662E+03</rscale>
<asrwt>0</asrwt>
<pdfrwt beam="1">  1       21 0.23476292E+00 0.19115320E+03</pdfrwt>
<pdfrwt beam="2">  1       21 0.36789803E-02 0.19115320E+03</pdfrwt>
<totfact> 0.36945041E+04</totfact>
</mgrwt>
</event>
<event>
12    2  0.4097182E-002  0.2168921E+03  0.7546771E-02  0.1136665E+00
         21   -1    0    0  503  502  0.00000000000E+00  0.00000000000E+00  0.47695465193E+03  0.47695465193E+03  0.00000000000E+00 0. -1.
         21   -1    0    0  501  503 -0.00000000000E+00 -0.00000000000E+00 -0.13896555303E+03  0.13896555303E+03  0.00000000000E+00 0. -1.
          6    2    1    2  501    0 -0.10063848290E+03 -0.86852103242E+02  0.15687542356E+01  0.21689781463E+03  0.17137913795E+03 0.  0.
         24    2    3    3    0    0 -0.82505375882E+02 -0.56059034859E+02  0.64003220485E+02  0.14480637820E+03  0.83202899567E+02 0.  0.
         -6    2    1    2    0  502  0.10063848290E+03  0.86852103242E+02  0.33642034466E+03  0.39902239034E+03  0.16843048302E+03 0.  0.
        -24    2    5    5    0    0 -0.12936922267E+02  0.35692884259E+02  0.13522314579E+03  0.16233897060E+03  0.81408207650E+02 0.  0.
          5    1    3    3  501    0 -0.18133107016E+02 -0.30793068384E+02 -0.62434466249E+02  0.72091436429E+02  0.47000000000E+01 0. -1.
        -15    1    4    4    0    0 -0.37215016011E+02  0.15570081127E+02  0.39739757153E+02  0.56655016288E+02  0.17770000000E+01 0.  1.
         16    1    4    4    0    0 -0.45290359872E+02 -0.71629115986E+02  0.24263463332E+02  0.88151361913E+02  0.00000000000E+00 0. -1.
         -5    1    5    5    0  502  0.11357540517E+03  0.51159218984E+02  0.20119719887E+03  0.23668341974E+03  0.47000000000E+01 0.  1.
         15    1    6    6    0    0  0.33900429731E+02  0.99590484203E+01  0.66038123368E+02  0.74917376144E+02  0.17770000000E+01 0. -1.
        -16    1    6    6    0    0 -0.46837351998E+02  0.25733835839E+02  0.69185022427E+02  0.87421594457E+02  0.00000000000E+00 0.  1.
<mgrwt>
<rscale>  2 0.21630922E+03</rscale>
<asrwt>0</asrwt>
<pdfrwt beam="1">  1       21 0.73377638E-01 0.21689214E+03</pdfrwt>
<pdfrwt beam="2">  1       21 0.21379316E-01 0.21689214E+03</pdfrwt>
<totfact> 0.33571424E+04</totfact>
</mgrwt>
</event>
<event>
12    2  0.4097182E-002  0.2519624E+03  0.7546771E-02  0.1112959E+00
         21   -1    0    0  501  502  0.00000000000E+00  0.00000000000E+00  0.51057646663E+03  0.51057646663E+03  0.00000000000E+00 0.  1.
         21   -1    0    0  502  503 -0.00000000000E+00 -0.00000000000E+00 -0.14323948013E+03  0.14323948013E+03  0.00000000000E+00 0.  1.
         -6    2    1    2    0  503  0.55702256814E+02 -0.17564443336E+03  0.31251591045E+03  0.40143647850E+03  0.17184686088E+03 0.  0.
        -24    2    3    3    0    0  0.34034946164E+02 -0.75988905644E+02  0.26509360615E+03  0.28886800377E+03  0.78977289402E+02 0.  0.
          6    2    1    2  501    0 -0.55702256814E+02  0.17564443336E+03  0.54821076047E+02  0.25237946827E+03  0.16351249872E+03 0.  0.
         24    2    5    5    0    0 -0.59025782889E+02  0.19798595865E+03  0.42527932884E+02  0.22623752980E+03  0.81806551974E+02 0.  0.
          5    1    5    5  501    0  0.33235260746E+01 -0.22341525291E+02  0.12293143163E+02  0.26141938465E+02  0.47000000000E+01 0. -1.
        -15    1    6    6    0    0 -0.53841157065E+02  0.88651712685E+02  0.52615502207E+02  0.11631657301E+03  0.17770000000E+01 0.  1.
         16    1    6    6    0    0 -0.51846258238E+01  0.10933424597E+03 -0.10087569323E+02  0.10992095679E+03  0.00000000000E+00 0. -1.
         -5    1    3    3    0  503  0.21667310651E+02 -0.99655527718E+02  0.47422304303E+02  0.11256847472E+03  0.47000000000E+01 0.  1.
         15    1    4    4    0    0 -0.22179464407E+02 -0.10909175736E+02  0.32389435120E+02  0.40782005750E+02  0.17770000000E+01 0. -1.
        -16    1    4    4    0    0  0.56214410570E+02 -0.65079729908E+02  0.23270417103E+03  0.24808599802E+03  0.00000000000E+00 0.  1.
<mgrwt>
<rscale>  2 0.25054832E+03</rscale>
<asrwt>0</asrwt>
<pdfrwt beam="1">  1       21 0.78550225E-01 0.25196240E+03</pdfrwt>
<pdfrwt beam="2">  1       21 0.22036843E-01 0.25196240E+03</pdfrwt>
<totfact> 0.26744392E+04</totfact>
</mgrwt>
</event>
<event>
12    2  0.4097182E-002  0.1809983E+03  0.7546771E-02  0.1167119E+00
         21   -1    0    0  501  502  0.00000000000E+00  0.00000000000E+00  0.40976424241E+03  0.40976424241E+03  0.00000000000E+00 0.  1.
         21   -1    0    0  502  503 -0.00000000000E+00 -0.00000000000E+00 -0.18307721851E+03  0.18307721851E+03  0.00000000000E+00 0. -1.
         -6    2    1    2    0  503  0.22720819820E+01  0.53597751436E+02 -0.10952194273E+03  0.21155480620E+03  0.17286555114E+03 0.  0.
        -24    2    3    3    0    0  0.15757774032E+02  0.45711271310E+02  0.69031763516E+01  0.93992232174E+02  0.80306027782E+02 0.  0.
          6    2    1    2  501    0 -0.22720819820E+01 -0.53597751436E+02  0.33620896664E+03  0.38128665471E+03  0.17165419453E+03 0.  0.
         24    2    5    5    0    0 -0.43952708963E+01 -0.21994511619E+02  0.56448570081E+02  0.99699648303E+02  0.79060115482E+02 0.  0.
          5    1    5    5  501    0  0.21231889143E+01 -0.31603239817E+02  0.27976039656E+03  0.28158700641E+03  0.47000000000E+01 0. -1.
        -15    1    6    6    0    0  0.16478062525E+02 -0.37636784081E+00  0.66092162530E+02  0.68139561741E+02  0.17770000000E+01 0.  1.
         16    1    6    6    0    0 -0.20873333421E+02 -0.21618143778E+02 -0.96435924490E+01  0.31560086563E+02  0.00000000000E+00 0. -1.
         -5    1    3    3    0  503 -0.13485692050E+02  0.78864801264E+01 -0.11642511908E+03  0.11756257403E+03  0.47000000000E+01 0.  1.
         15    1    4    4    0    0  0.81250889364E+01  0.19235712376E+02 -0.36787893807E+02  0.42338358028E+02  0.17770000000E+01 0. -1.
        -16    1    4    4    0    0  0.76326850957E+01  0.26475558934E+02  0.43691070158E+02  0.51653874145E+02  0.00000000000E+00 0.  1.
<mgrwt>
<rscale>  2 0.18070845E+03</rscale>
<asrwt>0</asrwt>
<pdfrwt beam="1">  1       21 0.63040652E-01 0.18099829E+03</pdfrwt>
<pdfrwt beam="2">  1       21 0.28165726E-01 0.18099829E+03</pdfrwt>
<totfact> 0.28236657E+04</totfact>
</mgrwt>
</event>
<event>
12    2  0.4097182E-002  0.1819964E+03  0.7546771E-02  0.1166122E+00
         21   -1    0    0  501  502  0.00000000000E+00  0.00000000000E+00  0.53560596679E+02  0.53560596679E+02  0.00000000000E+00 0. -1.
         21   -1    0    0  502  503 -0.00000000000E+00 -0.00000000000E+00 -0.64000802298E+03  0.64000802298E+03  0.00000000000E+00 0. -1.
         -6    2    1    2    0  503 -0.28749257216E+02 -0.48410227426E+02 -0.36093701520E+03  0.40377967732E+03  0.17202450106E+03 0.  0.
        -24    2    3    3    0    0  0.37982119472E+02  0.13030863870E+02 -0.18682554359E+03  0.20739999691E+03  0.80613461436E+02 0.  0.
          6    2    1    2  501    0  0.28749257216E+02  0.48410227426E+02 -0.22551041110E+03  0.28978894234E+03  0.17306823995E+03 0.  0.
         24    2    5    5    0    0  0.57643165375E+02  0.72283340645E+02 -0.22018952222E+03  0.25164205096E+03  0.79326415945E+02 0.  0.
          5    1    5    5  501    0 -0.28893908159E+02 -0.23873113219E+02 -0.53208888808E+01  0.38146891380E+02  0.47000000000E+01 0. -1.
        -15    1    6    6    0    0  0.24897331804E+02  0.83543694411E+02 -0.15777709789E+03  0.18026701405E+03  0.17770000000E+01 0.  1.
         16    1    6    6    0    0  0.32745833571E+02 -0.11260353766E+02 -0.62412424332E+02  0.71375036912E+02  0.00000000000E+00 0. -1.
         -5    1    3    3    0  503 -0.66731376688E+02 -0.61441091296E+02 -0.17411147161E+03  0.19637968041E+03  0.47000000000E+01 0.  1.
         15    1    4    4    0    0  0.24420948873E+02 -0.15042488401E+02 -0.16912390729E+03  0.17154799022E+03  0.17770000000E+01 0. -1.
        -16    1    4    4    0    0  0.13561170599E+02  0.28073352271E+02 -0.17701636301E+02  0.35852006687E+02  0.00000000000E+00 0.  1.
<mgrwt>
<rscale>  2 0.18174782E+03</rscale>
<asrwt>0</asrwt>
<pdfrwt beam="1">  1       21 0.82400924E-02 0.18199639E+03</pdfrwt>
<pdfrwt beam="2">  1       21 0.98462765E-01 0.18199639E+03</pdfrwt>
<totfact> 0.97487821E+04</totfact>
</mgrwt>
</event>
<event>
12    2  0.4097182E-002  0.1996797E+03  0.7546771E-02  0.1150378E+00
         21   -1    0    0  501  502  0.00000000000E+00  0.00000000000E+00  0.14263338835E+04  0.14263338835E+04  0.00000000000E+00 0.  1.
         21   -1    0    0  502  503 -0.00000000000E+00 -0.00000000000E+00 -0.27745742426E+02  0.27745742426E+02  0.00000000000E+00 0.  1.
         -6    2    1    2    0  503 -0.95910973200E+02 -0.19536565846E+02  0.72163324599E+03  0.74828934311E+03  0.17205175710E+03 0.  0.
        -24    2    3    3    0    0 -0.52539551975E+01 -0.58040379952E+02  0.37859364865E+03  0.39135868605E+03  0.80200876529E+02 0.  0.
          6    2    1    2  501    0  0.95910973200E+02  0.19536565846E+02  0.67695489504E+03  0.70579028276E+03  0.17404425052E+03 0.  0.
         24    2    5    5    0    0  0.39013411523E+02  0.26105006906E+02  0.61259477727E+03  0.61950707639E+03  0.79455263477E+02 0.  0.
          5    1    5    5  501    0  0.56897561677E+02 -0.65684410596E+01  0.64360117766E+02  0.86283206370E+02  0.47000000000E+01 0. -1.
        -15    1    6    6    0    0 -0.15159842651E+01 -0.72315328719E+01  0.38767313372E+01  0.85311224836E+01  0.17770000000E+01 0.  1.
         16    1    6    6    0    0  0.40529395788E+02  0.33336539778E+02  0.60871804594E+03  0.61097595391E+03  0.00000000000E+00 0. -1.
         -5    1    3    3    0  503 -0.90657018002E+02  0.38503814106E+02  0.34303959733E+03  0.35693065706E+03  0.47000000000E+01 0.  1.
         15    1    4    4    0    0 -0.27964930520E+02  0.79325430963E+01  0.12437182476E+03  0.12773594287E+03  0.17770000000E+01 0. -1.
        -16    1    4    4    0    0  0.22710975322E+02 -0.65972923049E+02  0.25422182389E+03  0.26362274318E+03  0.00000000000E+00 0.  1.
<mgrwt>
<rscale>  2 0.19924474E+03</rscale>
<asrwt>0</asrwt>
<pdfrwt beam="1">  1       21 0.21943593E+00 0.19967973E+03</pdfrwt>
<pdfrwt beam="2">  1       21 0.42685768E-02 0.19967973E+03</pdfrwt>
<totfact> 0.35443715E+04</totfact>
</mgrwt>
</event>
<event>
12    2  0.4097182E-002  0.2092219E+03  0.7546771E-02  0.1142675E+00
         21   -1    0    0  503  502  0.00000000000E+00  0.00000000000E+00  0.78256056372E+03  0.78256056372E+03  0.00000000000E+00 0.  1.
         21   -1    0    0  501  503 -0.00000000000E+00 -0.00000000000E+00 -0.55467322964E+02  0.55467322964E+02  0.00000000000E+00 0.  1.
          6    2    1    2  501    0  0.10156600152E+03 -0.49494033342E+02  0.34149519441E+03  0.40049064203E+03  0.17609223308E+03 0.  0.
         24    2    3    3    0    0  0.99528308268E+02 -0.77451625976E+02  0.16991031415E+03  0.22656755468E+03  0.80985822634E+02 0.  0.
         -6    2    1    2    0  502 -0.10156600152E+03  0.49494033342E+02  0.38559804636E+03  0.43753724466E+03  0.17316949821E+03 0.  0.
        -24    2    5    5    0    0 -0.20423310774E+02 -0.18471302334E+02  0.94885724787E+02  0.12811978066E+03  0.81566395014E+02 0.  0.
          5    1    3    3  501    0  0.20376932532E+01  0.27957592634E+02  0.17158488026E+03  0.17392308735E+03  0.47000000000E+01 0. -1.
        -15    1    4    4    0    0 -0.43609071326E+01 -0.32995041827E+02  0.61614079762E+02  0.70051001778E+02  0.17770000000E+01 0.  1.
         16    1    4    4    0    0  0.10388921540E+03 -0.44456584149E+02  0.10829623439E+03  0.15651655290E+03  0.00000000000E+00 0. -1.
         -5    1    5    5    0  502 -0.81142690746E+02  0.67965335675E+02  0.29071232157E+03  0.30941746400E+03  0.47000000000E+01 0.  1.
         15    1    6    6    0    0 -0.22552494325E+02 -0.26068345250E+02  0.10768656007E+03  0.11308283058E+03  0.17770000000E+01 0. -1.
        -16    1    6    6    0    0  0.21291835506E+01  0.75970429166E+01 -0.12800835283E+02  0.15036950077E+02  0.00000000000E+00 0.  1.
<mgrwt>
<rscale>  2 0.20860567E+03</rscale>
<asrwt>0</asrwt>
<pdfrwt beam="1">  1       21 0.12039393E+00 0.20922186E+03</pdfrwt>
<pdfrwt beam="2">  1       21 0.85334349E-02 0.20922186E+03</pdfrwt>
<totfact> 0.55689315E+04</totfact>
</mgrwt>
</event>
<event>
12    2  0.4097182E-002  0.2044789E+03  0.7546771E-02  0.1146084E+00
         21   -1    0    0  501  502  0.00000000000E+00  0.00000000000E+00  0.63169699266E+02  0.63169699266E+02  0.00000000000E+00 0. -1.
         21   -1    0    0  502  503 -0.00000000000E+00 -0.00000000000E+00 -0.88365601238E+03  0.88365601238E+03  0.00000000000E+00 0. -1.
         -6    2    1    2    0  503  0.11018260326E+03 -0.26021769803E-01 -0.64824138067E+03  0.67972677833E+03  0.17225387901E+03 0.  0.
        -24    2    3    3    0    0  0.12293146966E+03  0.47432419263E+02 -0.46476556158E+03  0.48972597989E+03  0.80389847104E+02 0.  0.
          6    2    1    2  501    0 -0.11018260326E+03  0.26021769803E-01 -0.17224493245E+03  0.26709893331E+03  0.17185260163E+03 0.  0.
         24    2    5    5    0    0 -0.63117836383E+02 -0.67821619661E+02 -0.94039261673E+02  0.15327182024E+03  0.77879617241E+02 0.  0.
          5    1    5    5  501    0 -0.47064766878E+02  0.67847641431E+02 -0.78205670773E+02  0.11382711307E+03  0.47000000000E+01 0. -1.
        -15    1    6    6    0    0  0.18827113050E+00 -0.54276129917E+02 -0.29251738963E+02  0.61682701677E+02  0.17770000000E+01 0.  1.
         16    1    6    6    0    0 -0.63306107513E+02 -0.13545489744E+02 -0.64787522710E+02  0.91589118566E+02  0.00000000000E+00 0. -1.
         -5    1    3    3    0  503 -0.12748866396E+02 -0.47458441033E+02 -0.18347581908E+03  0.19000079844E+03  0.47000000000E+01 0.  1.
         15    1    4    4    0    0  0.60437567177E+02 -0.12413993799E+02 -0.12924973953E+03  0.14323218796E+03  0.17770000000E+01 0. -1.
        -16    1    4    4    0    0  0.62493902480E+02  0.59846413062E+02 -0.33551582205E+03  0.34649379194E+03  0.00000000000E+00 0.  1.
<mgrwt>
<rscale>  2 0.20439433E+03</rscale>
<asrwt>0</asrwt>
<pdfrwt beam="1">  1       21 0.97184156E-02 0.20447886E+03</pdfrwt>
<pdfrwt beam="2">  1       21 0.13594707E+00 0.20447886E+03</pdfrwt>
<totfact> 0.32701575E+04</totfact>
</mgrwt>
</event>
<event>
12    2  0.4097182E-002  0.2053164E+03  0.7546771E-02  0.1145398E+00
         21   -1    0    0  503  502  0.00000000000E+00  0.00000000000E+00  0.64338512213E+02  0.64338512213E+02  0.00000000000E+00 0. -1.
         21   -1    0    0  501  503 -0.00000000000E+00 -0.00000000000E+00 -0.71877125261E+03  0.71877125261E+03  0.00000000000E+00 0. -1.
          6    2    1    2  501    0 -0.10413189119E+03  0.31121296083E+02 -0.44438934245E+03  0.48938699285E+03  0.17379803007E+03 0.  0.
         24    2    3    3    0    0 -0.83785108757E+02 -0.20505821437E+02 -0.15681464401E+03  0.19646951642E+03  0.81049399399E+02 0.  0.
         -6    2    1    2    0  502  0.10413189119E+03 -0.31121296083E+02 -0.21004339795E+03  0.29372277197E+03  0.17419199729E+03 0.  0.
        -24    2    5    5    0    0  0.97033086832E+02 -0.78002434633E+02 -0.19133482405E+03  0.24253356498E+03  0.81937265634E+02 0.  0.
          5    1    3    3  501    0 -0.20346782436E+02  0.51627117521E+02 -0.28757469844E+03  0.29291747644E+03  0.47000000000E+01 0. -1.
        -15    1    4    4    0    0 -0.12696064819E+02 -0.17044047189E+02  0.29863906568E+01  0.21535223812E+02  0.17770000000E+01 0.  1.
         16    1    4    4    0    0 -0.71089043937E+02 -0.34617742489E+01 -0.15980103466E+03  0.17493429260E+03  0.00000000000E+00 0. -1.
         -5    1    5    5    0  502  0.70988043612E+01  0.46881138550E+02 -0.18708573902E+02  0.51189206993E+02  0.47000000000E+01 0.  1.
         15    1    6    6    0    0  0.71566069488E+02 -0.64107426512E+02 -0.72960121971E+02  0.12065571500E+03  0.17770000000E+01 0. -1.
        -16    1    6    6    0    0  0.25467017344E+02 -0.13895008121E+02 -0.11837470208E+03  0.12187784998E+03  0.00000000000E+00 0.  1.
<mgrwt>
<rscale>  2 0.20523285E+03</rscale>
<asrwt>0</asrwt>
<pdfrwt beam="1">  1       21 0.98982324E-02 0.20531643E+03</pdfrwt>
<pdfrwt beam="2">  1       21 0.11058020E+00 0.20531643E+03</pdfrwt>
<totfact> 0.52933207E+04</totfact>
</mgrwt>
</event>
<event>
12    2  0.4097182E-002  0.2275050E+03  0.7546771E-02  0.1128554E+00
         21   -1    0    0  503  502  0.00000000000E+00  0.00000000000E+00  0.24907045846E+03  0.24907045846E+03  0.00000000000E+00 0. -1.
         21   -1    0    0  501  503 -0.00000000000E+00 -0.00000000000E+00 -0.24761934119E+04  0.24761934119E+04  0.00000000000E+00 0. -1.
          6    2    1    2  501    0  0.12658277443E+03  0.72916972800E+02 -0.24178099228E+04  0.24284136376E+04  0.17334326837E+03 0.  0.
         24    2    3    3    0    0  0.45133601136E+02 -0.26617277644E+02 -0.12291999328E+04  0.12328565151E+04  0.79102405461E+02 0.  0.
         -6    2    1    2    0  502 -0.12658277443E+03 -0.72916972800E+02  0.19068696937E+03  0.29685023276E+03  0.17440887791E+03 0.  0.
        -24    2    5    5    0    0 -0.36092460955E+02 -0.66751472318E+02  0.17115520559E+03  0.20395195492E+03  0.80894194605E+02 0.  0.
          5    1    3    3  501    0  0.81449173298E+02  0.99534250443E+02 -0.11886099899E+04  0.11955571224E+04  0.47000000000E+01 0. -1.
        -15    1    4    4    0    0  0.33258697739E+02 -0.40986534574E+02 -0.40293826867E+03  0.40638459995E+03  0.17770000000E+01 0.  1.
         16    1    4    4    0    0  0.11874903397E+02  0.14369256931E+02 -0.82626166417E+03  0.82647191516E+03  0.00000000000E+00 0. -1.
         -5    1    5    5    0  502 -0.90490313479E+02 -0.61655004821E+01  0.19531763786E+02  0.92898277843E+02  0.47000000000E+01 0.  1.
         15    1    6    6    0    0 -0.28961284757E+02 -0.70198873406E+02  0.72583903340E+02  0.10506292684E+03  0.17770000000E+01 0. -1.
        -16    1    6    6    0    0 -0.71311761985E+01  0.34474010887E+01  0.98571302246E+02  0.98889028080E+02  0.00000000000E+00 0.  1.
<mgrwt>
<rscale>  2 0.22730079E+03</rscale>
<asrwt>0</asrwt>
<pdfrwt beam="1">  1       21 0.38318531E-01 0.22750503E+03</pdfrwt>
<pdfrwt beam="2">  1       21 0.38095285E+00 0.22750503E+03</pdfrwt>
<totfact> 0.70619654E+01</totfact>
</mgrwt>
</event>
<event>
12    2  0.4097182E-002  0.2099432E+03  0.7546771E-02  0.1141693E+00
         21   -1    0    0  501  502  0.00000000000E+00  0.00000000000E+00  0.18377622984E+03  0.18377622984E+03  0.00000000000E+00 0. -1.
         21   -1    0    0  502  503 -0.00000000000E+00 -0.00000000000E+00 -0.24068890752E+03  0.24068890752E+03  0.00000000000E+00 0. -1.
         -6    2    1    2    0  503  0.11440497332E+03  0.20809131771E+02 -0.12675532910E+02  0.20991194458E+03  0.17430099672E+03 0.  0.
        -24    2    3    3    0    0  0.91668842709E+02 -0.12840951853E+02 -0.69012392384E+02  0.14030453478E+03  0.79715653484E+02 0.  0.
          6    2    1    2  501    0 -0.11440497332E+03 -0.20809131771E+02 -0.44237144772E+02  0.21455319278E+03  0.17479882628E+03 0.  0.
         24    2    5    5    0    0 -0.13433807155E+03 -0.35153952455E+01 -0.75362429913E+02  0.17347673841E+03  0.79722063788E+02 0.  0.
          5    1    5    5  501    0  0.19933098235E+02 -0.17293736526E+02  0.31125285140E+02  0.41076454367E+02  0.47000000000E+01 0. -1.
        -15    1    6    6    0    0 -0.90486503145E+00 -0.15318905391E+02 -0.26910009368E+02  0.31028921610E+02  0.17770000000E+01 0.  1.
         16    1    6    6    0    0 -0.13343320652E+03  0.11803510145E+02 -0.48452420544E+02  0.14244781680E+03  0.00000000000E+00 0. -1.
         -5    1    3    3    0  503  0.22736130609E+02  0.33650083624E+02  0.56336859473E+02  0.69607409795E+02  0.47000000000E+01 0.  1.
         15    1    4    4    0    0 -0.11444615045E+01 -0.80907740095E+01 -0.42989314845E+02  0.43795083469E+02  0.17770000000E+01 0. -1.
        -16    1    4    4    0    0  0.92813304214E+02 -0.47501778434E+01 -0.26023077539E+02  0.96509451316E+02  0.00000000000E+00 0.  1.
<mgrwt>
<rscale>  2 0.20983955E+03</rscale>
<asrwt>0</asrwt>
<pdfrwt beam="1">  1       21 0.28273266E-01 0.20994320E+03</pdfrwt>
<pdfrwt beam="2">  1       21 0.37029062E-01 0.20994320E+03</pdfrwt>
<totfact> 0.83491528E+04</totfact>
</mgrwt>
</event>
<event>
12    2  0.4097182E-002  0.1793999E+03  0.7546771E-02  0.1168889E+00
         21   -1    0    0  503  502  0.00000000000E+00  0.00000000000E+00  0.42122749789E+03  0.42122749789E+03  0.00000000000E+00 0. -1.
         21   -1    0    0  501  503 -0.00000000000E+00 -0.00000000000E+00 -0.10666920820E+03  0.10666920820E+03  0.00000000000E+00 0. -1.
          6    2    1    2  501    0 -0.34735036355E+02 -0.26158623575E+02  0.15314160771E+02  0.18005237560E+03  0.17405038955E+03 0.  0.
         24    2    3    3    0    0  0.40792824599E+02  0.89883017313E+01  0.26239247387E+02  0.95902440034E+02  0.82243150439E+02 0.  0.
         -6    2    1    2    0  502  0.34735036355E+02  0.26158623575E+02  0.29924412892E+03  0.34784433048E+03  0.17192391694E+03 0.  0.
        -24    2    5    5    0    0  0.69325150662E+02  0.63362935448E+02  0.18448813073E+03  0.22225903695E+03  0.80884924582E+02 0.  0.
          5    1    3    3  501    0 -0.75527860955E+02 -0.35146925307E+02 -0.10925086616E+02  0.84149935570E+02  0.47000000000E+01 0. -1.
        -15    1    4    4    0    0  0.74319643556E+01  0.19546656089E+02  0.49580924641E+02  0.53839870688E+02  0.17770000000E+01 0.  1.
         16    1    4    4    0    0  0.33360860244E+02 -0.10558354358E+02 -0.23341677254E+02  0.42062569346E+02  0.00000000000E+00 0. -1.
         -5    1    5    5    0  502 -0.34590114307E+02 -0.37204311872E+02  0.11475599819E+03  0.12558529353E+03  0.47000000000E+01 0.  1.
         15    1    6    6    0    0  0.36101244036E+02  0.54450898271E+02  0.46916092893E+02  0.80451710018E+02  0.17770000000E+01 0. -1.
        -16    1    6    6    0    0  0.33223906626E+02  0.89120371767E+01  0.13757203784E+03  0.14180732693E+03  0.00000000000E+00 0.  1.
<mgrwt>
<rscale>  2 0.17888211E+03</rscale>
<asrwt>0</asrwt>
<pdfrwt beam="1">  1       21 0.64804230E-01 0.17939993E+03</pdfrwt>
<pdfrwt beam="2">  1       21 0.16410648E-01 0.17939993E+03</pdfrwt>
<totfact> 0.73437812E+04</totfact>
</mgrwt>
</event>
<event>
12    2  0.4097182E-002  0.2734478E+03  0.7546771E-02  0.1099381E+00
         21   -1    0    0  501  502  0.00000000000E+00  0.00000000000E+00  0.10995982719E+03  0.10995982719E+03  0.00000000000E+00 0.  1.
         21   -1    0    0  502  503 -0.00000000000E+00 -0.00000000000E+00 -0.73490154735E+03  0.73490154735E+03  0.00000000000E+00 0.  1.
         -6    2    1    2    0  503 -0.12047363055E+03  0.17429378529E+03 -0.42921641443E+03  0.50892087178E+03  0.17286267403E+03 0.  0.
        -24    2    3    3    0    0  0.38239616787E+01  0.59428724687E+02 -0.19898470589E+03  0.22313668188E+03  0.81539374670E+02 0.  0.
          6    2    1    2  501    0  0.12047363055E+03 -0.17429378529E+03 -0.19572530573E+03  0.33594050275E+03  0.17220745290E+03 0.  0.
         24    2    5    5    0    0  0.81297844596E+02 -0.10925521728E+03 -0.57100467741E+02  0.17781494111E+03  0.99053762316E+02 0.  0.
          5    1    5    5  501    0  0.39175785953E+02 -0.65038568018E+02 -0.13862483799E+03  0.15812556164E+03  0.47000000000E+01 0. -1.
        -15    1    6    6    0    0  0.53101263244E+02 -0.12458611427E+03 -0.53068509604E+02  0.14546775748E+03  0.17770000000E+01 0.  1.
         16    1    6    6    0    0  0.28196581353E+02  0.15330896991E+02 -0.40319581371E+01  0.32347183632E+02  0.00000000000E+00 0. -1.
         -5    1    3    3    0  503 -0.12429759223E+03  0.11486506061E+03 -0.23023170854E+03  0.28578418991E+03  0.47000000000E+01 0.  1.
         15    1    4    4    0    0  0.42612547384E+01 -0.17041463133E+02 -0.12648158178E+02  0.21718733664E+02  0.17770000000E+01 0. -1.
        -16    1    4    4    0    0 -0.43729305969E+00  0.76470187821E+02 -0.18633654771E+03  0.20141794821E+03  0.00000000000E+00 0.  1.
<mgrwt>
<rscale>  2 0.27334435E+03</rscale>
<asrwt>0</asrwt>
<pdfrwt beam="1">  1       21 0.16916897E-01 0.27344784E+03</pdfrwt>
<pdfrwt beam="2">  1       21 0.11306177E+00 0.27344784E+03</pdfrwt>
<totfact> 0.18391608E+04</totfact>
</mgrwt>
</event>
<event>
12    2  0.4097182E-002  0.1811944E+03  0.7546771E-02  0.1167552E+00
         21   -1    0    0  503  502  0.00000000000E+00  0.00000000000E+00  0.11088732129E+03  0.11088732129E+03  0.00000000000E+00 0. -1.
         21   -1    0    0  501  503 -0.00000000000E+00 -0.00000000000E+00 -0.39380339296E+03  0.39380339296E+03  0.00000000000E+00 0. -1.
          6    2    1    2  501    0 -0.15686609528E+02  0.34830608331E+02 -0.26990407574E+03  0.32302966093E+03  0.17332256271E+03 0.  0.
         24    2    3    3    0    0 -0.58392526151E+02  0.25662139986E+02 -0.15740834904E+03  0.20226031609E+03  0.10983448721E+03 0.  0.
         -6    2    1    2    0  502  0.15686609528E+02 -0.34830608331E+02 -0.13011995934E+02  0.18166105332E+03  0.17712195025E+03 0.  0.
        -24    2    5    5    0    0  0.48990700605E+02 -0.80251621097E+02 -0.20154414331E+02  0.12469321131E+03  0.79383783574E+02 0.  0.
          5    1    3    3  501    0  0.42705916623E+02  0.91684683451E+01 -0.11249572670E+03  0.12076934484E+03  0.47000000000E+01 0. -1.
        -15    1    4    4    0    0 -0.52631841840E+01 -0.36220304360E+02 -0.87410904991E+02  0.94780987524E+02  0.17770000000E+01 0.  1.
         16    1    4    4    0    0 -0.53129341967E+02  0.61882444346E+02 -0.69997444044E+02  0.10747932857E+03  0.00000000000E+00 0. -1.
         -5    1    5    5    0  502 -0.33304091077E+02  0.45421012767E+02  0.71424183976E+01  0.56967842014E+02  0.47000000000E+01 0.  1.
         15    1    6    6    0    0  0.39316334404E+02 -0.65363456301E+02 -0.49103493927E+02  0.90732940079E+02  0.17770000000E+01 0. -1.
        -16    1    6    6    0    0  0.96743662012E+01 -0.14888164796E+02  0.28949079596E+02  0.33960271227E+02  0.00000000000E+00 0.  1.
<mgrwt>
<rscale>  2 0.18025918E+03</rscale>
<asrwt>0</asrwt>
<pdfrwt beam="1">  1       21 0.17059588E-01 0.18119444E+03</pdfrwt>
<pdfrwt beam="2">  1       21 0.60585137E-01 0.18119444E+03</pdfrwt>
<totfact> 0.79034357E+04</totfact>
</mgrwt>
</event>
<event>
12    2  0.4097182E-002  0.1915809E+03  0.7546771E-02  0.1157196E+00
         21   -1    0    0  501  502  0.00000000000E+00  0.00000000000E+00  0.52942714123E+02  0.52942714123E+02  0.00000000000E+00 0.  1.
         21   -1    0    0  502  503 -0.00000000000E+00 -0.00000000000E+00 -0.10307332258E+04  0.10307332258E+04  0.00000000000E+00 0. -1.
         -6    2    1    2    0  503 -0.29348718686E+02  0.74490761670E+02 -0.79947990833E+03  0.82195486215E+03  0.17329584737E+03 0.  0.
        -24    2    3    3    0    0 -0.28427624824E+02  0.55655580338E+02 -0.79585491407E+03  0.80218511119E+03  0.78805043463E+02 0.  0.
          6    2    1    2  501    0  0.29348718686E+02 -0.74490761670E+02 -0.17831060331E+03  0.26172107774E+03  0.17404893110E+03 0.  0.
         24    2    5    5    0    0  0.36508001950E+02 -0.11763108340E+03 -0.14552823678E+03  0.20686566551E+03  0.80280943414E+02 0.  0.
          5    1    5    5  501    0 -0.71592832645E+01  0.43140321734E+02 -0.32782366525E+02  0.54855412232E+02  0.47000000000E+01 0. -1.
        -15    1    6    6    0    0  0.57312682140E+02 -0.84321093373E+02 -0.12854252681E+03  0.16407659567E+03  0.17770000000E+01 0.  1.
         16    1    6    6    0    0 -0.20804680189E+02 -0.33309990031E+02 -0.16985709975E+02  0.42789069832E+02  0.00000000000E+00 0. -1.
         -5    1    3    3    0  503 -0.92109386138E+00  0.18835181331E+02 -0.36249942595E+01  0.19769750961E+02  0.47000000000E+01 0.  1.
         15    1    4    4    0    0  0.17466824249E+02 -0.91576512893E+01 -0.21817973391E+03  0.21907648560E+03  0.17770000000E+01 0. -1.
        -16    1    4    4    0    0 -0.45894449073E+02  0.64813231628E+02 -0.57767518017E+03  0.58310862558E+03  0.00000000000E+00 0.  1.
<mgrwt>
<rscale>  2 0.19140972E+03</rscale>
<asrwt>0</asrwt>
<pdfrwt beam="1">  1       21 0.81450334E-02 0.19158093E+03</pdfrwt>
<pdfrwt beam="2">  1       21 0.15857433E+00 0.19158093E+03</pdfrwt>
<totfact> 0.30008877E+04</totfact>
</mgrwt>
</event>
<event>
12    2  0.4097182E-002  0.1831132E+03  0.7546771E-02  0.1165147E+00
         21   -1    0    0  503  502  0.00000000000E+00  0.00000000000E+00  0.57814819163E+03  0.57814819163E+03  0.00000000000E+00 0. -1.
         21   -1    0    0  501  503 -0.00000000000E+00 -0.00000000000E+00 -0.81833093088E+02  0.81833093088E+02  0.00000000000E+00 0. -1.
          6    2    1    2  501    0  0.50751371763E+02 -0.30828503092E+02  0.67810021429E+02  0.19399088424E+03  0.17177941036E+03 0.  0.
         24    2    3    3    0    0  0.55298249910E+02 -0.77009452981E+02  0.22594556266E+02  0.12903026137E+03  0.84557330166E+02 0.  0.
         -6    2    1    2    0  502 -0.50751371763E+02  0.30828503092E+02  0.42850507711E+03  0.46599040048E+03  0.17321764889E+03 0.  0.
        -24    2    5    5    0    0 -0.19888930345E+02  0.81367084703E+02  0.33868371512E+03  0.35830286363E+03  0.81597249814E+02 0.  0.
          5    1    3    3  501    0 -0.45468781475E+01  0.46180949889E+02  0.45215465163E+02  0.64960622868E+02  0.47000000000E+01 0. -1.
        -15    1    4    4    0    0  0.42502806803E+02 -0.10275775456E+02  0.39561692745E+02  0.58994621867E+02  0.17770000000E+01 0.  1.
         16    1    4    4    0    0  0.12795443107E+02 -0.66733677525E+02 -0.16967136479E+02  0.70035639503E+02  0.00000000000E+00 0. -1.
         -5    1    5    5    0  502 -0.30862441418E+02 -0.50538581611E+02  0.89821361995E+02  0.10768753685E+03  0.47000000000E+01 0.  1.
         15    1    6    6    0    0  0.12787641616E+02  0.73629483769E+02  0.16144924698E+03  0.17791526561E+03  0.17770000000E+01 0. -1.
        -16    1    6    6    0    0 -0.32676571961E+02  0.77376009340E+01  0.17723446814E+03  0.18038759802E+03  0.00000000000E+00 0.  1.
<mgrwt>
<rscale>  2 0.18277229E+03</rscale>
<asrwt>0</asrwt>
<pdfrwt beam="1">  1       21 0.88945873E-01 0.18311322E+03</pdfrwt>
<pdfrwt beam="2">  1       21 0.12589707E-01 0.18311322E+03</pdfrwt>
<totfact> 0.58393353E+04</totfact>
</mgrwt>
</event>
<event>
12    2  0.4097182E-002  0.2028771E+03  0.7546771E-02  0.1147468E+00
         21   -1    0    0  501  502  0.00000000000E+00  0.00000000000E+00  0.34489644762E+03  0.34489644762E+03  0.00000000000E+00 0.  1.
         21   -1    0    0  502  503 -0.00000000000E+00 -0.00000000000E+00 -0.32021633341E+03  0.32021633341E+03  0.00000000000E+00 0.  1.
         -6    2    1    2    0  503  0.10011345786E+03  0.29557593297E+02 -0.25131261359E+03  0.32257650270E+03  0.17320858690E+03 0.  0.
        -24    2    3    3    0    0  0.27822623717E+02 -0.22945341947E+02 -0.20306682858E+03  0.22092873498E+03  0.79200896236E+02 0.  0.
          6    2    1    2  501    0 -0.10011345786E+03 -0.29557593297E+02  0.27599272780E+03  0.34253627832E+03  0.17396195102E+03 0.  0.
         24    2    5    5    0    0 -0.27322173168E+02 -0.60328274931E+00  0.44618411865E+02  0.98214590172E+02  0.83117013593E+02 0.  0.
          5    1    5    5  501    0 -0.72791284692E+02 -0.28954310547E+02  0.23137431594E+03  0.24432168815E+03  0.47000000000E+01 0. -1.
        -15    1    6    6    0    0  0.14472296121E+01 -0.92514953455E+01  0.62521160082E+02  0.63243480508E+02  0.17770000000E+01 0.  1.
         16    1    6    6    0    0 -0.28769402780E+02  0.86482125962E+01 -0.17902748217E+02  0.34971109665E+02  0.00000000000E+00 0. -1.
         -5    1    3    3    0  503  0.72290834143E+02  0.52502935243E+02 -0.48245785013E+02  0.10164776772E+03  0.47000000000E+01 0.  1.
         15    1    4    4    0    0 -0.14977956820E+02 -0.32058064037E+02 -0.13828872180E+03  0.14275498929E+03  0.17770000000E+01 0. -1.
        -16    1    4    4    0    0  0.42800580537E+02  0.91127220901E+01 -0.64778106777E+02  0.78173745694E+02  0.00000000000E+00 0.  1.
<mgrwt>
<rscale>  2 0.20271550E+03</rscale>
<asrwt>0</asrwt>
<pdfrwt beam="1">  1       21 0.53060992E-01 0.20287710E+03</pdfrwt>
<pdfrwt beam="2">  1       21 0.49264051E-01 0.20287710E+03</pdfrwt>
<totfact> 0.13134324E+04</totfact>
</mgrwt>
</event>
<event>
12    2  0.4097182E-002  0.2178560E+03  0.7546771E-02  0.1136141E+00
         21   -1    0    0  501  502  0.00000000000E+00  0.00000000000E+00  0.43935768895E+02  0.43935768895E+02  0.00000000000E+00 0. -1.
         21   -1    0    0  502  503 -0.00000000000E+00 -0.00000000000E+00 -0.10897003351E+04  0.10897003351E+04  0.00000000000E+00 0.  1.
         -6    2    1    2    0  503 -0.11235280578E+03 -0.60463192723E+02 -0.60691442939E+03  0.64368645427E+03  0.17236059923E+03 0.  0.
        -24    2    3    3    0    0 -0.58112574352E+01 -0.15252156536E+02 -0.12672387707E+03  0.14972269461E+03  0.78048352128E+02 0.  0.
          6    2    1    2  501    0  0.11235280578E+03  0.60463192723E+02 -0.43885013684E+03  0.48994964975E+03  0.17658501082E+03 0.  0.
         24    2    5    5    0    0  0.68401270740E+02 -0.32806303745E+02 -0.17957289793E+03  0.21088386357E+03  0.80439982823E+02 0.  0.
          5    1    5    5  501    0  0.43951535041E+02  0.93269496469E+02 -0.25927723891E+03  0.27906578619E+03  0.47000000000E+01 0. -1.
        -15    1    6    6    0    0  0.13936505596E+02 -0.32579801020E+02 -0.13765983320E+03  0.14215856298E+03  0.17770000000E+01 0.  1.
         16    1    6    6    0    0  0.54464765143E+02 -0.22650272519E+00 -0.41913064735E+02  0.68725300589E+02  0.00000000000E+00 0. -1.
         -5    1    3    3    0  503 -0.10654154835E+03 -0.45211036187E+02 -0.48019055233E+03  0.49396375966E+03  0.47000000000E+01 0.  1.
         15    1    4    4    0    0 -0.22724255440E+02 -0.40247874587E+02 -0.54721802796E+02  0.71651354657E+02  0.17770000000E+01 0. -1.
        -16    1    4    4    0    0  0.16912998005E+02  0.24995718050E+02 -0.72002074271E+02  0.78071339950E+02  0.00000000000E+00 0.  1.
<mgrwt>
<rscale>  2 0.21699844E+03</rscale>
<asrwt>0</asrwt>
<pdfrwt beam="1">  1       21 0.67593494E-02 0.21785595E+03</pdfrwt>
<pdfrwt beam="2">  1       21 0.16764620E+00 0.21785595E+03</pdfrwt>
<totfact> 0.35071426E+04</totfact>
</mgrwt>
</event>
<event>
12    2  0.4097182E-002  0.1919053E+03  0.7546771E-02  0.1158891E+00
         21   -1    0    0  503  502  0.00000000000E+00  0.00000000000E+00  0.27518462494E+03  0.27518462494E+03  0.00000000000E+00 0. -1.
         21   -1    0    0  501  503 -0.00000000000E+00 -0.00000000000E+00 -0.26484066338E+03  0.26484066338E+03  0.00000000000E+00 0. -1.
          6    2    1    2  501    0 -0.11611322765E+02  0.80605563974E+02  0.19972510770E+03  0.27697970815E+03  0.17376869776E+03 0.  0.
         24    2    3    3    0    0  0.39488707755E+02  0.27617899956E+02  0.42390880632E+02  0.10321246537E+03  0.80831428347E+02 0.  0.
         -6    2    1    2    0  502  0.11611322765E+02 -0.80605563974E+02 -0.18938114614E+03  0.26304558016E+03  0.16338812370E+03 0.  0.
        -24    2    5    5    0    0 -0.28340310786E+02  0.93588457087E+01 -0.76126454569E+02  0.11291749086E+03  0.77874010098E+02 0.  0.
          5    1    3    3  501    0 -0.51100030519E+02  0.52987664018E+02  0.15733422707E+03  0.17376724278E+03  0.47000000000E+01 0. -1.
        -15    1    4    4    0    0  0.20539779972E+02  0.87707329729E+01  0.64655633128E+02  0.68427457518E+02  0.17770000000E+01 0.  1.
         16    1    4    4    0    0  0.18948927783E+02  0.18847166984E+02 -0.22264752496E+02  0.34785007850E+02  0.00000000000E+00 0. -1.
         -5    1    5    5    0  502  0.39951633550E+02 -0.89964409683E+02 -0.11325469158E+03  0.15012808930E+03  0.47000000000E+01 0.  1.
         15    1    6    6    0    0 -0.16799716894E+01 -0.14698497183E+02 -0.75547375269E+02  0.77002803607E+02  0.17770000000E+01 0. -1.
        -16    1    6    6    0    0 -0.26660339096E+02  0.24057342891E+02 -0.57907929978E+00  0.35914687254E+02  0.00000000000E+00 0.  1.
<mgrwt>
<rscale>  2 0.18952477E+03</rscale>
<asrwt>0</asrwt>
<pdfrwt beam="1">  1       21 0.42336096E-01 0.19190529E+03</pdfrwt>
<pdfrwt beam="2">  1       21 0.40744717E-01 0.19190529E+03</pdfrwt>
<totfact> 0.31166313E+04</totfact>
</mgrwt>
</event>
<event>
12    2  0.4097182E-002  0.1878170E+03  0.7546771E-02  0.1160828E+00
         21   -1    0    0  501  502  0.00000000000E+00  0.00000000000E+00  0.16117049934E+02  0.16117049934E+02  0.00000000000E+00 0.  1.
         21   -1    0    0  502  503 -0.00000000000E+00 -0.00000000000E+00 -0.21711714667E+04  0.21711714667E+04  0.00000000000E+00 0.  1.
         -6    2    1    2    0  503 -0.59934482110E+01  0.72342923513E+02 -0.10505153732E+04  0.10671728005E+04  0.17322187179E+03 0.  0.
        -24    2    3    3    0    0  0.14275236070E+01  0.32093883447E+02 -0.22096107385E+03  0.23659620466E+03  0.78242652837E+02 0.  0.
          6    2    1    2  501    0  0.59934482110E+01 -0.72342923513E+02 -0.11045390435E+04  0.11201157161E+04  0.17141557306E+03 0.  0.
         24    2    5    5    0    0 -0.80036285582E+01 -0.11449720615E+03 -0.77568657686E+03  0.78824384842E+03  0.80405414959E+02 0.  0.
          5    1    5    5  501    0  0.13997076769E+02  0.42154282639E+02 -0.32885246669E+03  0.33187186767E+03  0.47000000000E+01 0. -1.
        -15    1    6    6    0    0 -0.19632739588E+02 -0.35646388937E+02 -0.48870686841E+03  0.49040154003E+03  0.17770000000E+01 0.  1.
         16    1    6    6    0    0  0.11629111029E+02 -0.78850817215E+02 -0.28697970845E+03  0.29784230838E+03  0.00000000000E+00 0. -1.
         -5    1    3    3    0  503 -0.74209718180E+01  0.40249040066E+02 -0.82955429935E+03  0.83057659588E+03  0.47000000000E+01 0.  1.
         15    1    4    4    0    0 -0.18919696078E+02 -0.17613634100E+02 -0.38600178208E+02  0.46490068752E+02  0.17770000000E+01 0. -1.
        -16    1    4    4    0    0  0.20347219685E+02  0.49707517546E+02 -0.18236089564E+03  0.19010613590E+03  0.00000000000E+00 0.  1.
<mgrwt>
<rscale>  2 0.18739948E+03</rscale>
<asrwt>0</asrwt>
<pdfrwt beam="1">  1       21 0.24795466E-02 0.18781703E+03</pdfrwt>
<pdfrwt beam="2">  1       21 0.33402632E+00 0.18781703E+03</pdfrwt>
<totfact> 0.18893971E+04</totfact>
</mgrwt>
</event>
<event>
12    2  0.4097182E-002  0.1872596E+03  0.7546771E-02  0.1162702E+00
         21   -1    0    0  503  502  0.00000000000E+00  0.00000000000E+00  0.35897804243E+03  0.35897804243E+03  0.00000000000E+00 0.  1.
         21   -1    0    0  501  503 -0.00000000000E+00 -0.00000000000E+00 -0.10245054987E+03  0.10245054987E+03  0.00000000000E+00 0.  1.
          6    2    1    2  501    0 -0.12856970645E+02 -0.55851968741E+02  0.19274162729E+03  0.26360343228E+03  0.17044849812E+03 0.  0.
         24    2    3    3    0    0  0.15361738366E+02 -0.12035435182E+02  0.22328155372E+02  0.85336706381E+02  0.80018574269E+02 0.  0.
         -6    2    1    2    0  502  0.12856970645E+02  0.55851968741E+02  0.63785865280E+02  0.19782516002E+03  0.17827342265E+03 0.  0.
        -24    2    5    5    0    0 -0.54760949890E+02 -0.25830029926E+01  0.55568893951E+02  0.10795615693E+03  0.74573428962E+02 0.  0.
          5    1    3    3  501    0 -0.28218709011E+02 -0.43816533560E+02  0.17041347192E+03  0.17826672590E+03  0.47000000000E+01 0. -1.
        -15    1    4    4    0    0  0.27520065623E+02 -0.21982679757E+02  0.45360586237E+02  0.57457225254E+02  0.17770000000E+01 0.  1.
         16    1    4    4    0    0 -0.12158327257E+02  0.99472445751E+01 -0.23032430865E+02  0.27879481126E+02  0.00000000000E+00 0. -1.
         -5    1    5    5    0  502  0.67617920535E+02  0.58434971734E+02  0.82169713283E+01  0.89869003092E+02  0.47000000000E+01 0.  1.
         15    1    6    6    0    0  0.11735115942E+02 -0.15383414718E+02 -0.13759251091E+01  0.19478534171E+02  0.17770000000E+01 0. -1.
        -16    1    6    6    0    0 -0.66496065831E+02  0.12800411726E+02  0.56944819060E+02  0.88477622760E+02  0.00000000000E+00 0.  1.
<mgrwt>
<rscale>  2 0.18537291E+03</rscale>
<asrwt>0</asrwt>
<pdfrwt beam="1">  1       21 0.55227391E-01 0.18725960E+03</pdfrwt>
<pdfrwt beam="2">  1       21 0.15761623E-01 0.18725960E+03</pdfrwt>
<totfact> 0.11103549E+05</totfact>
</mgrwt>
</event>
<event>
12    2  0.4097182E-002  0.1823439E+03  0.7546771E-02  0.1165900E+00
         21   -1    0    0  503  502  0.00000000000E+00  0.00000000000E+00  0.66629133702E+03  0.66629133702E+03  0.00000000000E+00 0. -1.
         21   -1    0    0  501  503 -0.00000000000E+00 -0.00000000000E+00 -0.77626109979E+02  0.77626109979E+02  0.00000000000E+00 0. -1.
          6    2    1    2  501    0 -0.54128306062E+02 -0.16872915594E+00  0.69713927449E+02  0.19386313176E+03  0.17260643148E+03 0.  0.
         24    2    3    3    0    0  0.19058414433E+02 -0.44752687357E+02  0.25810730858E+02  0.97459780904E+02  0.80412616423E+02 0.  0.
         -6    2    1    2    0  502  0.54128306062E+02  0.16872915594E+00  0.51895129959E+03  0.55005431523E+03  0.17412465758E+03 0.  0.
        -24    2    5    5    0    0 -0.12874031713E+02  0.56576736299E+02  0.27819529114E+03  0.29381863829E+03  0.74633132112E+02 0.  0.
          5    1    3    3  501    0 -0.73186720495E+02  0.44583958201E+02  0.43903196591E+02  0.96403350858E+02  0.47000000000E+01 0. -1.
        -15    1    4    4    0    0 -0.15788849366E+02 -0.55268217867E+02  0.17683923053E+02  0.60164296173E+02  0.17770000000E+01 0.  1.
         16    1    4    4    0    0  0.34847263799E+02  0.10515530510E+02  0.81268078049E+01  0.37295484730E+02  0.00000000000E+00 0. -1.
         -5    1    5    5    0  502  0.67002337775E+02 -0.56408007143E+02  0.24075600845E+03  0.25623567695E+03  0.47000000000E+01 0.  1.
         15    1    6    6    0    0 -0.41037073786E+02  0.15821375001E+02  0.11001676695E+03  0.11849558672E+03  0.17770000000E+01 0. -1.
        -16    1    6    6    0    0  0.28163042073E+02  0.40755361298E+02  0.16817852419E+03  0.17532305157E+03  0.00000000000E+00 0.  1.
<mgrwt>
<rscale>  2 0.18198051E+03</rscale>
<asrwt>0</asrwt>
<pdfrwt beam="1">  1       21 0.10250636E+00 0.18234390E+03</pdfrwt>
<pdfrwt beam="2">  1       21 0.11942479E-01 0.18234390E+03</pdfrwt>
<totfact> 0.46048734E+04</totfact>
</mgrwt>
</event>
<event>
12    2  0.4097182E-002  0.2202766E+03  0.7546771E-02  0.1133803E+00
         21   -1    0    0  501  502  0.00000000000E+00  0.00000000000E+00  0.53362494060E+03  0.53362494060E+03  0.00000000000E+00 0.  1.
         21   -1    0    0  502  503 -0.00000000000E+00 -0.00000000000E+00 -0.10745026294E+03  0.10745026294E+03  0.00000000000E+00 0.  1.
         -6    2    1    2    0  503 -0.88632026200E+02  0.10356924342E+03  0.86618892987E+02  0.23669522455E+03  0.17303055353E+03 0.  0.
        -24    2    3    3    0    0 -0.12280853695E+03  0.74725091030E+02  0.33634381906E+02  0.16720085479E+03  0.78479794984E+02 0.  0.
          6    2    1    2  501    0  0.88632026200E+02 -0.10356924342E+03  0.33955578468E+03  0.40437997898E+03  0.17217088094E+03 0.  0.
         24    2    5    5    0    0  0.16375318997E+02  0.37405808912E+01  0.18375630852E+03  0.20181641636E+03  0.81739476241E+02 0.  0.
          5    1    5    5  501    0  0.72256707203E+02 -0.10730982431E+03  0.15579947616E+03  0.20256356262E+03  0.47000000000E+01 0. -1.
        -15    1    6    6    0    0 -0.34079262118E+01 -0.37462866318E+02  0.78593748805E+02  0.87150532953E+02  0.17770000000E+01 0.  1.
         16    1    6    6    0    0  0.19783245209E+02  0.41203447209E+02  0.10516255971E+03  0.11466588341E+03  0.00000000000E+00 0. -1.
         -5    1    3    3    0  503  0.34176510748E+02  0.28844152387E+02  0.52984511081E+02  0.69494369760E+02  0.47000000000E+01 0.  1.
         15    1    4    4    0    0  0.69381498968E+01  0.71916100949E+00  0.15046712369E+02  0.16679820103E+02  0.17770000000E+01 0. -1.
        -16    1    4    4    0    0 -0.12974668685E+03  0.74005930021E+02  0.18587669537E+02  0.15052103469E+03  0.00000000000E+00 0.  1.
<mgrwt>
<rscale>  2 0.22010778E+03</rscale>
<asrwt>0</asrwt>
<pdfrwt beam="1">  1       21 0.82096143E-01 0.22027664E+03</pdfrwt>
<pdfrwt beam="2">  1       21 0.16530810E-01 0.22027664E+03</pdfrwt>
<totfact> 0.42008994E+04</totfact>
</mgrwt>
</event>
<event>
12    2  0.4097182E-002  0.1882314E+03  0.7546771E-02  0.1162703E+00
         21   -1    0    0  501  502  0.00000000000E+00  0.00000000000E+00  0.55347988017E+02  0.55347988017E+02  0.00000000000E+00 0.  1.
         21   -1    0    0  502  503 -0.00000000000E+00 -0.00000000000E+00 -0.90813801836E+03  0.90813801836E+03  0.00000000000E+00 0.  1.
         -6    2    1    2    0  503 -0.23242301770E+02 -0.22674643234E+02 -0.71435079425E+03  0.73873413752E+03  0.18540961316E+03 0.  0.
        -24    2    3    3    0    0  0.27749380871E+02 -0.71490942091E+02 -0.29626698422E+03  0.31470660900E+03  0.73383519063E+02 0.  0.
          6    2    1    2  501    0  0.23242301770E+02  0.22674643234E+02 -0.13843923609E+03  0.22475186886E+03  0.17405067201E+03 0.  0.
         24    2    5    5    0    0 -0.53708976672E+02  0.29312896429E+01 -0.57774722172E+02  0.11143746963E+03  0.78658403762E+02 0.  0.
          5    1    5    5  501    0  0.76951278443E+02  0.19743353591E+02 -0.80664513921E+02  0.11331439922E+03  0.47000000000E+01 0. -1.
        -15    1    6    6    0    0 -0.39517132419E+02 -0.35190243758E+02 -0.42837582124E+02  0.68104134834E+02  0.17770000000E+01 0.  1.
         16    1    6    6    0    0 -0.14191844254E+02  0.38121533400E+02 -0.14937140047E+02  0.43333334800E+02  0.00000000000E+00 0. -1.
         -5    1    3    3    0  503 -0.50991682641E+02  0.48816298857E+02 -0.41808381004E+03  0.42402752853E+03  0.47000000000E+01 0.  1.
         15    1    4    4    0    0  0.48400080831E+02 -0.24499377219E+02 -0.16802148137E+03  0.17657056165E+03  0.17770000000E+01 0. -1.
        -16    1    4    4    0    0 -0.20650699960E+02 -0.46991564872E+02 -0.12824550284E+03  0.13813604735E+03  0.00000000000E+00 0.  1.
<mgrwt>
<rscale>  2 0.18537249E+03</rscale>
<asrwt>0</asrwt>
<pdfrwt beam="1">  1       21 0.85150757E-02 0.18823142E+03</pdfrwt>
<pdfrwt beam="2">  1       21 0.13971353E+00 0.18823142E+03</pdfrwt>
<totfact> 0.38815355E+04</totfact>
</mgrwt>
</event>
<event>
12    2  0.4097182E-002  0.4295063E+03  0.7546771E-02  0.1034042E+00
         21   -1    0    0  501  502  0.00000000000E+00  0.00000000000E+00  0.42585138922E+03  0.42585138922E+03  0.00000000000E+00 0.  1.
         21   -1    0    0  502  503 -0.00000000000E+00 -0.00000000000E+00 -0.44337314093E+03  0.44337314093E+03  0.00000000000E+00 0. -1.
         -6    2    1    2    0  503  0.58559101201E+02 -0.38903626237E+03 -0.75681725107E+02  0.43579833794E+03  0.17150535287E+03 0.  0.
        -24    2    3    3    0    0  0.70022312094E+02 -0.21023471500E+03 -0.98739989551E+02  0.25509091666E+03  0.78867170892E+02 0.  0.
          6    2    1    2  501    0 -0.58559101201E+02  0.38903626237E+03  0.58159973392E+02  0.43342619221E+03  0.17232904520E+03 0.  0.
         24    2    5    5    0    0  0.14247405854E+02  0.25184754730E+03 -0.60482732493E+01  0.26530028716E+03  0.81960265407E+02 0.  0.
          5    1    5    5  501    0 -0.72806507055E+02  0.13718871507E+03  0.64208246642E+02  0.16812590505E+03  0.47000000000E+01 0. -1.
        -15    1    6    6    0    0  0.31099599804E+02  0.18076645028E+03  0.26483181104E+02  0.18533270425E+03  0.17770000000E+01 0.  1.
         16    1    6    6    0    0 -0.16852193950E+02  0.71081097016E+02 -0.32531454354E+02  0.79967582909E+02  0.00000000000E+00 0. -1.
         -5    1    3    3    0  503 -0.11463210893E+02 -0.17880154737E+03  0.23058264444E+02  0.18070742128E+03  0.47000000000E+01 0.  1.
         15    1    4    4    0    0  0.85751466671E+02 -0.19537208081E+03 -0.86568490589E+02  0.23026251386E+03  0.17770000000E+01 0. -1.
        -16    1    4    4    0    0 -0.15729154577E+02 -0.14862634186E+02 -0.12171498961E+02  0.24828402800E+02  0.00000000000E+00 0.  1.
<mgrwt>
<rscale>  2 0.42942384E+03</rscale>
<asrwt>0</asrwt>
<pdfrwt beam="1">  1       21 0.65515598E-01 0.42950632E+03</pdfrwt>
<pdfrwt beam="2">  1       21 0.68211252E-01 0.42950632E+03</pdfrwt>
<totfact> 0.37016220E+03</totfact>
</mgrwt>
</event>
<event>
12    2  0.4097182E-002  0.1733084E+03  0.7546771E-02  0.1175286E+00
         21   -1    0    0  501  502  0.00000000000E+00  0.00000000000E+00  0.24810281144E+02  0.24810281144E+02  0.00000000000E+00 0.  1.
         21   -1    0    0  502  503 -0.00000000000E+00 -0.00000000000E+00 -0.16342744140E+04  0.16342744140E+04  0.00000000000E+00 0.  1.
         -6    2    1    2    0  503  0.88014591240E+01  0.45869801874E+01 -0.12439331365E+04  0.12559480230E+04  0.17302393552E+03 0.  0.
        -24    2    3    3    0    0  0.53869466883E+02  0.50235071367E+02 -0.78206198953E+03  0.78961989820E+03  0.80331477701E+02 0.  0.
          6    2    1    2  501    0 -0.88014591240E+01 -0.45869801874E+01 -0.36553099631E+03  0.40313667212E+03  0.16972849224E+03 0.  0.
         24    2    5    5    0    0 -0.11264472850E+02  0.60240886125E+02 -0.26518574625E+03  0.28355415711E+03  0.79521237988E+02 0.  0.
          5    1    5    5  501    0  0.24630137261E+01 -0.64827866312E+02 -0.10034525006E+03  0.11958251501E+03  0.47000000000E+01 0. -1.
        -15    1    6    6    0    0  0.18351226614E+02  0.20577775568E+02 -0.21822643116E+02  0.35207923073E+02  0.17770000000E+01 0.  1.
         16    1    6    6    0    0 -0.29615699464E+02  0.39663110557E+02 -0.24336310313E+03  0.24834623404E+03  0.00000000000E+00 0. -1.
         -5    1    3    3    0  503 -0.45068007759E+02 -0.45648091179E+02 -0.46187114701E+03  0.46632812482E+03  0.47000000000E+01 0.  1.
         15    1    4    4    0    0  0.17600897266E+02  0.32102509448E+02 -0.10263114458E+03  0.10898014619E+03  0.17770000000E+01 0. -1.
        -16    1    4    4    0    0  0.36268569617E+02  0.18132561919E+02 -0.67943084495E+03  0.68063975201E+03  0.00000000000E+00 0.  1.
<mgrwt>
<rscale>  2 0.17247996E+03</rscale>
<asrwt>0</asrwt>
<pdfrwt beam="1">  1       21 0.38169659E-02 0.17330836E+03</pdfrwt>
<pdfrwt beam="2">  1       21 0.25142686E+00 0.17330836E+03</pdfrwt>
<totfact> 0.28111564E+04</totfact>
</mgrwt>
</event>
<event>
12    2  0.4097182E-002  0.1778925E+03  0.7546771E-02  0.1170691E+00
         21   -1    0    0  503  502  0.00000000000E+00  0.00000000000E+00  0.39161939286E+03  0.39161939286E+03  0.00000000000E+00 0. -1.
         21   -1    0    0  501  503 -0.00000000000E+00 -0.00000000000E+00 -0.84960120543E+02  0.84960120543E+02  0.00000000000E+00 0. -1.
          6    2    1    2  501    0 -0.34288278281E+02  0.23527452517E+02  0.93139867188E+02  0.20080037974E+03  0.17296395750E+03 0.  0.
         24    2    3    3    0    0  0.13876769596E+02 -0.14743541058E+02 -0.11494381350E+02  0.79330396810E+02  0.75837024717E+02 0.  0.
         -6    2    1    2    0  502  0.34288278281E+02 -0.23527452517E+02  0.21351940513E+03  0.27577913367E+03  0.16951214454E+03 0.  0.
        -24    2    5    5    0    0  0.19191745174E+02  0.47871615884E+02  0.15765749568E+03  0.18375535843E+03  0.79057770766E+02 0.  0.
          5    1    3    3  501    0 -0.48165047877E+02  0.38270993575E+02  0.10463424854E+03  0.12146998293E+03  0.47000000000E+01 0. -1.
        -15    1    4    4    0    0 -0.84506386202E+01  0.33906680159E+01  0.28553736664E+02  0.30023049964E+02  0.17770000000E+01 0.  1.
         16    1    4    4    0    0  0.22327408216E+02 -0.18134209074E+02 -0.40048118015E+02  0.49307346845E+02  0.00000000000E+00 0. -1.
         -5    1    5    5    0  502  0.15096533107E+02 -0.71399068401E+02  0.55861909454E+02  0.92023775234E+02  0.47000000000E+01 0.  1.
         15    1    6    6    0    0 -0.79787922832E+01 -0.19729567076E+02  0.40662139315E+02  0.45929121982E+02  0.17770000000E+01 0. -1.
        -16    1    6    6    0    0  0.27170537458E+02  0.67601182960E+02  0.11699535636E+03  0.13782623645E+03  0.00000000000E+00 0.  1.
<mgrwt>
<rscale>  2 0.17704797E+03</rscale>
<asrwt>0</asrwt>
<pdfrwt beam="1">  1       21 0.60249136E-01 0.17789255E+03</pdfrwt>
<pdfrwt beam="2">  1       21 0.13070788E-01 0.17789255E+03</pdfrwt>
<totfact> 0.12994519E+05</totfact>
</mgrwt>
</event>
<event>
12    2  0.4097182E-002  0.1777478E+03  0.7546771E-02  0.1170099E+00
         21   -1    0    0  503  502  0.00000000000E+00  0.00000000000E+00  0.33090331854E+03  0.33090331854E+03  0.00000000000E+00 0. -1.
         21   -1    0    0  501  503 -0.00000000000E+00 -0.00000000000E+00 -0.10520925297E+03  0.10520925297E+03  0.00000000000E+00 0. -1.
          6    2    1    2  501    0 -0.15525563558E+02  0.37703957418E+02  0.45923108842E+02  0.18358433350E+03  0.17300764160E+03 0.  0.
         24    2    3    3    0    0  0.12165194013E+02  0.87500846543E+02  0.42065314381E+02  0.12628266861E+03  0.79833774968E+02 0.  0.
         -6    2    1    2    0  502  0.15525563558E+02 -0.37703957418E+02  0.17977095673E+03  0.25252823801E+03  0.17259861697E+03 0.  0.
        -24    2    5    5    0    0  0.22232427446E+02  0.24164716698E+02  0.16778858966E+03  0.18897997304E+03  0.80512142110E+02 0.  0.
          5    1    3    3  501    0 -0.27690757571E+02 -0.49796889124E+02  0.38577944603E+01  0.57301664892E+02  0.47000000000E+01 0. -1.
        -15    1    4    4    0    0  0.18107276879E+02  0.27040299748E+02  0.55222137301E+02  0.64122487970E+02  0.17770000000E+01 0.  1.
         16    1    4    4    0    0 -0.59420828659E+01  0.60460546795E+02 -0.13156822920E+02  0.62160180638E+02  0.00000000000E+00 0. -1.
         -5    1    5    5    0  502 -0.67068638874E+01 -0.61868674116E+02  0.11982367070E+02  0.63548264970E+02  0.47000000000E+01 0.  1.
         15    1    6    6    0    0 -0.15586587924E+02 -0.11940331828E+02  0.10698762023E+03  0.10878888665E+03  0.17770000000E+01 0. -1.
        -16    1    6    6    0    0  0.37819015370E+02  0.36105048526E+02  0.60800969429E+02  0.80191086388E+02  0.00000000000E+00 0.  1.
<mgrwt>
<rscale>  2 0.17764818E+03</rscale>
<asrwt>0</asrwt>
<pdfrwt beam="1">  1       21 0.50908202E-01 0.17774779E+03</pdfrwt>
<pdfrwt beam="2">  1       21 0.16186039E-01 0.17774779E+03</pdfrwt>
<totfact> 0.12593666E+05</totfact>
</mgrwt>
</event>
<event>
12    2  0.4097182E-002  0.1729101E+03  0.7546771E-02  0.1175327E+00
         21   -1    0    0  501  502  0.00000000000E+00  0.00000000000E+00  0.57775260544E+03  0.57775260544E+03  0.00000000000E+00 0.  1.
         21   -1    0    0  502  503 -0.00000000000E+00 -0.00000000000E+00 -0.22901907048E+03  0.22901907048E+03  0.00000000000E+00 0.  1.
         -6    2    1    2    0  503 -0.38310279883E+02 -0.80741394730E+01 -0.18130147754E+03  0.24924587169E+03  0.16649447295E+03 0.  0.
        -24    2    3    3    0    0 -0.45335025347E+01 -0.64909251028E+02 -0.12577451118E+03  0.16277949333E+03  0.80275601967E+02 0.  0.
          6    2    1    2  501    0  0.38310279883E+02  0.80741394730E+01  0.53003501250E+03  0.55752580423E+03  0.16841923475E+03 0.  0.
         24    2    5    5    0    0  0.22998416573E+02  0.86235920358E+01  0.53415146906E+03  0.54097919519E+03  0.82081692371E+02 0.  0.
          5    1    5    5  501    0  0.15311863310E+02 -0.54945256281E+00 -0.41164565622E+01  0.16546609041E+02  0.47000000000E+01 0. -1.
        -15    1    6    6    0    0 -0.62693478262E+01 -0.32128213901E+02  0.14834958771E+03  0.15192855148E+03  0.17770000000E+01 0.  1.
         16    1    6    6    0    0  0.29267764400E+02  0.40751805936E+02  0.38580188135E+03  0.38905064371E+03  0.00000000000E+00 0. -1.
         -5    1    3    3    0  503 -0.33776777348E+02  0.56835111555E+02 -0.55526966361E+02  0.86466378360E+02  0.47000000000E+01 0.  1.
         15    1    4    4    0    0  0.11350549957E+02  0.14836810350E+02 -0.98851312402E+01  0.21209419471E+02  0.17770000000E+01 0. -1.
        -16    1    4    4    0    0 -0.15884052492E+02 -0.79746061377E+02 -0.11588937994E+03  0.14157007385E+03  0.00000000000E+00 0.  1.
<mgrwt>
<rscale>  2 0.17243964E+03</rscale>
<asrwt>0</asrwt>
<pdfrwt beam="1">  1       21 0.88885016E-01 0.17291012E+03</pdfrwt>
<pdfrwt beam="2">  1       21 0.35233703E-01 0.17291012E+03</pdfrwt>
<totfact> 0.85207350E+03</totfact>
</mgrwt>
</event>
<event>
12    2  0.4097182E-002  0.2132495E+03  0.7546771E-02  0.1139162E+00
         21   -1    0    0  501  502  0.00000000000E+00  0.00000000000E+00  0.35463183367E+03  0.35463183367E+03  0.00000000000E+00 0.  1.
         21   -1    0    0  502  503 -0.00000000000E+00 -0.00000000000E+00 -0.20292248250E+03  0.20292248250E+03  0.00000000000E+00 0. -1.
         -6    2    1    2    0  503  0.82311759339E+01 -0.12286542124E+03 -0.93860211941E+02  0.23231631122E+03  0.17319776292E+03 0.  0.
        -24    2    3    3    0    0 -0.86648388754E+01 -0.94506065258E+02 -0.13207099748E+03  0.18160258014E+03  0.80810104172E+02 0.  0.
          6    2    1    2  501    0 -0.82311759339E+01  0.12286542124E+03  0.24556956311E+03  0.32523800494E+03  0.17410251444E+03 0.  0.
         24    2    5    5    0    0  0.15228630356E+02  0.10712644950E+03  0.25958373359E+03  0.29335439289E+03  0.83457160970E+02 0.  0.
          5    1    5    5  501    0 -0.23459806290E+02  0.15738971743E+02 -0.14014170485E+02  0.31883612046E+02  0.47000000000E+01 0. -1.
        -15    1    6    6    0    0  0.19056473014E+02  0.11932035019E+03  0.21138311683E+03  0.24348814128E+03  0.17770000000E+01 0.  1.
         16    1    6    6    0    0 -0.38278426579E+01 -0.12193900692E+02  0.48200616761E+02  0.49866251610E+02  0.00000000000E+00 0. -1.
         -5    1    3    3    0  503  0.16896014809E+02 -0.28359355986E+02  0.38210785540E+02  0.50713731079E+02  0.47000000000E+01 0.  1.
         15    1    4    4    0    0  0.13242011965E+02 -0.18839608657E+02 -0.88742584593E+02  0.91698886495E+02  0.17770000000E+01 0. -1.
        -16    1    4    4    0    0 -0.21906850841E+02 -0.75666456601E+02 -0.43328412887E+02  0.89903693649E+02  0.00000000000E+00 0.  1.
<mgrwt>
<rscale>  2 0.21306476E+03</rscale>
<asrwt>0</asrwt>
<pdfrwt beam="1">  1       21 0.54558744E-01 0.21324950E+03</pdfrwt>
<pdfrwt beam="2">  1       21 0.31218843E-01 0.21324950E+03</pdfrwt>
<totfact> 0.30933816E+04</totfact>
</mgrwt>
</event>
<event>
12    2  0.4097182E-002  0.1885398E+03  0.7546771E-02  0.1159791E+00
         21   -1    0    0  501  502  0.00000000000E+00  0.00000000000E+00  0.14839723935E+03  0.14839723935E+03  0.00000000000E+00 0.  1.
         21   -1    0    0  502  503 -0.00000000000E+00 -0.00000000000E+00 -0.27026619200E+03  0.27026619200E+03  0.00000000000E+00 0. -1.
         -6    2    1    2    0  503 -0.30028375560E+02  0.68615788163E+02 -0.13155587882E+03  0.22990045168E+03  0.17302438761E+03 0.  0.
        -24    2    3    3    0    0 -0.22620185099E+02  0.43309183361E+02 -0.16344304972E+03  0.18825687834E+03  0.79622004516E+02 0.  0.
          6    2    1    2  501    0  0.30028375560E+02 -0.68615788163E+02  0.96869261771E+01  0.18876297967E+03  0.17299652086E+03 0.  0.
         24    2    5    5    0    0 -0.46385144308E+02 -0.46721141981E+02  0.27701086963E+02  0.10712351900E+03  0.79835151298E+02 0.  0.
          5    1    5    5  501    0  0.76413519867E+02 -0.21894646182E+02 -0.18014160786E+02  0.81639460672E+02  0.47000000000E+01 0. -1.
        -15    1    6    6    0    0 -0.55155634973E+02 -0.58117400336E+01  0.33602039362E+02  0.64870449126E+02  0.17770000000E+01 0.  1.
         16    1    6    6    0    0  0.87704906659E+01 -0.40909401948E+02 -0.59009523993E+01  0.42253069870E+02  0.00000000000E+00 0. -1.
         -5    1    3    3    0  503 -0.74081904612E+01  0.25306604802E+02  0.31887170901E+02  0.41643573341E+02  0.47000000000E+01 0.  1.
         15    1    4    4    0    0 -0.27345723624E+02  0.53745523102E+01 -0.14139566439E+03  0.14412690953E+03  0.17770000000E+01 0. -1.
        -16    1    4    4    0    0  0.47255385254E+01  0.37934631051E+02 -0.22047385330E+02  0.44129968810E+02  0.00000000000E+00 0.  1.
<mgrwt>
<rscale>  2 0.18853344E+03</rscale>
<asrwt>0</asrwt>
<pdfrwt beam="1">  1       21 0.22830345E-01 0.18853983E+03</pdfrwt>
<pdfrwt beam="2">  1       21 0.41579414E-01 0.18853983E+03</pdfrwt>
<totfact> 0.10039179E+05</totfact>
</mgrwt>
</event>
<event>
12    2  0.4097182E-002  0.1907736E+03  0.7546771E-02  0.1157852E+00
         21   -1    0    0  501  502  0.00000000000E+00  0.00000000000E+00  0.18352371030E+03  0.18352371030E+03  0.00000000000E+00 0. -1.
         21   -1    0    0  502  503 -0.00000000000E+00 -0.00000000000E+00 -0.48045831816E+03  0.48045831816E+03  0.00000000000E+00 0. -1.
         -6    2    1    2    0  503  0.77587205335E+02  0.14395622304E+02 -0.40312286974E+03  0.44598501222E+03  0.17368815343E+03 0.  0.
        -24    2    3    3    0    0  0.15534174375E+02  0.40362508256E+02 -0.10534617911E+03  0.14066893779E+03  0.82580203205E+02 0.  0.
          6    2    1    2  501    0 -0.77587205335E+02 -0.14395622304E+02  0.10618826188E+03  0.21799701624E+03  0.17326206669E+03 0.  0.
         24    2    5    5    0    0 -0.29724826725E+02 -0.22962385666E+02  0.13468148843E+03  0.16144482194E+03  0.80712395119E+02 0.  0.
          5    1    5    5  501    0 -0.47862378610E+02  0.85667633619E+01 -0.28493226549E+02  0.56552194298E+02  0.47000000000E+01 0. -1.
        -15    1    6    6    0    0 -0.33374095128E+02  0.11787934018E+02  0.18208021989E+02  0.39843135014E+02  0.17770000000E+01 0.  1.
         16    1    6    6    0    0  0.36492684031E+01 -0.34750319684E+02  0.11647346644E+03  0.12160168693E+03  0.00000000000E+00 0. -1.
         -5    1    3    3    0  503  0.62053030959E+02 -0.25966885952E+02 -0.29777669064E+03  0.30531607443E+03  0.47000000000E+01 0.  1.
         15    1    4    4    0    0  0.28212252391E+02  0.45470111209E+02 -0.11297207880E+03  0.12501724088E+03  0.17770000000E+01 0. -1.
        -16    1    4    4    0    0 -0.12678078016E+02 -0.51076029532E+01  0.76258996985E+01  0.15651696915E+02  0.00000000000E+00 0.  1.
<mgrwt>
<rscale>  2 0.19067661E+03</rscale>
<asrwt>0</asrwt>
<pdfrwt beam="1">  1       21 0.28234417E-01 0.19077364E+03</pdfrwt>
<pdfrwt beam="2">  1       21 0.73916664E-01 0.19077364E+03</pdfrwt>
<totfact> 0.19712237E+04</totfact>
</mgrwt>
</event>
<event>
12    2  0.4097182E-002  0.2503974E+03  0.7546771E-02  0.1113112E+00
         21   -1    0    0  501  502  0.00000000000E+00  0.00000000000E+00  0.64703062012E+03  0.64703062012E+03  0.00000000000E+00 0. -1.
         21   -1    0    0  502  503 -0.00000000000E+00 -0.00000000000E+00 -0.11961078126E+03  0.11961078126E+03  0.00000000000E+00 0. -1.
         -6    2    1    2    0  503  0.14801521997E+03 -0.10440166166E+03  0.96015305103E+02  0.26783410622E+03  0.17235996444E+03 0.  0.
        -24    2    3    3    0    0  0.11136362686E+03 -0.14938982147E+02  0.99922428658E+01  0.13833905790E+03  0.80080081475E+02 0.  0.
          6    2    1    2  501    0 -0.14801521997E+03  0.10440166166E+03  0.43140453375E+03  0.49880729516E+03  0.17288907907E+03 0.  0.
         24    2    5    5    0    0 -0.62022924836E+02  0.47850258353E+00  0.26164447450E+03  0.28193114264E+03  0.84736450143E+02 0.  0.
          5    1    5    5  501    0 -0.85992295133E+02  0.10392315908E+03  0.16976005926E+03  0.21687615253E+03  0.47000000000E+01 0. -1.
        -15    1    6    6    0    0 -0.18638383515E+02 -0.17251306422E+02  0.12399261638E+02  0.28317774127E+02  0.17770000000E+01 0.  1.
         16    1    6    6    0    0 -0.43384541320E+02  0.17729809006E+02  0.24924521286E+03  0.25361336851E+03  0.00000000000E+00 0. -1.
         -5    1    3    3    0  503  0.36651593113E+02 -0.89462679516E+02  0.86023062238E+02  0.12949504832E+03  0.47000000000E+01 0.  1.
         15    1    4    4    0    0  0.31511379392E+02 -0.42354649520E+02 -0.30562481092E+01  0.52909183973E+02  0.17770000000E+01 0. -1.
        -16    1    4    4    0    0  0.79852247463E+02  0.27415667373E+02  0.13048490975E+02  0.85429873927E+02  0.00000000000E+00 0.  1.
<mgrwt>
<rscale>  2 0.25030607E+03</rscale>
<asrwt>0</asrwt>
<pdfrwt beam="1">  1       21 0.99543170E-01 0.25039738E+03</pdfrwt>
<pdfrwt beam="2">  1       21 0.18401659E-01 0.25039738E+03</pdfrwt>
<totfact> 0.21663140E+04</totfact>
</mgrwt>
</event>
<event>
12    2  0.4097182E-002  0.1835809E+03  0.7546771E-02  0.1164446E+00
         21   -1    0    0  503  502  0.00000000000E+00  0.00000000000E+00  0.18268350311E+03  0.18268350311E+03  0.00000000000E+00 0.  1.
         21   -1    0    0  501  503 -0.00000000000E+00 -0.00000000000E+00 -0.74054141159E+03  0.74054141159E+03  0.00000000000E+00 0.  1.
          6    2    1    2  501    0  0.27741553877E+02 -0.55027728819E+02 -0.67908169630E+03  0.70345851752E+03  0.17292857160E+03 0.  0.
         24    2    3    3    0    0  0.78666812116E+02 -0.17163466192E+02 -0.34585077669E+03  0.36420636927E+03  0.80934960174E+02 0.  0.
         -6    2    1    2    0  502 -0.27741553877E+02  0.55027728819E+02  0.12122378782E+03  0.21976639717E+03  0.17263956048E+03 0.  0.
        -24    2    5    5    0    0 -0.89563893486E+01  0.98685164660E+02  0.95843826252E+02  0.16568232780E+03  0.91900033085E+02 0.  0.
          5    1    3    3  501    0 -0.50925258238E+02 -0.37864262627E+02 -0.33323091961E+03  0.33925214825E+03  0.47000000000E+01 0. -1.
        -15    1    4    4    0    0  0.75523218146E+02 -0.54121672036E+01 -0.34358384445E+03  0.35183243729E+03  0.17770000000E+01 0.  1.
         16    1    4    4    0    0  0.31435939694E+01 -0.11751298988E+02 -0.22669322462E+01  0.12373931985E+02  0.00000000000E+00 0. -1.
         -5    1    5    5    0  502 -0.18785164529E+02 -0.43657435842E+02  0.25379961566E+02  0.54084069371E+02  0.47000000000E+01 0.  1.
         15    1    6    6    0    0  0.38996689404E+02  0.22307706148E+02  0.32298518741E+02  0.55359981755E+02  0.17770000000E+01 0. -1.
        -16    1    6    6    0    0 -0.47953078752E+02  0.76377458512E+02  0.63545307511E+02  0.11032234605E+03  0.00000000000E+00 0.  1.
<mgrwt>
<rscale>  2 0.18351278E+03</rscale>
<asrwt>0</asrwt>
<pdfrwt beam="1">  1       21 0.28105154E-01 0.18358087E+03</pdfrwt>
<pdfrwt beam="2">  1       21 0.11392945E+00 0.18358087E+03</pdfrwt>
<totfact> 0.73047736E+03</totfact>
</mgrwt>
</event>
<event>
12    2  0.4097182E-002  0.3082476E+03  0.7546771E-02  0.1081704E+00
         21   -1    0    0  501  502  0.00000000000E+00  0.00000000000E+00  0.29622275751E+03  0.29622275751E+03  0.00000000000E+00 0. -1.
         21   -1    0    0  502  503 -0.00000000000E+00 -0.00000000000E+00 -0.33713263562E+03  0.33713263562E+03  0.00000000000E+00 0.  1.
         -6    2    1    2    0  503 -0.24824831280E+03 -0.33857779454E+02 -0.98917384860E+02  0.31969722618E+03  0.17218621711E+03 0.  0.
        -24    2    3    3    0    0 -0.72529772587E+02  0.21119188378E+02  0.21576208959E+02  0.99605725847E+02  0.61230546292E+02 0.  0.
          6    2    1    2  501    0  0.24824831280E+03  0.33857779454E+02  0.58007506755E+02  0.31365816696E+03  0.17956336158E+03 0.  0.
         24    2    5    5    0    0  0.17605520735E+03  0.91129237679E+02  0.19457061764E+02  0.21365771091E+03  0.77272674230E+02 0.  0.
          5    1    5    5  501    0  0.72193105442E+02 -0.57271458225E+02  0.38550444991E+02  0.10000045605E+03  0.47000000000E+01 0. -1.
        -15    1    6    6    0    0  0.81976843466E+02  0.71302120119E+02 -0.18623436159E+02  0.11024602170E+03  0.17770000000E+01 0.  1.
         16    1    6    6    0    0  0.94078363887E+02  0.19827117560E+02  0.38080497923E+02  0.10341168921E+03  0.00000000000E+00 0. -1.
         -5    1    3    3    0  503 -0.17571854021E+03 -0.54976967832E+02 -0.12049359382E+03  0.22009150033E+03  0.47000000000E+01 0.  1.
         15    1    4    4    0    0 -0.54761529679E+02 -0.64513126006E+01 -0.76214235504E+01  0.55692803781E+02  0.17770000000E+01 0. -1.
        -16    1    4    4    0    0 -0.17768242908E+02  0.27570500978E+02  0.29197632510E+02  0.43912922066E+02  0.00000000000E+00 0.  1.
<mgrwt>
<rscale>  2 0.30718251E+03</rscale>
<asrwt>0</asrwt>
<pdfrwt beam="1">  1       21 0.45572732E-01 0.30824759E+03</pdfrwt>
<pdfrwt beam="2">  1       21 0.51866559E-01 0.30824759E+03</pdfrwt>
<totfact> 0.15360722E+04</totfact>
</mgrwt>
</event>
<event>
12    2  0.4097182E-002  0.2572634E+03  0.7546771E-02  0.1108853E+00
         21   -1    0    0  503  502  0.00000000000E+00  0.00000000000E+00  0.13649361531E+03  0.13649361531E+03  0.00000000000E+00 0.  1.
         21   -1    0    0  501  503 -0.00000000000E+00 -0.00000000000E+00 -0.58765247169E+03  0.58765247169E+03  0.00000000000E+00 0.  1.
          6    2    1    2  501    0 -0.79095235994E+02 -0.17276678735E+03 -0.37735407748E+03  0.45650527299E+03  0.17290617489E+03 0.  0.
         24    2    3    3    0    0 -0.37651031255E+02 -0.32544510740E+02 -0.23221306529E+03  0.25042783031E+03  0.79463483238E+02 0.  0.
         -6    2    1    2    0  502  0.79095235994E+02  0.17276678735E+03 -0.73804778909E+02  0.26764081400E+03  0.17343598462E+03 0.  0.
        -24    2    5    5    0    0 -0.11666860251E+02  0.59655741147E+02 -0.75335657361E+02  0.12253292146E+03  0.75126110590E+02 0.  0.
          5    1    3    3  501    0 -0.41444204740E+02 -0.14022227661E+03 -0.14514101218E+03  0.20607744268E+03  0.47000000000E+01 0. -1.
        -15    1    4    4    0    0  0.23089634040E+02 -0.21430841985E+02 -0.90620880595E+02  0.95956833613E+02  0.17770000000E+01 0.  1.
         16    1    4    4    0    0 -0.60740665295E+02 -0.11113668755E+02 -0.14159218470E+03  0.15447099670E+03  0.00000000000E+00 0. -1.
         -5    1    5    5    0  502  0.90762096245E+02  0.11311104620E+03  0.15308784513E+01  0.14510789254E+03  0.47000000000E+01 0.  1.
         15    1    6    6    0    0  0.28201781990E+02  0.20175903505E+02 -0.50233205441E+02  0.61065049312E+02  0.17770000000E+01 0. -1.
        -16    1    6    6    0    0 -0.39868642241E+02  0.39479837641E+02 -0.25102451920E+02  0.61467872151E+02  0.00000000000E+00 0.  1.
<mgrwt>
<rscale>  2 0.25717414E+03</rscale>
<asrwt>0</asrwt>
<pdfrwt beam="1">  1       21 0.20999018E-01 0.25726341E+03</pdfrwt>
<pdfrwt beam="2">  1       21 0.90408073E-01 0.25726341E+03</pdfrwt>
<totfact> 0.21149259E+04</totfact>
</mgrwt>
</event>
<event>
12    2  0.4097182E-002  0.1750960E+03  0.7546771E-02  0.1172857E+00
         21   -1    0    0  503  502  0.00000000000E+00  0.00000000000E+00  0.26901967476E+03  0.26901967476E+03  0.00000000000E+00 0.  1.
         21   -1    0    0  501  503 -0.00000000000E+00 -0.00000000000E+00 -0.12589126037E+03  0.12589126037E+03  0.00000000000E+00 0.  1.
          6    2    1    2  501    0 -0.19891780762E+02 -0.11430840560E+01  0.95090379698E+01  0.17535403401E+03  0.17395869009E+03 0.  0.
         24    2    3    3    0    0  0.51930650509E+02  0.62064552270E+00 -0.21397454125E+02  0.97003069563E+02  0.79085819200E+02 0.  0.
         -6    2    1    2    0  502  0.19891780762E+02  0.11430840560E+01  0.13361937642E+03  0.21955690112E+03  0.17307254401E+03 0.  0.
        -24    2    5    5    0    0  0.12231244276E+02  0.26292706129E+02  0.46227134587E+01  0.87824534689E+02  0.82769980558E+02 0.  0.
          5    1    3    3  501    0 -0.71822431271E+02 -0.17637295787E+01  0.30906492095E+02  0.78350964444E+02  0.47000000000E+01 0. -1.
        -15    1    4    4    0    0  0.74792020206E+01  0.13355001511E+02 -0.43211085102E+02  0.45876466003E+02  0.17770000000E+01 0.  1.
         16    1    4    4    0    0  0.44451448489E+02 -0.12734355989E+02  0.21813630977E+02  0.51126603560E+02  0.00000000000E+00 0. -1.
         -5    1    5    5    0  502  0.76605364859E+01 -0.25149622073E+02  0.12899666296E+03  0.13173236643E+03  0.47000000000E+01 0.  1.
         15    1    6    6    0    0 -0.85110935630E+01 -0.25021669502E+02  0.16511577877E+02  0.31213980703E+02  0.17770000000E+01 0. -1.
        -16    1    6    6    0    0  0.20742337839E+02  0.51314375631E+02 -0.11888864419E+02  0.56610553986E+02  0.00000000000E+00 0.  1.
<mgrwt>
<rscale>  2 0.17487551E+03</rscale>
<asrwt>0</asrwt>
<pdfrwt beam="1">  1       21 0.41387642E-01 0.17509602E+03</pdfrwt>
<pdfrwt beam="2">  1       21 0.19367886E-01 0.17509602E+03</pdfrwt>
<totfact> 0.13858785E+05</totfact>
</mgrwt>
</event>
<event>
12    2  0.4097182E-002  0.2012362E+03  0.7546771E-02  0.1148928E+00
         21   -1    0    0  501  502  0.00000000000E+00  0.00000000000E+00  0.10163339684E+03  0.10163339684E+03  0.00000000000E+00 0. -1.
         21   -1    0    0  502  503 -0.00000000000E+00 -0.00000000000E+00 -0.92772919355E+03  0.92772919355E+03  0.00000000000E+00 0. -1.
         -6    2    1    2    0  503 -0.77715255579E+02 -0.64011871039E+02 -0.80306081587E+03  0.82789049565E+03  0.17423782083E+03 0.  0.
        -24    2    3    3    0    0 -0.79909726647E+02 -0.11010994596E+03 -0.60650173921E+03  0.62593156707E+03  0.73730606753E+02 0.  0.
          6    2    1    2  501    0  0.77715255579E+02  0.64011871039E+02 -0.23034980844E+02  0.20147209474E+03  0.17298327675E+03 0.  0.
         24    2    5    5    0    0  0.94348071602E+02 -0.41396516624E+01  0.12255714820E+02  0.12280314397E+03  0.77535245485E+02 0.  0.
          5    1    5    5  501    0 -0.16632816023E+02  0.68151522701E+02 -0.35290695664E+02  0.78668950774E+02  0.47000000000E+01 0. -1.
        -15    1    6    6    0    0  0.50532218534E+00 -0.18833567535E+02  0.19960208042E+02  0.27505022281E+02  0.17770000000E+01 0.  1.
         16    1    6    6    0    0  0.93842749417E+02  0.14693915872E+02 -0.77044932220E+01  0.95298121690E+02  0.00000000000E+00 0. -1.
         -5    1    3    3    0  503  0.21944710679E+01  0.46098074924E+02 -0.19655907666E+03  0.20195892858E+03  0.47000000000E+01 0.  1.
         15    1    4    4    0    0 -0.14711622782E+02 -0.62304481252E+02 -0.16316101918E+03  0.17527965124E+03  0.17770000000E+01 0. -1.
        -16    1    4    4    0    0 -0.65198103865E+02 -0.47805464712E+02 -0.44334072003E+03  0.45065191583E+03  0.00000000000E+00 0.  1.
<mgrwt>
<rscale>  2 0.20096431E+03</rscale>
<asrwt>0</asrwt>
<pdfrwt beam="1">  1       21 0.15635907E-01 0.20123618E+03</pdfrwt>
<pdfrwt beam="2">  1       21 0.14272757E+00 0.20123618E+03</pdfrwt>
<totfact> 0.12302101E+04</totfact>
</mgrwt>
</event>
<event>
12    2  0.4097182E-002  0.2048453E+03  0.7546771E-02  0.1146000E+00
         21   -1    0    0  501  502  0.00000000000E+00  0.00000000000E+00  0.59473760415E+03  0.59473760415E+03  0.00000000000E+00 0. -1.
         21   -1    0    0  502  503 -0.00000000000E+00 -0.00000000000E+00 -0.14179035261E+03  0.14179035261E+03  0.00000000000E+00 0.  1.
         -6    2    1    2    0  503 -0.69876602479E+02 -0.81053692180E+02 -0.35045618536E+02  0.20782150127E+03  0.17466865896E+03 0.  0.
        -24    2    3    3    0    0  0.16012622021E+01 -0.72657261176E+02  0.28244761549E+02  0.11186657746E+03  0.80216724911E+02 0.  0.
          6    2    1    2  501    0  0.69876602479E+02  0.81053692180E+02  0.48799287008E+03  0.52870645548E+03  0.17303477751E+03 0.  0.
         24    2    5    5    0    0  0.57735775856E-01  0.45619551170E+02  0.10537735424E+03  0.13813383040E+03  0.76781648414E+02 0.  0.
          5    1    5    5  501    0  0.69818866703E+02  0.35434141010E+02  0.38261551584E+03  0.39057262508E+03  0.47000000000E+01 0. -1.
        -15    1    6    6    0    0  0.20706678707E+02  0.35097558188E+02  0.10738598257E+03  0.11487172026E+03  0.17770000000E+01 0.  1.
         16    1    6    6    0    0 -0.20648942932E+02  0.10521992982E+02 -0.20086283329E+01  0.23262110142E+02  0.00000000000E+00 0. -1.
         -5    1    3    3    0  503 -0.71477864681E+02 -0.83964310039E+01 -0.63290380085E+02  0.95954923814E+02  0.47000000000E+01 0.  1.
         15    1    4    4    0    0  0.30031290133E+02 -0.43732802086E+00  0.12969690001E+02  0.32763397727E+02  0.17770000000E+01 0. -1.
        -16    1    4    4    0    0 -0.28430027931E+02 -0.72219933155E+02  0.15275071548E+02  0.79103179733E+02  0.00000000000E+00 0.  1.
<mgrwt>
<rscale>  2 0.20449652E+03</rscale>
<asrwt>0</asrwt>
<pdfrwt beam="1">  1       21 0.91498092E-01 0.20484526E+03</pdfrwt>
<pdfrwt beam="2">  1       21 0.21813901E-01 0.20484526E+03</pdfrwt>
<totfact> 0.19684501E+04</totfact>
</mgrwt>
</event>
<event>
12    2  0.4097182E-002  0.2197622E+03  0.7546771E-02  0.1134823E+00
         21   -1    0    0  501  502  0.00000000000E+00  0.00000000000E+00  0.83034469218E+03  0.83034469218E+03  0.00000000000E+00 0.  1.
         21   -1    0    0  502  503 -0.00000000000E+00 -0.00000000000E+00 -0.76165590031E+02  0.76165590031E+02  0.00000000000E+00 0.  1.
         -6    2    1    2    0  503 -0.37414773790E+02 -0.12294394489E+03  0.14769013408E+03  0.26143331242E+03  0.17326258181E+03 0.  0.
        -24    2    3    3    0    0 -0.61428636286E+02 -0.12567421505E+02  0.84407391867E+02  0.13187082569E+03  0.79585736329E+02 0.  0.
          6    2    1    2  501    0  0.37414773790E+02  0.12294394489E+03  0.60648896807E+03  0.64507696979E+03  0.17827043973E+03 0.  0.
         24    2    5    5    0    0  0.82224603705E+02  0.75922440852E+02  0.51143582264E+03  0.52985486621E+03  0.81574972154E+02 0.  0.
          5    1    5    5  501    0 -0.44809829915E+02  0.47021504035E+02  0.95053145428E+02  0.11522210358E+03  0.47000000000E+01 0. -1.
        -15    1    6    6    0    0  0.27386555641E+01 -0.16327789037E+02  0.67142641067E+02  0.69176505460E+02  0.17770000000E+01 0.  1.
         16    1    6    6    0    0  0.79485948141E+02  0.92250229889E+02  0.44429318158E+03  0.46067836075E+03  0.00000000000E+00 0. -1.
         -5    1    3    3    0  503  0.24013862496E+02 -0.11037652338E+03  0.63282742214E+02  0.12956248673E+03  0.47000000000E+01 0.  1.
         15    1    4    4    0    0 -0.18548089854E+02  0.31445055385E+02  0.15947952311E+02  0.39878792075E+02  0.17770000000E+01 0. -1.
        -16    1    4    4    0    0 -0.42880546432E+02 -0.44012476890E+02  0.68459439556E+02  0.91992033615E+02  0.00000000000E+00 0.  1.
<mgrwt>
<rscale>  2 0.21874454E+03</rscale>
<asrwt>0</asrwt>
<pdfrwt beam="1">  1       21 0.12774533E+00 0.21976221E+03</pdfrwt>
<pdfrwt beam="2">  1       21 0.11717784E-01 0.21976221E+03</pdfrwt>
<totfact> 0.27219723E+04</totfact>
</mgrwt>
</event>
<event>
12    2  0.4097182E-002  0.2131921E+03  0.7546771E-02  0.1139102E+00
         21   -1    0    0  501  502  0.00000000000E+00  0.00000000000E+00  0.22287948114E+03  0.22287948114E+03  0.00000000000E+00 0.  1.
         21   -1    0    0  502  503 -0.00000000000E+00 -0.00000000000E+00 -0.20388721535E+03  0.20388721535E+03  0.00000000000E+00 0. -1.
         -6    2    1    2    0  503 -0.10853809828E+03 -0.61930482605E+02  0.15381616513E+02  0.21354401560E+03  0.17247767686E+03 0.  0.
        -24    2    3    3    0    0 -0.92152467743E+02 -0.23284608143E+01 -0.43082456949E+02  0.12833235105E+03  0.78202270987E+02 0.  0.
          6    2    1    2  501    0  0.10853809828E+03  0.61930482605E+02  0.36106492833E+01  0.21322268089E+03  0.17272802726E+03 0.  0.
         24    2    5    5    0    0  0.13960853713E+03  0.62977292453E+02 -0.17050645326E+02  0.17560025306E+03  0.84190506376E+02 0.  0.
          5    1    5    5  501    0 -0.31070438846E+02 -0.10468098485E+01  0.20661294609E+02  0.37622427831E+02  0.47000000000E+01 0. -1.
        -15    1    6    6    0    0  0.13347814969E+03  0.80373547317E+02 -0.19338038103E+02  0.15701414268E+03  0.17770000000E+01 0.  1.
         16    1    6    6    0    0  0.61303874379E+01 -0.17396254864E+02  0.22873927777E+01  0.18586110382E+02  0.00000000000E+00 0. -1.
         -5    1    3    3    0  503 -0.16385630542E+02 -0.59602021791E+02  0.58464073462E+02  0.85211664551E+02  0.47000000000E+01 0.  1.
         15    1    4    4    0    0 -0.61833929102E+02 -0.13749738020E+02  0.11935937328E+02  0.64483442935E+02  0.17770000000E+01 0. -1.
        -16    1    4    4    0    0 -0.30318538641E+02  0.11421277205E+02 -0.55018394277E+02  0.63848908112E+02  0.00000000000E+00 0.  1.
<mgrwt>
<rscale>  2 0.21314139E+03</rscale>
<asrwt>0</asrwt>
<pdfrwt beam="1">  1       21 0.34289151E-01 0.21319211E+03</pdfrwt>
<pdfrwt beam="2">  1       21 0.31367264E-01 0.21319211E+03</pdfrwt>
<totfact> 0.79360353E+04</totfact>
</mgrwt>
</event>
<event>
12    2  0.4097182E-002  0.1751545E+03  0.7546771E-02  0.1173159E+00
         21   -1    0    0  503  502  0.00000000000E+00  0.00000000000E+00  0.12321706231E+04  0.12321706231E+04  0.00000000000E+00 0. -1.
         21   -1    0    0  501  503 -0.00000000000E+00 -0.00000000000E+00 -0.11720471988E+03  0.11720471988E+03  0.00000000000E+00 0. -1.
          6    2    1    2  501    0 -0.24917776351E+02 -0.63782363179E+01 -0.43099386330E+02  0.17813910806E+03  0.17092222571E+03 0.  0.
         24    2    3    3    0    0 -0.77390256932E+02  0.54209702023E+01 -0.32491350119E+01  0.11103683520E+03  0.79372432917E+02 0.  0.
         -6    2    1    2    0  502  0.24917776351E+02  0.63782363179E+01  0.11580652895E+04  0.11712362349E+04  0.17325566555E+03 0.  0.
        -24    2    5    5    0    0  0.13050690393E+02  0.52151835082E+02  0.10340046715E+04  0.10383860297E+04  0.78674974327E+02 0.  0.
          5    1    3    3  501    0  0.52472480581E+02 -0.11799206520E+02 -0.39850251318E+02  0.67102272860E+02  0.47000000000E+01 0. -1.
        -15    1    4    4    0    0 -0.46128880583E+02  0.37751030444E+02  0.16567231958E+02  0.61892203283E+02  0.17770000000E+01 0.  1.
         16    1    4    4    0    0 -0.31261376349E+02 -0.32330060242E+02 -0.19816366970E+02  0.49144631918E+02  0.00000000000E+00 0. -1.
         -5    1    5    5    0  502  0.11867085958E+02 -0.45773598764E+02  0.12406061803E+03  0.13285020519E+03  0.47000000000E+01 0.  1.
         15    1    6    6    0    0 -0.15498149101E+00  0.41466218661E+02  0.20258918583E+03  0.20679701945E+03  0.17770000000E+01 0. -1.
        -16    1    6    6    0    0  0.13205671884E+02  0.10685616421E+02  0.83141548566E+03  0.83158901025E+03  0.00000000000E+00 0.  1.
<mgrwt>
<rscale>  2 0.17457469E+03</rscale>
<asrwt>0</asrwt>
<pdfrwt beam="1">  1       21 0.18956470E+00 0.17515451E+03</pdfrwt>
<pdfrwt beam="2">  1       21 0.18031496E-01 0.17515451E+03</pdfrwt>
<totfact> 0.44677062E+03</totfact>
</mgrwt>
</event>
<event>
12    2  0.4097182E-002  0.2689626E+03  0.7546771E-02  0.1102245E+00
         21   -1    0    0  503  502  0.00000000000E+00  0.00000000000E+00  0.49551857650E+02  0.49551857650E+02  0.00000000000E+00 0.  1.
         21   -1    0    0  501  503 -0.00000000000E+00 -0.00000000000E+00 -0.18058722769E+04  0.18058722769E+04  0.00000000000E+00 0. -1.
          6    2    1    2  501    0  0.15790428178E+03 -0.12621915400E+03 -0.12889118890E+04  0.13161546194E+04  0.17350529558E+03 0.  0.
         24    2    3    3    0    0  0.36489699109E+02 -0.19225155035E+02 -0.68742913278E+03  0.69326392859E+03  0.79717986455E+02 0.  0.
         -6    2    1    2    0  502 -0.15790428178E+03  0.12621915400E+03 -0.46740853023E+03  0.53926951510E+03  0.17741431381E+03 0.  0.
        -24    2    5    5    0    0 -0.11695048737E+03  0.10830584013E+02 -0.29495985241E+03  0.32772195109E+03  0.81275116997E+02 0.  0.
          5    1    3    3  501    0  0.12141458267E+03 -0.10699399896E+03 -0.60148275623E+03  0.62289069085E+03  0.47000000000E+01 0. -1.
        -15    1    4    4    0    0  0.27944393794E+02  0.84039994700E+01 -0.80466433747E+02  0.85612621970E+02  0.17770000000E+01 0.  1.
         16    1    4    4    0    0  0.85453053147E+01 -0.27629154505E+02 -0.60696269903E+03  0.60765130662E+03  0.00000000000E+00 0. -1.
         -5    1    5    5    0  502 -0.40953794414E+02  0.11538856999E+03 -0.17244867782E+03  0.21154756402E+03  0.47000000000E+01 0.  1.
         15    1    6    6    0    0 -0.42119052601E+02 -0.28182022398E+02 -0.16626223385E+03  0.17382326977E+03  0.17770000000E+01 0. -1.
        -16    1    6    6    0    0 -0.74831434767E+02  0.39012606411E+02 -0.12869761856E+03  0.15389868132E+03  0.00000000000E+00 0.  1.
<mgrwt>
<rscale>  2 0.26831972E+03</rscale>
<asrwt>0</asrwt>
<pdfrwt beam="1">  1       21 0.76233618E-02 0.26896259E+03</pdfrwt>
<pdfrwt beam="2">  1       21 0.27782654E+00 0.26896259E+03</pdfrwt>
<totfact> 0.55686331E+03</totfact>
</mgrwt>
</event>
<event>
12    2  0.4097182E-002  0.2748223E+03  0.7546771E-02  0.1098648E+00
         21   -1    0    0  503  502  0.00000000000E+00  0.00000000000E+00  0.24659461881E+03  0.24659461881E+03  0.00000000000E+00 0. -1.
         21   -1    0    0  501  503 -0.00000000000E+00 -0.00000000000E+00 -0.34667412836E+03  0.34667412836E+03  0.00000000000E+00 0. -1.
          6    2    1    2  501    0 -0.17843161248E+03  0.11574221244E+03 -0.15220388924E+03  0.31354705415E+03  0.17294979385E+03 0.  0.
         24    2    3    3    0    0 -0.15318646076E+03  0.34457096276E+02 -0.55750369548E+02  0.18482270037E+03  0.79987146608E+02 0.  0.
         -6    2    1    2    0  502  0.17843161248E+03 -0.11574221244E+03  0.52124379694E+02  0.27972169302E+03  0.17404934506E+03 0.  0.
        -24    2    5    5    0    0  0.20234665624E+03 -0.12263505423E+03  0.49711137894E+02  0.25427853438E+03  0.78758174169E+02 0.  0.
          5    1    3    3  501    0 -0.25245151719E+02  0.81285116167E+02 -0.96453519692E+02  0.12872435378E+03  0.47000000000E+01 0. -1.
        -15    1    4    4    0    0  0.70278068035E+01  0.12528000937E+02 -0.36248686597E+01  0.14921068250E+02  0.17770000000E+01 0.  1.
         16    1    4    4    0    0 -0.16021426756E+03  0.21929095340E+02 -0.52125500888E+02  0.16990163212E+03  0.00000000000E+00 0. -1.
         -5    1    5    5    0  502 -0.23915043756E+02  0.68928417867E+01  0.24132418002E+01  0.25443158643E+02  0.47000000000E+01 0.  1.
         15    1    6    6    0    0  0.68141024567E+02 -0.32853737689E+01  0.26408876733E+02  0.73174991692E+02  0.17770000000E+01 0. -1.
        -16    1    6    6    0    0  0.13420563167E+03 -0.11934968046E+03  0.23302261161E+02  0.18110354268E+03  0.00000000000E+00 0.  1.
<mgrwt>
<rscale>  2 0.27464833E+03</rscale>
<asrwt>0</asrwt>
<pdfrwt beam="1">  1       21 0.37937634E-01 0.27482226E+03</pdfrwt>
<pdfrwt beam="2">  1       21 0.53334481E-01 0.27482226E+03</pdfrwt>
<totfact> 0.21384980E+04</totfact>
</mgrwt>
</event>
<event>
12    2  0.4097182E-002  0.2064522E+03  0.7546771E-02  0.1144438E+00
         21   -1    0    0  501  502  0.00000000000E+00  0.00000000000E+00  0.23908606167E+03  0.23908606167E+03  0.00000000000E+00 0.  1.
         21   -1    0    0  502  503 -0.00000000000E+00 -0.00000000000E+00 -0.42016934299E+03  0.42016934299E+03  0.00000000000E+00 0.  1.
         -6    2    1    2    0  503 -0.52702455343E+01  0.11220423585E+03 -0.34073307554E+03  0.39839873237E+03  0.17321938448E+03 0.  0.
        -24    2    3    3    0    0  0.36518390868E+02  0.76057136774E+01 -0.19489655403E+03  0.21406880540E+03  0.80307826017E+02 0.  0.
          6    2    1    2  501    0  0.52702455343E+01 -0.11220423585E+03  0.15964979422E+03  0.26085667229E+03  0.17303346686E+03 0.  0.
         24    2    5    5    0    0  0.43682416322E+02 -0.10161678083E+03  0.17096720750E+03  0.21917018872E+03  0.81065787728E+02 0.  0.
          5    1    5    5  501    0 -0.38412170788E+02 -0.10587455017E+02 -0.11317413289E+02  0.41686483563E+02  0.47000000000E+01 0. -1.
        -15    1    6    6    0    0  0.60200096344E+02 -0.84026848606E+02  0.98508344488E+02  0.14279921060E+03  0.17770000000E+01 0.  1.
         16    1    6    6    0    0 -0.16517680022E+02 -0.17589932229E+02  0.72458863015E+02  0.76370978117E+02  0.00000000000E+00 0. -1.
         -5    1    3    3    0  503 -0.41788636402E+02  0.10459852217E+03 -0.14583652151E+03  0.18432992697E+03  0.47000000000E+01 0.  1.
         15    1    4    4    0    0  0.10222353871E+02 -0.34929334736E+02 -0.10578613315E+03  0.11188573921E+03  0.17770000000E+01 0. -1.
        -16    1    4    4    0    0  0.26296036997E+02  0.42535048413E+02 -0.89110420884E+02  0.10218306619E+03  0.00000000000E+00 0.  1.
<mgrwt>
<rscale>  2 0.20641322E+03</rscale>
<asrwt>0</asrwt>
<pdfrwt beam="1">  1       21 0.36782471E-01 0.20645222E+03</pdfrwt>
<pdfrwt beam="2">  1       21 0.64641438E-01 0.20645222E+03</pdfrwt>
<totfact> 0.15587958E+04</totfact>
</mgrwt>
</event>
<event>
12    2  0.4097182E-002  0.1893495E+03  0.7546771E-02  0.1159125E+00
         21   -1    0    0  501  502  0.00000000000E+00  0.00000000000E+00  0.38502226929E+03  0.38502226929E+03  0.00000000000E+00 0.  1.
         21   -1    0    0  502  503 -0.00000000000E+00 -0.00000000000E+00 -0.18605444653E+03  0.18605444653E+03  0.00000000000E+00 0. -1.
         -6    2    1    2    0  503  0.56339088658E+02  0.51131900262E+02 -0.10245657771E+03  0.21529187758E+03  0.17339168983E+03 0.  0.
        -24    2    3    3    0    0  0.51810775316E+02  0.94322503755E+02 -0.56589366902E+02  0.15195290949E+03  0.91138570879E+02 0.  0.
          6    2    1    2  501    0 -0.56339088658E+02 -0.51131900262E+02  0.30142440047E+03  0.35578483823E+03  0.17302490509E+03 0.  0.
         24    2    5    5    0    0 -0.90933397462E+02 -0.77588521084E+02  0.25025073500E+03  0.28842347672E+03  0.79207387142E+02 0.  0.
          5    1    5    5  501    0  0.34594308804E+02  0.26456620822E+02  0.51173665473E+02  0.67361361513E+02  0.47000000000E+01 0. -1.
        -15    1    6    6    0    0 -0.74108576646E+02 -0.16517206754E+02  0.10168967296E+03  0.12692063098E+03  0.17770000000E+01 0.  1.
         16    1    6    6    0    0 -0.16824820816E+02 -0.61071314330E+02  0.14856106204E+03  0.16150284574E+03  0.00000000000E+00 0. -1.
         -5    1    3    3    0  503  0.45283133422E+01 -0.43190603494E+02 -0.45867210808E+02  0.63338968094E+02  0.47000000000E+01 0.  1.
         15    1    4    4    0    0  0.55491763135E+02  0.60051919505E+02 -0.76636028360E+02  0.11207946906E+03  0.17770000000E+01 0. -1.
        -16    1    4    4    0    0 -0.36809878187E+01  0.34270584250E+02  0.20046661459E+02  0.39873440431E+02  0.00000000000E+00 0.  1.
<mgrwt>
<rscale>  2 0.18926551E+03</rscale>
<asrwt>0</asrwt>
<pdfrwt beam="1">  1       21 0.59234195E-01 0.18934952E+03</pdfrwt>
<pdfrwt beam="2">  1       21 0.28623761E-01 0.18934952E+03</pdfrwt>
<totfact> 0.31151973E+04</totfact>
</mgrwt>
</event>
<event>
12    2  0.4097182E-002  0.2487653E+03  0.7546771E-02  0.1114341E+00
         21   -1    0    0  503  502  0.00000000000E+00  0.00000000000E+00  0.13785232793E+04  0.13785232793E+04  0.00000000000E+00 0. -1.
         21   -1    0    0  501  503 -0.00000000000E+00 -0.00000000000E+00 -0.46745880299E+02  0.46745880299E+02  0.00000000000E+00 0.  1.
          6    2    1    2  501    0  0.14224385198E+03  0.10867515971E+03  0.51135899397E+03  0.56796494207E+03  0.17044808867E+03 0.  0.
         24    2    3    3    0    0  0.11352335621E+03  0.12169044599E+02  0.22925229427E+03  0.26839094929E+03  0.80258639283E+02 0.  0.
         -6    2    1    2    0  502 -0.14224385198E+03 -0.10867515971E+03  0.82041840503E+03  0.85730421754E+03  0.17274419912E+03 0.  0.
        -24    2    5    5    0    0 -0.14308253715E+03 -0.32701505100E+02  0.47269788272E+03  0.50134867084E+03  0.79782206991E+02 0.  0.
          5    1    3    3  501    0  0.28720495774E+02  0.96506115111E+02  0.28210669970E+03  0.29957399278E+03  0.47000000000E+01 0. -1.
        -15    1    4    4    0    0  0.75094474421E+02  0.45128127226E+02  0.12708534423E+03  0.15436829468E+03  0.17770000000E+01 0.  1.
         16    1    4    4    0    0  0.38428881789E+02 -0.32959082627E+02  0.10216695004E+03  0.11402265460E+03  0.00000000000E+00 0. -1.
         -5    1    5    5    0  502  0.83868516915E+00 -0.75973654610E+02  0.34772052231E+03  0.35595554669E+03  0.47000000000E+01 0.  1.
         15    1    6    6    0    0 -0.10731709161E+03 -0.50829562833E+02  0.27375271756E+03  0.29840293348E+03  0.17770000000E+01 0. -1.
        -16    1    6    6    0    0 -0.35765445541E+02  0.18128057733E+02  0.19894516516E+03  0.20294573736E+03  0.00000000000E+00 0.  1.
<mgrwt>
<rscale>  2 0.24836709E+03</rscale>
<asrwt>0</asrwt>
<pdfrwt beam="1">  1       21 0.21208047E+00 0.24876528E+03</pdfrwt>
<pdfrwt beam="2">  1       21 0.71916749E-02 0.24876528E+03</pdfrwt>
<totfact> 0.15601231E+04</totfact>
</mgrwt>
</event>
<event>
12    2  0.4097182E-002  0.2157767E+03  0.7546771E-02  0.1137327E+00
         21   -1    0    0  501  502  0.00000000000E+00  0.00000000000E+00  0.69375467050E+03  0.69375467050E+03  0.00000000000E+00 0.  1.
         21   -1    0    0  502  503 -0.00000000000E+00 -0.00000000000E+00 -0.86173057268E+02  0.86173057268E+02  0.00000000000E+00 0.  1.
         -6    2    1    2    0  503 -0.64525536151E+02 -0.11071260925E+03  0.11767474259E+03  0.24460695843E+03  0.17194299174E+03 0.  0.
        -24    2    3    3    0    0  0.21987724836E+02 -0.12706406482E+02  0.48038279025E+02  0.96414221888E+02  0.79643663411E+02 0.  0.
          6    2    1    2  501    0  0.64525536151E+02  0.11071260925E+03  0.48990687065E+03  0.53532076934E+03  0.17360517708E+03 0.  0.
         24    2    5    5    0    0  0.53476535501E+01  0.12989212602E+03  0.32772678227E+03  0.36155556362E+03  0.80106304141E+02 0.  0.
          5    1    5    5  501    0  0.59177882600E+02 -0.19179516767E+02  0.16218008838E+03  0.17376520572E+03  0.47000000000E+01 0. -1.
        -15    1    6    6    0    0  0.14147924618E+02  0.74208071879E+02  0.91372806402E+02  0.11857128312E+03  0.17770000000E+01 0.  1.
         16    1    6    6    0    0 -0.88002710676E+01  0.55684054140E+02  0.23635397587E+03  0.24298428049E+03  0.00000000000E+00 0. -1.
         -5    1    3    3    0  503 -0.86513260987E+02 -0.98006202770E+02  0.69636463560E+02  0.14819273655E+03  0.47000000000E+01 0.  1.
         15    1    4    4    0    0 -0.15565208285E+02  0.91722475763E+01  0.49709467789E+02  0.52920645796E+02  0.17770000000E+01 0. -1.
        -16    1    4    4    0    0  0.37552933121E+02 -0.21878654059E+02 -0.16711887642E+01  0.43493576092E+02  0.00000000000E+00 0.  1.
<mgrwt>
<rscale>  2 0.21544216E+03</rscale>
<asrwt>0</asrwt>
<pdfrwt beam="1">  1       21 0.10673148E+00 0.21577670E+03</pdfrwt>
<pdfrwt beam="2">  1       21 0.13257394E-01 0.21577670E+03</pdfrwt>
<totfact> 0.34029046E+04</totfact>
</mgrwt>
</event>
<event>
12    2  0.4097182E-002  0.1896593E+03  0.7546771E-02  0.1159799E+00
         21   -1    0    0  503  502  0.00000000000E+00  0.00000000000E+00  0.75960977758E+03  0.75960977758E+03  0.00000000000E+00 0. -1.
         21   -1    0    0  501  503 -0.00000000000E+00 -0.00000000000E+00 -0.75968474087E+02  0.75968474087E+02  0.00000000000E+00 0. -1.
          6    2    1    2  501    0 -0.57103944556E+02 -0.22681160186E+02  0.82965421987E+02  0.20701184360E+03  0.17943061789E+03 0.  0.
         24    2    3    3    0    0  0.34412737892E+02 -0.32826410568E+02  0.26800454631E+02  0.99054338864E+02  0.82654025427E+02 0.  0.
         -6    2    1    2    0  502  0.57103944556E+02  0.22681160186E+02  0.60067588151E+03  0.62856640806E+03  0.17466802573E+03 0.  0.
        -24    2    5    5    0    0  0.47232750935E+02  0.13873452023E+02  0.60629713200E+03  0.61344342411E+03  0.79329798166E+02 0.  0.
          5    1    3    3  501    0 -0.91516682448E+02  0.10145250382E+02  0.56164967356E+02  0.10795750474E+03  0.47000000000E+01 0. -1.
        -15    1    4    4    0    0  0.23326577266E+02 -0.38438321809E+02  0.53319039581E+02  0.69768986673E+02  0.17770000000E+01 0.  1.
         16    1    4    4    0    0  0.11086160626E+02  0.56119112417E+01 -0.26518584950E+02  0.29285352191E+02  0.00000000000E+00 0. -1.
         -5    1    5    5    0  502  0.98711936205E+01  0.88077081634E+01 -0.56212504953E+01  0.15122983955E+02  0.47000000000E+01 0.  1.
         15    1    6    6    0    0  0.19608742991E+02  0.40990966119E+02  0.45522798968E+03  0.45749365287E+03  0.17770000000E+01 0. -1.
        -16    1    6    6    0    0  0.27624007944E+02 -0.27117514097E+02  0.15106914232E+03  0.15594977124E+03  0.00000000000E+00 0.  1.
<mgrwt>
<rscale>  2 0.18852430E+03</rscale>
<asrwt>0</asrwt>
<pdfrwt beam="1">  1       21 0.11686304E+00 0.18965928E+03</pdfrwt>
<pdfrwt beam="2">  1       21 0.11687458E-01 0.18965928E+03</pdfrwt>
<totfact> 0.34735372E+04</totfact>
</mgrwt>
</event>
<event>
12    2  0.4097182E-002  0.2901559E+03  0.7546771E-02  0.1090428E+00
         21   -1    0    0  503  502  0.00000000000E+00  0.00000000000E+00  0.53829130449E+03  0.53829130449E+03  0.00000000000E+00 0.  1.
         21   -1    0    0  501  503 -0.00000000000E+00 -0.00000000000E+00 -0.15584872426E+03  0.15584872426E+03  0.00000000000E+00 0.  1.
          6    2    1    2  501    0  0.15465378051E+03  0.17213736628E+03  0.20064249308E+03  0.35277168958E+03  0.17504682299E+03 0.  0.
         24    2    3    3    0    0  0.11511466445E+03  0.17787251470E+03  0.20909286815E+03  0.31166533405E+03  0.92333284792E+02 0.  0.
         -6    2    1    2    0  502 -0.15465378051E+03 -0.17213736628E+03  0.18180008714E+03  0.34136833917E+03  0.17300868939E+03 0.  0.
        -24    2    5    5    0    0 -0.75862083506E+02 -0.17136322024E+03  0.97610739429E+02  0.22596180951E+03  0.80065435375E+02 0.  0.
          5    1    3    3  501    0  0.39539116061E+02 -0.57351484181E+01 -0.84503750611E+01  0.41106355529E+02  0.47000000000E+01 0. -1.
        -15    1    4    4    0    0  0.80703067549E+02  0.42460268446E+02  0.76398189921E+02  0.11897773178E+03  0.17770000000E+01 0.  1.
         16    1    4    4    0    0  0.34411596900E+02  0.13541224625E+03  0.13269467823E+03  0.19268760226E+03  0.00000000000E+00 0. -1.
         -5    1    5    5    0  502 -0.78791697004E+02 -0.77414604616E+00  0.84189347715E+02  0.11540652966E+03  0.47000000000E+01 0.  1.
         15    1    6    6    0    0 -0.10236822298E+02 -0.17086882970E+02 -0.14126948445E+02  0.24484331761E+02  0.17770000000E+01 0. -1.
        -16    1    6    6    0    0 -0.65625261208E+02 -0.15427633727E+03  0.11173768787E+03  0.20147747775E+03  0.00000000000E+00 0.  1.
<mgrwt>
<rscale>  2 0.28984918E+03</rscale>
<asrwt>0</asrwt>
<pdfrwt beam="1">  1       21 0.82814046E-01 0.29015591E+03</pdfrwt>
<pdfrwt beam="2">  1       21 0.23976727E-01 0.29015591E+03</pdfrwt>
<totfact> 0.19843247E+04</totfact>
</mgrwt>
</event>
<event>
12    2  0.4097182E-002  0.2028172E+03  0.7546771E-02  0.1147670E+00
         21   -1    0    0  501  502  0.00000000000E+00  0.00000000000E+00  0.28414488075E+04  0.28414488075E+04  0.00000000000E+00 0. -1.
         21   -1    0    0  502  503 -0.00000000000E+00 -0.00000000000E+00 -0.17967483031E+02  0.17967483031E+02  0.00000000000E+00 0. -1.
         -6    2    1    2    0  503 -0.49300606454E+02 -0.91812119978E+02  0.76893730896E+03  0.79488584869E+03  0.17239174044E+03 0.  0.
        -24    2    3    3    0    0  0.47774546831E+01 -0.10001644557E+03  0.66487076418E+03  0.67722666547E+03  0.80973513602E+02 0.  0.
          6    2    1    2  501    0  0.49300606454E+02  0.91812119978E+02  0.20545440155E+04  0.20645304418E+04  0.17399660466E+03 0.  0.
         24    2    5    5    0    0  0.97490367222E+02  0.61657800708E+02  0.12208779451E+04  0.12289152535E+04  0.79897981097E+02 0.  0.
          5    1    5    5  501    0 -0.48189760768E+02  0.30154319269E+02  0.83366607038E+03  0.83561518830E+03  0.47000000000E+01 0. -1.
        -15    1    6    6    0    0  0.25268331232E+02  0.58903579333E+02  0.43185881622E+03  0.43659284820E+03  0.17770000000E+01 0.  1.
         16    1    6    6    0    0  0.72222035989E+02  0.27542213759E+01  0.78901912888E+03  0.79232240531E+03  0.00000000000E+00 0. -1.
         -5    1    3    3    0  503 -0.54078061137E+02  0.82043255886E+01  0.10406654478E+03  0.11765918322E+03  0.47000000000E+01 0.  1.
         15    1    4    4    0    0  0.32349743507E+02 -0.43575212088E+02  0.17196014628E+03  0.18032957231E+03  0.17770000000E+01 0. -1.
        -16    1    4    4    0    0 -0.27572288824E+02 -0.56441233478E+02  0.49291061790E+03  0.49689709316E+03  0.00000000000E+00 0.  1.
<mgrwt>
<rscale>  2 0.20247258E+03</rscale>
<asrwt>0</asrwt>
<pdfrwt beam="1">  1       21 0.43714561E+00 0.20281724E+03</pdfrwt>
<pdfrwt beam="2">  1       21 0.27642304E-02 0.20281724E+03</pdfrwt>
<totfact> 0.36094194E+03</totfact>
</mgrwt>
</event>
<event>
12    2  0.4097182E-002  0.2022002E+03  0.7546771E-02  0.1148250E+00
         21   -1    0    0  503  502  0.00000000000E+00  0.00000000000E+00  0.18873517686E+03  0.18873517686E+03  0.00000000000E+00 0. -1.
         21   -1    0    0  501  503 -0.00000000000E+00 -0.00000000000E+00 -0.53007517579E+03  0.53007517579E+03  0.00000000000E+00 0. -1.
          6    2    1    2  501    0  0.10091118329E+03  0.28217073963E+02 -0.44755158321E+03  0.49041197931E+03  0.17094507786E+03 0.  0.
         24    2    3    3    0    0 -0.74958074436E+01  0.13449699404E+02 -0.14295361274E+03  0.16672669295E+03  0.84409556362E+02 0.  0.
         -6    2    1    2    0  502 -0.10091118329E+03 -0.28217073963E+02  0.10621158429E+03  0.22839837333E+03  0.17293249009E+03 0.  0.
        -24    2    5    5    0    0 -0.54507884718E+02  0.51429854435E+02  0.55857281454E+02  0.12325777635E+03  0.80351130138E+02 0.  0.
          5    1    3    3  501    0  0.10840699073E+03  0.14767374559E+02 -0.30459797047E+03  0.32368528636E+03  0.47000000000E+01 0. -1.
        -15    1    4    4    0    0 -0.10447874108E+02 -0.35352916725E+02 -0.62223539319E+02  0.72345790262E+02  0.17770000000E+01 0.  1.
         16    1    4    4    0    0  0.29520666646E+01  0.48802616129E+02 -0.80730073420E+02  0.94380902692E+02  0.00000000000E+00 0. -1.
         -5    1    5    5    0  502 -0.46403298569E+02 -0.79646928398E+02  0.50354302832E+02  0.10514059699E+03  0.47000000000E+01 0.  1.
         15    1    6    6    0    0 -0.42403433132E+02 -0.12136524773E+02  0.30996408622E+02  0.53937755343E+02  0.17770000000E+01 0. -1.
        -16    1    6    6    0    0 -0.12104451586E+02  0.63566379208E+02  0.24860872832E+02  0.69320021002E+02  0.00000000000E+00 0.  1.
<mgrwt>
<rscale>  2 0.20177457E+03</rscale>
<asrwt>0</asrwt>
<pdfrwt beam="1">  1       21 0.29036181E-01 0.20220019E+03</pdfrwt>
<pdfrwt beam="2">  1       21 0.81550028E-01 0.20220019E+03</pdfrwt>
<totfact> 0.14861172E+04</totfact>
</mgrwt>
</event>
<event>
12    2  0.4097182E-002  0.1734410E+03  0.7546771E-02  0.1174372E+00
         21   -1    0    0  503  502  0.00000000000E+00  0.00000000000E+00  0.50094699393E+03  0.50094699393E+03  0.00000000000E+00 0.  1.
         21   -1    0    0  501  503 -0.00000000000E+00 -0.00000000000E+00 -0.94488913423E+02  0.94488913423E+02  0.00000000000E+00 0.  1.
          6    2    1    2  501    0  0.58023023418E+01 -0.37994274013E+01  0.23353496159E+02  0.17500617447E+03  0.17330225895E+03 0.  0.
         24    2    3    3    0    0  0.60119221896E+02 -0.26580642388E+02 -0.13721720302E+02  0.10524964659E+03  0.81045364505E+02 0.  0.
         -6    2    1    2    0  502 -0.58023023418E+01  0.37994274013E+01  0.38310458435E+03  0.42042973288E+03  0.17304316047E+03 0.  0.
        -24    2    5    5    0    0 -0.41130986656E+02  0.45323205071E+02  0.14763285071E+03  0.17868323882E+03  0.79914268111E+02 0.  0.
          5    1    3    3  501    0 -0.54316919554E+02  0.22781214987E+02  0.37075216461E+02  0.69756527879E+02  0.47000000000E+01 0. -1.
        -15    1    4    4    0    0 -0.16399008571E+02 -0.14977920331E+02 -0.16629353286E+02  0.27802134797E+02  0.17770000000E+01 0.  1.
         16    1    4    4    0    0  0.76518230467E+02 -0.11602722057E+02  0.29076329849E+01  0.77447511791E+02  0.00000000000E+00 0. -1.
         -5    1    5    5    0  502  0.35328684314E+02 -0.41523777670E+02  0.23547173364E+03  0.24174649406E+03  0.47000000000E+01 0.  1.
         15    1    6    6    0    0 -0.61698504473E+02  0.14477099847E+02  0.87851652018E+02  0.10833910820E+03  0.17770000000E+01 0. -1.
        -16    1    6    6    0    0  0.20567517817E+02  0.30846105224E+02  0.59781198689E+02  0.70344130625E+02  0.00000000000E+00 0.  1.
<mgrwt>
<rscale>  2 0.17337623E+03</rscale>
<asrwt>0</asrwt>
<pdfrwt beam="1">  1       21 0.77068767E-01 0.17344099E+03</pdfrwt>
<pdfrwt beam="2">  1       21 0.14536756E-01 0.17344099E+03</pdfrwt>
<totfact> 0.62680253E+04</totfact>
</mgrwt>
</event>
<event>
12    2  0.4097182E-002  0.1949837E+03  0.7546771E-02  0.1158885E+00
         21   -1    0    0  501  502  0.00000000000E+00  0.00000000000E+00  0.10166132538E+03  0.10166132538E+03  0.00000000000E+00 0.  1.
         21   -1    0    0  502  503 -0.00000000000E+00 -0.00000000000E+00 -0.34273966574E+03  0.34273966574E+03  0.00000000000E+00 0.  1.
         -6    2    1    2    0  503 -0.12067636145E+02 -0.12099203097E+02 -0.14733654249E+03  0.22805368995E+03  0.17322935718E+03 0.  0.
        -24    2    3    3    0    0  0.11964213514E+02  0.56160900743E+02 -0.99114207942E+02  0.14096491270E+03  0.82160155906E+02 0.  0.
          6    2    1    2  501    0  0.12067636145E+02  0.12099203097E+02 -0.93741797863E+02  0.21634730117E+03  0.19423339439E+03 0.  0.
         24    2    5    5    0    0 -0.34942339426E+02  0.78566321159E+02 -0.59700367695E+02  0.12798031324E+03  0.73628749617E+02 0.  0.
          5    1    5    5  501    0  0.47009975571E+02 -0.66467118061E+02 -0.34041430169E+02  0.88366987923E+02  0.47000000000E+01 0. -1.
        -15    1    6    6    0    0 -0.41968752527E+02  0.32463792404E+02 -0.11157826326E+01  0.53100628112E+02  0.17770000000E+01 0.  1.
         16    1    6    6    0    0  0.70264131016E+01  0.46102528754E+02 -0.58584585062E+02  0.74879685132E+02  0.00000000000E+00 0. -1.
         -5    1    3    3    0  503 -0.24031849659E+02 -0.68260103840E+02 -0.48222334552E+02  0.87088777256E+02  0.47000000000E+01 0.  1.
         15    1    4    4    0    0 -0.29615008730E+02  0.41321938380E+02 -0.30309667253E+02  0.59214736270E+02  0.17770000000E+01 0. -1.
        -16    1    4    4    0    0  0.41579222244E+02  0.14838962363E+02 -0.68804540690E+02  0.81750176427E+02  0.00000000000E+00 0.  1.
<mgrwt>
<rscale>  2 0.18953079E+03</rscale>
<asrwt>0</asrwt>
<pdfrwt beam="1">  1       21 0.15640204E-01 0.19498367E+03</pdfrwt>
<pdfrwt beam="2">  1       21 0.52729179E-01 0.19498367E+03</pdfrwt>
<totfact> 0.12381784E+05</totfact>
</mgrwt>
</event>
<event>
12    2  0.4097182E-002  0.1771472E+03  0.7546771E-02  0.1170633E+00
         21   -1    0    0  503  502  0.00000000000E+00  0.00000000000E+00  0.20414399978E+03  0.20414399978E+03  0.00000000000E+00 0.  1.
         21   -1    0    0  501  503 -0.00000000000E+00 -0.00000000000E+00 -0.42640748886E+03  0.42640748886E+03  0.00000000000E+00 0.  1.
          6    2    1    2  501    0  0.19958541914E+02 -0.43463387225E+02 -0.36333734816E+03  0.40422166057E+03  0.17056879223E+03 0.  0.
         24    2    3    3    0    0  0.26301769905E+02 -0.94151846307E+02 -0.27337666251E+03  0.30066215406E+03  0.78144596853E+02 0.  0.
         -6    2    1    2    0  502 -0.19958541914E+02  0.43463387225E+02  0.14107385909E+03  0.22632982807E+03  0.17039937774E+03 0.  0.
        -24    2    5    5    0    0  0.11690729561E+02 -0.33983090059E+02  0.10507200311E+03  0.13512754267E+03  0.76992229364E+02 0.  0.
          5    1    3    3  501    0 -0.63432279908E+01  0.50688459082E+02 -0.89960685657E+02  0.10355950651E+03  0.47000000000E+01 0. -1.
        -15    1    4    4    0    0 -0.24058935005E+01 -0.68674608750E+02 -0.24047858138E+03  0.25011016781E+03  0.17770000000E+01 0.  1.
         16    1    4    4    0    0  0.28707663405E+02 -0.25477237557E+02 -0.32898081120E+02  0.50551986243E+02  0.00000000000E+00 0. -1.
         -5    1    5    5    0  502 -0.31649271475E+02  0.77446477284E+02  0.36001855972E+02  0.91202285399E+02  0.47000000000E+01 0.  1.
         15    1    6    6    0    0 -0.21088937689E+02  0.84389672454E+01  0.78403097889E+01  0.24095386438E+02  0.17770000000E+01 0. -1.
        -16    1    6    6    0    0  0.32779667250E+02 -0.42422057305E+02  0.97231693326E+02  0.11103215623E+03  0.00000000000E+00 0.  1.
<mgrwt>
<rscale>  2 0.17710638E+03</rscale>
<asrwt>0</asrwt>
<pdfrwt beam="1">  1       21 0.31406769E-01 0.17714718E+03</pdfrwt>
<pdfrwt beam="2">  1       21 0.65601152E-01 0.17714718E+03</pdfrwt>
<totfact> 0.21007529E+04</totfact>
</mgrwt>
</event>
<event>
12    2  0.4097182E-002  0.1857202E+03  0.7546771E-02  0.1162402E+00
         21   -1    0    0  501  502  0.00000000000E+00  0.00000000000E+00  0.20836391386E+04  0.20836391386E+04  0.00000000000E+00 0. -1.
         21   -1    0    0  502  503 -0.00000000000E+00 -0.00000000000E+00 -0.64635816003E+02  0.64635816003E+02  0.00000000000E+00 0. -1.
         -6    2    1    2    0  503  0.15410307988E+02 -0.66666184771E+02  0.83050475615E+02  0.20344376195E+03  0.17265608878E+03 0.  0.
        -24    2    3    3    0    0  0.57530890775E+02 -0.70681534907E+02  0.12885870298E+02  0.12137410635E+03  0.79119815900E+02 0.  0.
          6    2    1    2  501    0 -0.15410307988E+02  0.66666184771E+02  0.19359528470E+04  0.19448311927E+04  0.17254878848E+03 0.  0.
         24    2    5    5    0    0 -0.41421943988E+02  0.51385230555E+02  0.63802247478E+03  0.64654175888E+03  0.81162480792E+02 0.  0.
          5    1    5    5  501    0  0.26011636000E+02  0.15280954217E+02  0.12979303722E+04  0.12982894338E+04  0.47000000000E+01 0. -1.
        -15    1    6    6    0    0 -0.44817281910E+02 -0.76175328233E+01  0.28319800083E+03  0.28682900998E+03  0.17770000000E+01 0.  1.
         16    1    6    6    0    0  0.33953379222E+01  0.59002763378E+02  0.35482447395E+03  0.35971274890E+03  0.00000000000E+00 0. -1.
         -5    1    3    3    0  503 -0.42120582787E+02  0.40153501354E+01  0.70164605317E+02  0.82069655600E+02  0.47000000000E+01 0.  1.
         15    1    4    4    0    0 -0.28286523167E+01 -0.57232373055E+02  0.15795429042E+02  0.59465949140E+02  0.17770000000E+01 0. -1.
        -16    1    4    4    0    0  0.60359543092E+02 -0.13449161852E+02 -0.29095587439E+01  0.61908157208E+02  0.00000000000E+00 0.  1.
<mgrwt>
<rscale>  2 0.18569523E+03</rscale>
<asrwt>0</asrwt>
<pdfrwt beam="1">  1       21 0.32055982E+00 0.18572017E+03</pdfrwt>
<pdfrwt beam="2">  1       21 0.99439733E-02 0.18572017E+03</pdfrwt>
<totfact> 0.21489020E+03</totfact>
</mgrwt>
</event>
<event>
12    2  0.4097182E-002  0.1799689E+03  0.7546771E-02  0.1168209E+00
         21   -1    0    0  503  502  0.00000000000E+00  0.00000000000E+00  0.11593586760E+03  0.11593586760E+03  0.00000000000E+00 0.  1.
         21   -1    0    0  501  503 -0.00000000000E+00 -0.00000000000E+00 -0.53607049318E+03  0.53607049318E+03  0.00000000000E+00 0.  1.
          6    2    1    2  501    0 -0.44745709431E+02 -0.25014930435E+02 -0.43717847301E+03  0.47277249326E+03  0.17251344255E+03 0.  0.
         24    2    3    3    0    0  0.41211134516E+02 -0.22191238314E+02 -0.26299345970E+03  0.27845558426E+03  0.78620251190E+02 0.  0.
         -6    2    1    2    0  502  0.44745709431E+02  0.25014930435E+02  0.17043847429E+02  0.17923386753E+03  0.17089868717E+03 0.  0.
        -24    2    5    5    0    0  0.44462951957E+02 -0.41316473870E+02  0.40868949680E+02  0.10859633752E+03  0.80242684182E+02 0.  0.
          5    1    3    3  501    0 -0.85956843948E+02 -0.28236921204E+01 -0.17418501331E+03  0.19431690900E+03  0.47000000000E+01 0. -1.
        -15    1    4    4    0    0 -0.18114248129E+02  0.75247887354E+01 -0.10916187852E+03  0.11092439715E+03  0.17770000000E+01 0.  1.
         16    1    4    4    0    0  0.59325382645E+02 -0.29716027050E+02 -0.15383158117E+03  0.16753118711E+03  0.00000000000E+00 0. -1.
         -5    1    5    5    0  502  0.28275747414E+00  0.66331404304E+02 -0.23825102251E+02  0.70637530011E+02  0.47000000000E+01 0.  1.
         15    1    6    6    0    0  0.20683531576E+01 -0.37059224134E+02 -0.13486926255E+02  0.39531241911E+02  0.17770000000E+01 0. -1.
        -16    1    6    6    0    0  0.42394598800E+02 -0.42572497355E+01  0.54355875935E+02  0.69065095608E+02  0.00000000000E+00 0.  1.
<mgrwt>
<rscale>  2 0.17958085E+03</rscale>
<asrwt>0</asrwt>
<pdfrwt beam="1">  1       21 0.17836288E-01 0.17996892E+03</pdfrwt>
<pdfrwt beam="2">  1       21 0.82472382E-01 0.17996892E+03</pdfrwt>
<totfact> 0.36898518E+04</totfact>
</mgrwt>
</event>
<event>
12    2  0.4097182E-002  0.2067342E+03  0.7546771E-02  0.1144433E+00
         21   -1    0    0  503  502  0.00000000000E+00  0.00000000000E+00  0.34933717024E+03  0.34933717024E+03  0.00000000000E+00 0.  1.
         21   -1    0    0  501  503 -0.00000000000E+00 -0.00000000000E+00 -0.12656647617E+03  0.12656647617E+03  0.00000000000E+00 0.  1.
          6    2    1    2  501    0 -0.45217581694E+02 -0.10321971968E+03  0.63924680987E+02  0.21519097759E+03  0.17181924157E+03 0.  0.
         24    2    3    3    0    0 -0.14070422951E+02 -0.69320921571E+02  0.10669801626E+03  0.15217572371E+03  0.82277683754E+02 0.  0.
         -6    2    1    2    0  502  0.45217581694E+02  0.10321971968E+03  0.15884601308E+03  0.26071266881E+03  0.17332079962E+03 0.  0.
        -24    2    5    5    0    0  0.10973117620E+02 -0.47659057656E+01  0.11172298919E+03  0.13792729508E+03  0.79992432429E+02 0.  0.
          5    1    3    3  501    0 -0.31147158743E+02 -0.33898798109E+02 -0.42773335277E+02  0.63015253881E+02  0.47000000000E+01 0. -1.
        -15    1    4    4    0    0  0.86066739065E+01 -0.87178523511E+01 -0.11838215228E+02  0.17128247258E+02  0.17770000000E+01 0.  1.
         16    1    4    4    0    0 -0.22677096858E+02 -0.60603069219E+02  0.11853623149E+03  0.13504747646E+03  0.00000000000E+00 0. -1.
         -5    1    5    5    0  502  0.34244464075E+02  0.10798562544E+03  0.47123023895E+02  0.12278537374E+03  0.47000000000E+01 0.  1.
         15    1    6    6    0    0  0.47509169958E+01  0.28461949424E+02  0.97712293527E+01  0.30517018684E+02  0.17770000000E+01 0. -1.
        -16    1    6    6    0    0  0.62222006238E+01 -0.33227855190E+02  0.10195175984E+03  0.10741027639E+03  0.00000000000E+00 0.  1.
<mgrwt>
<rscale>  2 0.20641920E+03</rscale>
<asrwt>0</asrwt>
<pdfrwt beam="1">  1       21 0.53744179E-01 0.20673423E+03</pdfrwt>
<pdfrwt beam="2">  1       21 0.19471766E-01 0.20673423E+03</pdfrwt>
<totfact> 0.78987225E+04</totfact>
</mgrwt>
</event>
<event>
12    2  0.4097182E-002  0.1962678E+03  0.7546771E-02  0.1152931E+00
         21   -1    0    0  501  502  0.00000000000E+00  0.00000000000E+00  0.21664827997E+03  0.21664827997E+03  0.00000000000E+00 0.  1.
         21   -1    0    0  502  503 -0.00000000000E+00 -0.00000000000E+00 -0.25811419257E+03  0.25811419257E+03  0.00000000000E+00 0.  1.
         -6    2    1    2    0  503 -0.92306320671E+02  0.98840850452E+01 -0.15316102281E+03  0.24895653298E+03  0.17292456284E+03 0.  0.
        -24    2    3    3    0    0 -0.22298773591E+02  0.32338548341E+02 -0.16044883227E+02  0.93302476482E+02  0.83095708839E+02 0.  0.
          6    2    1    2  501    0  0.92306320671E+02 -0.98840850452E+01  0.11169511021E+03  0.22580593956E+03  0.17289989220E+03 0.  0.
         24    2    5    5    0    0  0.10458177492E+03 -0.51379308129E+02  0.48361552258E+02  0.14895693255E+03  0.79196888004E+02 0.  0.
          5    1    5    5  501    0 -0.12275454244E+02  0.41495223084E+02  0.63333557952E+02  0.76849007010E+02  0.47000000000E+01 0. -1.
        -15    1    6    6    0    0  0.14655441516E+02 -0.46526683442E+02  0.29213145953E+02  0.56886552573E+02  0.17770000000E+01 0.  1.
         16    1    6    6    0    0  0.89926333399E+02 -0.48526246864E+01  0.19148406305E+02  0.92070379976E+02  0.00000000000E+00 0. -1.
         -5    1    3    3    0  503 -0.70007547080E+02 -0.22454463296E+02 -0.13711613958E+03  0.15565405650E+03  0.47000000000E+01 0.  1.
         15    1    4    4    0    0  0.24021286944E+02  0.20818220254E+02  0.16179277100E+02  0.35712004388E+02  0.17770000000E+01 0. -1.
        -16    1    4    4    0    0 -0.46320060535E+02  0.11520328087E+02 -0.32224160327E+02  0.57590472093E+02  0.00000000000E+00 0.  1.
<mgrwt>
<rscale>  2 0.19626238E+03</rscale>
<asrwt>0</asrwt>
<pdfrwt beam="1">  1       21 0.33330505E-01 0.19626782E+03</pdfrwt>
<pdfrwt beam="2">  1       21 0.39709876E-01 0.19626782E+03</pdfrwt>
<totfact> 0.52898207E+04</totfact>
</mgrwt>
</event>
<event>
12    2  0.4097182E-002  0.1891835E+03  0.7546771E-02  0.1159284E+00
         21   -1    0    0  501  502  0.00000000000E+00  0.00000000000E+00  0.28271467791E+02  0.28271467791E+02  0.00000000000E+00 0. -1.
         21   -1    0    0  502  503 -0.00000000000E+00 -0.00000000000E+00 -0.15056279098E+04  0.15056279098E+04  0.00000000000E+00 0.  1.
         -6    2    1    2    0  503  0.73568949030E+02  0.19467050935E+02 -0.10456493549E+04  0.10625593716E+04  0.17279608922E+03 0.  0.
        -24    2    3    3    0    0  0.68584466408E+02 -0.25609691852E+02 -0.37502153636E+03  0.39038341338E+03  0.79989820377E+02 0.  0.
          6    2    1    2  501    0 -0.73568949030E+02 -0.19467050935E+02 -0.43170708712E+03  0.47134000600E+03  0.17320229748E+03 0.  0.
         24    2    5    5    0    0 -0.34384515221E+02 -0.72927803496E+02 -0.33689591563E+03  0.35556125079E+03  0.80151018017E+02 0.  0.
          5    1    5    5  501    0 -0.39184433809E+02  0.53460752561E+02 -0.94811171499E+02  0.11577875521E+03  0.47000000000E+01 0. -1.
        -15    1    6    6    0    0 -0.60430042879E+02 -0.44779870692E+02 -0.23025198811E+03  0.24223163018E+03  0.17770000000E+01 0.  1.
         16    1    6    6    0    0  0.26045527658E+02 -0.28147932803E+02 -0.10664392752E+03  0.11332962061E+03  0.00000000000E+00 0. -1.
         -5    1    3    3    0  503  0.49844826218E+01  0.45076742787E+02 -0.67062781857E+03  0.67217595825E+03  0.47000000000E+01 0.  1.
         15    1    4    4    0    0 -0.32568169074E+00 -0.53663642956E+01  0.24283560236E+01  0.61610531806E+01  0.17770000000E+01 0. -1.
        -16    1    4    4    0    0  0.68910148099E+02 -0.20243327556E+02 -0.37744989238E+03  0.38422236020E+03  0.00000000000E+00 0.  1.
<mgrwt>
<rscale>  2 0.18909046E+03</rscale>
<asrwt>0</asrwt>
<pdfrwt beam="1">  1       21 0.43494566E-02 0.18918349E+03</pdfrwt>
<pdfrwt beam="2">  1       21 0.23163506E+00 0.18918349E+03</pdfrwt>
<totfact> 0.29182800E+04</totfact>
</mgrwt>
</event>
<event>
12    2  0.4097182E-002  0.2043482E+03  0.7546771E-02  0.1146526E+00
         21   -1    0    0  503  502  0.00000000000E+00  0.00000000000E+00  0.84357586790E+03  0.84357586790E+03  0.00000000000E+00 0.  1.
         21   -1    0    0  501  503 -0.00000000000E+00 -0.00000000000E+00 -0.20072074199E+03  0.20072074199E+03  0.00000000000E+00 0.  1.
          6    2    1    2  501    0 -0.92105509636E+02  0.51127586172E+02 -0.13287078994E+03  0.24210656546E+03  0.17281055305E+03 0.  0.
         24    2    3    3    0    0 -0.59616799229E+02  0.10086548316E+03 -0.74514364431E+02  0.15869830988E+03  0.76842401106E+02 0.  0.
         -6    2    1    2    0  502  0.92105509636E+02 -0.51127586172E+02  0.77572591585E+03  0.80219004443E+03  0.17510201565E+03 0.  0.
        -24    2    5    5    0    0  0.21716575964E+02 -0.79098472216E+02  0.59992189801E+03  0.61070606302E+03  0.79545167751E+02 0.  0.
          5    1    3    3  501    0 -0.32488710407E+02 -0.49737896988E+02 -0.58356425508E+02  0.83408255579E+02  0.47000000000E+01 0. -1.
        -15    1    4    4    0    0 -0.57863599056E+02  0.32045020986E+02 -0.57793479751E+02  0.87853989644E+02  0.17770000000E+01 0.  1.
         16    1    4    4    0    0 -0.17532001724E+01  0.68820462174E+02 -0.16720884680E+02  0.70844320232E+02  0.00000000000E+00 0. -1.
         -5    1    5    5    0  502  0.70388933671E+02  0.27970886045E+02  0.17580401784E+03  0.19148398142E+03  0.47000000000E+01 0.  1.
         15    1    6    6    0    0  0.19774980795E+01 -0.82939069711E+01  0.29050559496E+01  0.91813109396E+01  0.17770000000E+01 0. -1.
        -16    1    6    6    0    0  0.19739077885E+02 -0.70804565245E+02  0.59701684206E+03  0.60152475208E+03  0.00000000000E+00 0.  1.
<mgrwt>
<rscale>  2 0.20385637E+03</rscale>
<asrwt>0</asrwt>
<pdfrwt beam="1">  1       21 0.12978090E+00 0.20434816E+03</pdfrwt>
<pdfrwt beam="2">  1       21 0.30880115E-01 0.20434816E+03</pdfrwt>
<totfact> 0.43296896E+03</totfact>
</mgrwt>
</event>
<event>
12    2  0.4097182E-002  0.3329127E+03  0.7546771E-02  0.1069992E+00
         21   -1    0    0  501  502  0.00000000000E+00  0.00000000000E+00  0.94892298788E+02  0.94892298788E+02  0.00000000000E+00 0. -1.
         21   -1    0    0  502  503 -0.00000000000E+00 -0.00000000000E+00 -0.12994645436E+04  0.12994645436E+04  0.00000000000E+00 0.  1.
         -6    2    1    2    0  503  0.12445028637E+03 -0.25449482791E+03 -0.82670485610E+03  0.89075518300E+03  0.17247720351E+03 0.  0.
        -24    2    3    3    0    0  0.11037668008E+03 -0.25561156352E+03 -0.82653394096E+03  0.87587456794E+03  0.80483664768E+02 0.  0.
          6    2    1    2  501    0 -0.12445028637E+03  0.25449482791E+03 -0.37786738870E+03  0.50360165938E+03  0.17485816160E+03 0.  0.
         24    2    5    5    0    0 -0.12784866514E+03  0.15309941244E+03 -0.19013412662E+03  0.29015741151E+03  0.90860475910E+02 0.  0.
          5    1    5    5  501    0  0.33983787724E+01  0.10139541547E+03 -0.18773326209E+03  0.21344424788E+03  0.47000000000E+01 0. -1.
        -15    1    6    6    0    0  0.10871954658E+02  0.41682134665E+01 -0.26522149103E+02  0.29019915983E+02  0.17770000000E+01 0.  1.
         16    1    6    6    0    0 -0.13872061980E+03  0.14893119897E+03 -0.16361197751E+03  0.26113749552E+03  0.00000000000E+00 0. -1.
         -5    1    3    3    0  503  0.14073606290E+02  0.11167356167E+01 -0.17091513837E+00  0.14880615056E+02  0.47000000000E+01 0.  1.
         15    1    4    4    0    0  0.41660834589E+02 -0.32594214129E+02 -0.10575667069E+03  0.11826089404E+03  0.17770000000E+01 0. -1.
        -16    1    4    4    0    0  0.68715845486E+02 -0.22301734940E+03 -0.72077727027E+03  0.75761367391E+03  0.00000000000E+00 0.  1.
<mgrwt>
<rscale>  2 0.33260117E+03</rscale>
<asrwt>0</asrwt>
<pdfrwt beam="1">  1       21 0.14598816E-01 0.33291270E+03</pdfrwt>
<pdfrwt beam="2">  1       21 0.19991761E+00 0.33291270E+03</pdfrwt>
<totfact> 0.50199533E+03</totfact>
</mgrwt>
</event>
<event>
12    2  0.4097182E-002  0.2471874E+03  0.7546771E-02  0.1115660E+00
         21   -1    0    0  501  502  0.00000000000E+00  0.00000000000E+00  0.17239645491E+03  0.17239645491E+03  0.00000000000E+00 0. -1.
         21   -1    0    0  502  503 -0.00000000000E+00 -0.00000000000E+00 -0.39930266927E+03  0.39930266927E+03  0.00000000000E+00 0. -1.
         -6    2    1    2    0  503  0.12293285295E+03 -0.12971440604E+03 -0.21376840429E+03  0.32416284713E+03  0.16566927088E+03 0.  0.
        -24    2    3    3    0    0  0.13482231360E+03 -0.12417226609E+03 -0.12773328050E+03  0.23700662466E+03  0.79123582289E+02 0.  0.
          6    2    1    2  501    0 -0.12293285295E+03  0.12971440604E+03 -0.13137810075E+02  0.24753627705E+03  0.17077263520E+03 0.  0.
         24    2    5    5    0    0 -0.19928499683E+02  0.61442560678E+01  0.12973371580E+02  0.84492226059E+02  0.80843867497E+02 0.  0.
          5    1    5    5  501    0 -0.10300435327E+03  0.12357014997E+03 -0.26111181655E+02  0.16304405099E+03  0.47000000000E+01 0. -1.
        -15    1    6    6    0    0 -0.19581704396E+02 -0.36132154567E+02  0.82106756450E+01  0.41946974435E+02  0.17770000000E+01 0.  1.
         16    1    6    6    0    0 -0.34679528687E+00  0.42276410635E+02  0.47626959350E+01  0.42545251623E+02  0.00000000000E+00 0. -1.
         -5    1    3    3    0  503 -0.11889460644E+02 -0.55421399497E+01 -0.86035123791E+02  0.87156222471E+02  0.47000000000E+01 0.  1.
         15    1    4    4    0    0  0.61669448536E+02 -0.85003547915E+02 -0.11012060270E+03  0.15217893714E+03  0.17770000000E+01 0. -1.
        -16    1    4    4    0    0  0.73152865062E+02 -0.39168718172E+02 -0.17612677800E+02  0.84827687516E+02  0.00000000000E+00 0.  1.
<mgrwt>
<rscale>  2 0.24630826E+03</rscale>
<asrwt>0</asrwt>
<pdfrwt beam="1">  1       21 0.26522532E-01 0.24718739E+03</pdfrwt>
<pdfrwt beam="2">  1       21 0.61431180E-01 0.24718739E+03</pdfrwt>
<totfact> 0.32422864E+04</totfact>
</mgrwt>
</event>
<event>
12    2  0.4097182E-002  0.1947679E+03  0.7546771E-02  0.1154344E+00
         21   -1    0    0  501  502  0.00000000000E+00  0.00000000000E+00  0.11638338301E+03  0.11638338301E+03  0.00000000000E+00 0. -1.
         21   -1    0    0  502  503 -0.00000000000E+00 -0.00000000000E+00 -0.63148636780E+03  0.63148636780E+03  0.00000000000E+00 0. -1.
         -6    2    1    2    0  503  0.40052335977E+02  0.80161522894E+02 -0.51785017683E+03  0.55308243417E+03  0.17234069156E+03 0.  0.
        -24    2    3    3    0    0  0.92408375551E+02  0.40982646224E+02 -0.36907627354E+03  0.39050351930E+03  0.77825559654E+02 0.  0.
          6    2    1    2  501    0 -0.40052335977E+02 -0.80161522894E+02  0.27471920410E+01  0.19478731664E+03  0.17292915396E+03 0.  0.
         24    2    5    5    0    0  0.60608848410E+00 -0.10264857423E+03 -0.34905642343E+02  0.13479897698E+03  0.80095338152E+02 0.  0.
          5    1    5    5  501    0 -0.40658424461E+02  0.22487051337E+02  0.37652834384E+02  0.59988339655E+02  0.47000000000E+01 0. -1.
        -15    1    6    6    0    0 -0.30234243555E+02 -0.40080876172E+02 -0.40907647723E+02  0.64785642617E+02  0.17770000000E+01 0.  1.
         16    1    6    6    0    0  0.30840332039E+02 -0.62567698059E+02  0.60020053796E+01  0.70013334367E+02  0.00000000000E+00 0. -1.
         -5    1    3    3    0  503 -0.52356039574E+02  0.39178876670E+02 -0.14877390330E+03  0.16257891487E+03  0.47000000000E+01 0.  1.
         15    1    4    4    0    0  0.13422346557E+02  0.42115751729E+02 -0.18458003637E+03  0.18980738523E+03  0.17770000000E+01 0. -1.
        -16    1    4    4    0    0  0.78986028993E+02 -0.11331055054E+01 -0.18449623717E+03  0.20069613408E+03  0.00000000000E+00 0.  1.
<mgrwt>
<rscale>  2 0.19463724E+03</rscale>
<asrwt>0</asrwt>
<pdfrwt beam="1">  1       21 0.17905136E-01 0.19476794E+03</pdfrwt>
<pdfrwt beam="2">  1       21 0.97151748E-01 0.19476794E+03</pdfrwt>
<totfact> 0.24888035E+04</totfact>
</mgrwt>
</event>
<event>
12    2  0.4097182E-002  0.1947700E+03  0.7546771E-02  0.1154303E+00
         21   -1    0    0  503  502  0.00000000000E+00  0.00000000000E+00  0.83103775785E+03  0.83103775785E+03  0.00000000000E+00 0.  1.
         21   -1    0    0  501  503 -0.00000000000E+00 -0.00000000000E+00 -0.45659156415E+02  0.45659156415E+02  0.00000000000E+00 0.  1.
          6    2    1    2  501    0 -0.57452109020E+02  0.68147409487E+02  0.41198614358E+03  0.45555883917E+03  0.17279021729E+03 0.  0.
         24    2    3    3    0    0 -0.28765593888E+02 -0.18138875302E+02  0.10416240899E+03  0.13455139273E+03  0.78088357961E+02 0.  0.
         -6    2    1    2    0  502  0.57452109020E+02 -0.68147409487E+02  0.37339245785E+03  0.42113807510E+03  0.17317775973E+03 0.  0.
        -24    2    5    5    0    0  0.25057085696E+02  0.24492768807E+02  0.24869694155E+03  0.26238448630E+03  0.75945353023E+02 0.  0.
          5    1    3    3  501    0 -0.28686515132E+02  0.86286284790E+02  0.30782373459E+03  0.32100744644E+03  0.47000000000E+01 0. -1.
        -15    1    4    4    0    0 -0.19370218384E+02  0.25195111539E+02  0.75014269985E+02  0.81488020200E+02  0.17770000000E+01 0.  1.
         16    1    4    4    0    0 -0.93953755039E+01 -0.43333986842E+02  0.29148139006E+02  0.53063372527E+02  0.00000000000E+00 0. -1.
         -5    1    5    5    0  502  0.32395023324E+02 -0.92640178294E+02  0.12469551630E+03  0.15875358880E+03  0.47000000000E+01 0.  1.
         15    1    6    6    0    0  0.50775927329E+02  0.94808848997E+01  0.12737912295E+03  0.13746519802E+03  0.17770000000E+01 0. -1.
        -16    1    6    6    0    0 -0.25718841634E+02  0.15011883907E+02  0.12131781860E+03  0.12491928827E+03  0.00000000000E+00 0.  1.
<mgrwt>
<rscale>  2 0.19468381E+03</rscale>
<asrwt>0</asrwt>
<pdfrwt beam="1">  1       21 0.12785195E+00 0.19476999E+03</pdfrwt>
<pdfrwt beam="2">  1       21 0.70244862E-02 0.19476999E+03</pdfrwt>
<totfact> 0.67707381E+04</totfact>
</mgrwt>
</event>
<event>
12    2  0.4097182E-002  0.2316993E+03  0.7546771E-02  0.1125473E+00
         21   -1    0    0  503  502  0.00000000000E+00  0.00000000000E+00  0.70489170210E+02  0.70489170210E+02  0.00000000000E+00 0.  1.
         21   -1    0    0  501  503 -0.00000000000E+00 -0.00000000000E+00 -0.97982165462E+03  0.97982165462E+03  0.00000000000E+00 0.  1.
          6    2    1    2  501    0 -0.35637292598E+02  0.15043710171E+03 -0.70264822747E+03  0.73982261871E+03  0.17239964441E+03 0.  0.
         24    2    3    3    0    0 -0.89742306530E+02  0.10550072786E+03 -0.44565702034E+03  0.47333959717E+03  0.79095570734E+02 0.  0.
         -6    2    1    2    0  502  0.35637292598E+02 -0.15043710171E+03 -0.20668425694E+03  0.31048820612E+03  0.17257811530E+03 0.  0.
        -24    2    5    5    0    0  0.40611389598E+02 -0.10083880307E+03 -0.22039745313E+03  0.25857602433E+03  0.80428687928E+02 0.  0.
          5    1    3    3  501    0  0.54105013933E+02  0.44936373848E+02 -0.25699120713E+03  0.26648302154E+03  0.47000000000E+01 0. -1.
        -15    1    4    4    0    0 -0.21836632106E+02  0.74622800925E+02 -0.29702809028E+03  0.30704111298E+03  0.17770000000E+01 0.  1.
         16    1    4    4    0    0 -0.67905674424E+02  0.30877926937E+02 -0.14862893006E+03  0.16629848418E+03  0.00000000000E+00 0. -1.
         -5    1    5    5    0  502 -0.49740970000E+01 -0.49598298640E+02  0.13713196188E+02  0.51912181794E+02  0.47000000000E+01 0.  1.
         15    1    6    6    0    0 -0.10082624841E+02  0.57189778757E-01  0.75413544137E+00  0.10265916599E+02  0.17770000000E+01 0. -1.
        -16    1    6    6    0    0  0.50694014439E+02 -0.10089599285E+03 -0.22115158857E+03  0.24831010773E+03  0.00000000000E+00 0.  1.
<mgrwt>
<rscale>  2 0.23166602E+03</rscale>
<asrwt>0</asrwt>
<pdfrwt beam="1">  1       21 0.10844488E-01 0.23169925E+03</pdfrwt>
<pdfrwt beam="2">  1       21 0.15074179E+00 0.23169925E+03</pdfrwt>
<totfact> 0.20228296E+04</totfact>
</mgrwt>
</event>
<event>
12    2  0.4097182E-002  0.3060442E+03  0.7546771E-02  0.1082312E+00
         21   -1    0    0  503  502  0.00000000000E+00  0.00000000000E+00  0.93375584462E+03  0.93375584462E+03  0.00000000000E+00 0.  1.
         21   -1    0    0  501  503 -0.00000000000E+00 -0.00000000000E+00 -0.40197715831E+03  0.40197715831E+03  0.00000000000E+00 0.  1.
          6    2    1    2  501    0 -0.19689504722E+03 -0.15603590649E+03 -0.31277128389E+03  0.43759445557E+03  0.17478034152E+03 0.  0.
         24    2    3    3    0    0 -0.17536497027E+02 -0.35148511094E+02 -0.83525154826E+02  0.12238162337E+03  0.80360834297E+02 0.  0.
         -6    2    1    2    0  502  0.19689504722E+03  0.15603590649E+03  0.84454997021E+03  0.89813854736E+03  0.17399233989E+03 0.  0.
        -24    2    5    5    0    0  0.12119187976E+03  0.61248830185E+02  0.28771376833E+03  0.32822258415E+03  0.80696724472E+02 0.  0.
          5    1    3    3  501    0 -0.17935855019E+03 -0.12088739540E+03 -0.22924612907E+03  0.31521283220E+03  0.47000000000E+01 0. -1.
        -15    1    4    4    0    0 -0.35336180550E+02 -0.52124776539E+02 -0.70507476443E+02  0.94552101767E+02  0.17770000000E+01 0.  1.
         16    1    4    4    0    0  0.17799683522E+02  0.16976265445E+02 -0.13017678382E+02  0.27829521599E+02  0.00000000000E+00 0. -1.
         -5    1    5    5    0  502  0.75703167453E+02  0.94787076309E+02  0.55683620188E+03  0.56991596321E+03  0.47000000000E+01 0.  1.
         15    1    6    6    0    0  0.44279447969E+02 -0.14536650457E+02  0.12012733074E+03  0.12886317177E+03  0.17770000000E+01 0. -1.
        -16    1    6    6    0    0  0.76912431795E+02  0.75785480643E+02  0.16758643759E+03  0.19935941238E+03  0.00000000000E+00 0.  1.
<mgrwt>
<rscale>  2 0.30593177E+03</rscale>
<asrwt>0</asrwt>
<pdfrwt beam="1">  1       21 0.14365474E+00 0.30604417E+03</pdfrwt>
<pdfrwt beam="2">  1       21 0.61842640E-01 0.30604417E+03</pdfrwt>
<totfact> 0.73755845E+02</totfact>
</mgrwt>
</event>
<event>
12    2  0.4097182E-002  0.2224591E+03  0.7546771E-02  0.1132191E+00
         21   -1    0    0  503  502  0.00000000000E+00  0.00000000000E+00  0.18348506242E+03  0.18348506242E+03  0.00000000000E+00 0.  1.
         21   -1    0    0  501  503 -0.00000000000E+00 -0.00000000000E+00 -0.51040550047E+03  0.51040550047E+03  0.00000000000E+00 0.  1.
          6    2    1    2  501    0 -0.98209553986E+02 -0.98713203592E+02 -0.40226445429E+03  0.45967897295E+03  0.17348963637E+03 0.  0.
         24    2    3    3    0    0  0.24203684686E+01 -0.44872197149E+02 -0.26828652295E+03  0.28361815575E+03  0.80263488658E+02 0.  0.
         -6    2    1    2    0  502  0.98209553986E+02  0.98713203592E+02  0.75344016238E+02  0.23421158994E+03  0.17259471319E+03 0.  0.
        -24    2    5    5    0    0 -0.59439444410E+01  0.45978408911E+02  0.84279533041E+01  0.99568508856E+02  0.87712672958E+02 0.  0.
          5    1    3    3  501    0 -0.10062992245E+03 -0.53841006443E+02 -0.13397793134E+03  0.17606081720E+03  0.47000000000E+01 0. -1.
        -15    1    4    4    0    0  0.19170485308E+02 -0.62292336012E+02 -0.16219756922E+03  0.17481147509E+03  0.17770000000E+01 0.  1.
         16    1    4    4    0    0 -0.16750116839E+02  0.17420138862E+02 -0.10608895373E+03  0.10880668066E+03  0.00000000000E+00 0. -1.
         -5    1    5    5    0  502  0.10415349843E+03  0.52734794681E+02  0.66916062933E+02  0.13464308108E+03  0.47000000000E+01 0.  1.
         15    1    6    6    0    0 -0.99983041096E+01 -0.24159904897E+02 -0.80322811207E+01  0.27410624924E+02  0.17770000000E+01 0. -1.
        -16    1    6    6    0    0  0.40543596686E+01  0.70138313809E+02  0.16460234425E+02  0.72157883932E+02  0.00000000000E+00 0.  1.
<mgrwt>
<rscale>  2 0.22228463E+03</rscale>
<asrwt>0</asrwt>
<pdfrwt beam="1">  1       21 0.28228472E-01 0.22245914E+03</pdfrwt>
<pdfrwt beam="2">  1       21 0.78523921E-01 0.22245914E+03</pdfrwt>
<totfact> 0.16895016E+04</totfact>
</mgrwt>
</event>
<event>
12    2  0.4097182E-002  0.1774092E+03  0.7546771E-02  0.1171176E+00
         21   -1    0    0  501  502  0.00000000000E+00  0.00000000000E+00  0.33809445501E+03  0.33809445501E+03  0.00000000000E+00 0.  1.
         21   -1    0    0  502  503 -0.00000000000E+00 -0.00000000000E+00 -0.22033297490E+03  0.22033297490E+03  0.00000000000E+00 0.  1.
         -6    2    1    2    0  503 -0.13017460978E+01  0.11263004745E+02 -0.15499847624E+03  0.23304762407E+03  0.17366092718E+03 0.  0.
        -24    2    3    3    0    0 -0.41507145654E+01  0.33217757534E+02 -0.17881537319E+03  0.20019245139E+03  0.83554964296E+02 0.  0.
          6    2    1    2  501    0  0.13017460978E+01 -0.11263004745E+02  0.27275995635E+03  0.32537980584E+03  0.17704653185E+03 0.  0.
         24    2    5    5    0    0  0.13893695412E+02  0.49511465647E+02  0.23218604822E+03  0.25108024016E+03  0.80538847809E+02 0.  0.
          5    1    5    5  501    0 -0.12591949314E+02 -0.60774470393E+02  0.40573908129E+02  0.74299565678E+02  0.47000000000E+01 0. -1.
        -15    1    6    6    0    0  0.38364481667E+01 -0.84185705721E+01  0.14853151315E+03  0.14882996604E+03  0.17770000000E+01 0.  1.
         16    1    6    6    0    0  0.10057247246E+02  0.57930036219E+02  0.83654535077E+02  0.10225027412E+03  0.00000000000E+00 0. -1.
         -5    1    3    3    0  503  0.28489684676E+01 -0.21954752789E+02  0.23816896948E+02  0.32855172676E+02  0.47000000000E+01 0.  1.
         15    1    4    4    0    0  0.31768676490E+02  0.19215131422E+01 -0.29394531073E+02  0.43360548943E+02  0.17770000000E+01 0. -1.
        -16    1    4    4    0    0 -0.35919391055E+02  0.31296244392E+02 -0.14942084212E+03  0.15683190245E+03  0.00000000000E+00 0.  1.
<mgrwt>
<rscale>  2 0.17655846E+03</rscale>
<asrwt>0</asrwt>
<pdfrwt beam="1">  1       21 0.52014532E-01 0.17740920E+03</pdfrwt>
<pdfrwt beam="2">  1       21 0.33897381E-01 0.17740920E+03</pdfrwt>
<totfact> 0.29661226E+04</totfact>
</mgrwt>
</event>
<event>
12    2  0.4097182E-002  0.1739611E+03  0.7546771E-02  0.1174141E+00
         21   -1    0    0  501  502  0.00000000000E+00  0.00000000000E+00  0.53394433215E+03  0.53394433215E+03  0.00000000000E+00 0. -1.
         21   -1    0    0  502  503 -0.00000000000E+00 -0.00000000000E+00 -0.94259827302E+02  0.94259827302E+02  0.00000000000E+00 0. -1.
         -6    2    1    2    0  503  0.74585335745E+01 -0.12697660932E+02  0.19751077583E+02  0.17366424887E+03  0.17190784146E+03 0.  0.
        -24    2    3    3    0    0  0.36065167259E+02 -0.16591754425E+02 -0.46651383442E+02  0.10110475408E+03  0.80435297697E+02 0.  0.
          6    2    1    2  501    0 -0.74585335745E+01  0.12697660932E+02  0.41993342726E+03  0.45453991057E+03  0.17333662815E+03 0.  0.
         24    2    5    5    0    0 -0.37342489094E+02 -0.26748130726E+02  0.38878020569E+03  0.39587446511E+03  0.58793025107E+02 0.  0.
          5    1    5    5  501    0  0.29883955519E+02  0.39445791658E+02  0.31153221568E+02  0.58665445461E+02  0.47000000000E+01 0. -1.
        -15    1    6    6    0    0 -0.23074483523E+02 -0.19159071159E+02  0.64093790883E+02  0.70786111323E+02  0.17770000000E+01 0.  1.
         16    1    6    6    0    0 -0.14268005571E+02 -0.75890595677E+01  0.32468641481E+03  0.32508835379E+03  0.00000000000E+00 0. -1.
         -5    1    3    3    0  503 -0.28606633684E+02  0.38940934933E+01  0.66402461025E+02  0.72559494796E+02  0.47000000000E+01 0.  1.
         15    1    4    4    0    0 -0.16921817072E+01 -0.29023532058E+02 -0.53359289302E+02  0.60791449858E+02  0.17770000000E+01 0. -1.
        -16    1    4    4    0    0  0.37757348966E+02  0.12431777632E+02  0.67079058598E+01  0.40313304219E+02  0.00000000000E+00 0.  1.
<mgrwt>
<rscale>  2 0.17360405E+03</rscale>
<asrwt>0</asrwt>
<pdfrwt beam="1">  1       21 0.82145280E-01 0.17396105E+03</pdfrwt>
<pdfrwt beam="2">  1       21 0.14501512E-01 0.17396105E+03</pdfrwt>
<totfact> 0.54520658E+04</totfact>
</mgrwt>
</event>
<event>
12    2  0.4097182E-002  0.3641907E+03  0.7546771E-02  0.1056961E+00
         21   -1    0    0  501  502  0.00000000000E+00  0.00000000000E+00  0.63873961326E+03  0.63873961326E+03  0.00000000000E+00 0. -1.
         21   -1    0    0  502  503 -0.00000000000E+00 -0.00000000000E+00 -0.30658474901E+03  0.30658474901E+03  0.00000000000E+00 0.  1.
         -6    2    1    2    0  503 -0.31716458692E+03 -0.42560803556E+02 -0.10257946171E+03  0.37836147397E+03  0.17386794365E+03 0.  0.
        -24    2    3    3    0    0 -0.14434573536E+03 -0.59710413953E+02 -0.10513373567E+03  0.20461142676E+03  0.80073146150E+02 0.  0.
          6    2    1    2  501    0  0.31716458692E+03  0.42560803556E+02  0.43473432596E+03  0.56696288830E+03  0.17334412407E+03 0.  0.
         24    2    5    5    0    0  0.18813573158E+03 -0.33835571932E+02  0.19806232075E+03  0.28674765005E+03  0.80346950687E+02 0.  0.
          5    1    5    5  501    0  0.12902885534E+03  0.76396375488E+02  0.23667200521E+03  0.28021523825E+03  0.47000000000E+01 0. -1.
        -15    1    6    6    0    0  0.52169585503E+02  0.26468013611E+02  0.52207702190E+02  0.78428459714E+02  0.17770000000E+01 0.  1.
         16    1    6    6    0    0  0.13596614607E+03 -0.60303585543E+02  0.14585461856E+03  0.20831919034E+03  0.00000000000E+00 0. -1.
         -5    1    3    3    0  503 -0.17281885156E+03  0.17149610398E+02  0.25542739600E+01  0.17375004721E+03  0.47000000000E+01 0.  1.
         15    1    4    4    0    0 -0.99412917888E+02 -0.90622941675E+00 -0.44491769680E+02  0.10893312073E+03  0.17770000000E+01 0. -1.
        -16    1    4    4    0    0 -0.44932817470E+02 -0.58804184537E+02 -0.60641965989E+02  0.95678306025E+02  0.00000000000E+00 0.  1.
<mgrwt>
<rscale>  2 0.36412823E+03</rscale>
<asrwt>0</asrwt>
<pdfrwt beam="1">  1       21 0.98267632E-01 0.36419069E+03</pdfrwt>
<pdfrwt beam="2">  1       21 0.47166885E-01 0.36419069E+03</pdfrwt>
<totfact> 0.33148806E+03</totfact>
</mgrwt>
</event>
<event>
12    2  0.4097182E-002  0.1936893E+03  0.7546771E-02  0.1155597E+00
         21   -1    0    0  503  502  0.00000000000E+00  0.00000000000E+00  0.19545771063E+02  0.19545771063E+02  0.00000000000E+00 0. -1.
         21   -1    0    0  501  503 -0.00000000000E+00 -0.00000000000E+00 -0.20273383840E+04  0.20273383840E+04  0.00000000000E+00 0.  1.
          6    2    1    2  501    0  0.80644039555E+02 -0.14959622351E+02 -0.12645073462E+04  0.12792553909E+04  0.17546588040E+03 0.  0.
         24    2    3    3    0    0 -0.10312890813E+01  0.44268035920E+02 -0.73287654107E+03  0.73811568828E+03  0.75802521513E+02 0.  0.
         -6    2    1    2    0  502 -0.80644039555E+02  0.14959622351E+02 -0.74328526673E+03  0.76762876414E+03  0.17335997339E+03 0.  0.
        -24    2    5    5    0    0 -0.61852810921E+02  0.72575353359E+02 -0.58429425312E+03  0.59741444294E+03  0.80070533063E+02 0.  0.
          5    1    3    3  501    0  0.81675328636E+02 -0.59227658271E+02 -0.53163080510E+03  0.54113970261E+03  0.47000000000E+01 0. -1.
        -15    1    4    4    0    0  0.36749265270E+02  0.14438985849E+02 -0.35031285856E+03  0.35253545837E+03  0.17770000000E+01 0.  1.
         16    1    4    4    0    0 -0.37780554351E+02  0.29829050072E+02 -0.38256368251E+03  0.38558022991E+03  0.00000000000E+00 0. -1.
         -5    1    5    5    0  502 -0.18791228634E+02 -0.57615731008E+02 -0.15899101361E+03  0.17021432120E+03  0.47000000000E+01 0.  1.
         15    1    6    6    0    0 -0.36838831795E+02 -0.98019684300E+01 -0.16203049363E+03  0.16646386007E+03  0.17770000000E+01 0. -1.
        -16    1    6    6    0    0 -0.25013979125E+02  0.82377321789E+02 -0.42226375949E+03  0.43095058287E+03  0.00000000000E+00 0.  1.
<mgrwt>
<rscale>  2 0.19321106E+03</rscale>
<asrwt>0</asrwt>
<pdfrwt beam="1">  1       21 0.30070417E-02 0.19368925E+03</pdfrwt>
<pdfrwt beam="2">  1       21 0.31189821E+00 0.19368925E+03</pdfrwt>
<totfact> 0.18353124E+04</totfact>
</mgrwt>
</event>
<event>
12    2  0.4097182E-002  0.1805920E+03  0.7546771E-02  0.1167499E+00
         21   -1    0    0  503  502  0.00000000000E+00  0.00000000000E+00  0.63915438503E+02  0.63915438503E+02  0.00000000000E+00 0.  1.
         21   -1    0    0  501  503 -0.00000000000E+00 -0.00000000000E+00 -0.51604816872E+03  0.51604816872E+03  0.00000000000E+00 0.  1.
          6    2    1    2  501    0  0.20870323338E+02  0.42263828094E+02 -0.26485572573E+03  0.32056514755E+03  0.17433203035E+03 0.  0.
         24    2    3    3    0    0  0.69333649714E+02  0.20369961184E+02 -0.23735354887E+03  0.26051104574E+03  0.79417929273E+02 0.  0.
         -6    2    1    2    0  502 -0.20870323338E+02 -0.42263828094E+02 -0.18727700449E+03  0.25939845968E+03  0.17318511169E+03 0.  0.
        -24    2    5    5    0    0 -0.77395733183E+02 -0.59257165283E+01 -0.12427911831E+03  0.16716829122E+03  0.80465674118E+02 0.  0.
          5    1    3    3  501    0 -0.48463326376E+02  0.21893866910E+02 -0.27502176864E+02  0.60054101808E+02  0.47000000000E+01 0. -1.
        -15    1    4    4    0    0  0.17288412140E+02  0.24041027315E+02 -0.18216241102E+03  0.18456208144E+03  0.17770000000E+01 0.  1.
         16    1    4    4    0    0  0.52045237575E+02 -0.36710661307E+01 -0.55191137850E+02  0.75948964298E+02  0.00000000000E+00 0. -1.
         -5    1    5    5    0  502  0.56525409846E+02 -0.36338111566E+02 -0.62997886177E+02  0.92230168454E+02  0.47000000000E+01 0.  1.
         15    1    6    6    0    0  0.58876453026E+01 -0.25434738914E+02 -0.32129300940E+02  0.41437181597E+02  0.17770000000E+01 0. -1.
        -16    1    6    6    0    0 -0.83283378486E+02  0.19509022386E+02 -0.92149817370E+02  0.12573110963E+03  0.00000000000E+00 0.  1.
<mgrwt>
<rscale>  2 0.18031460E+03</rscale>
<asrwt>0</asrwt>
<pdfrwt beam="1">  1       21 0.98331446E-02 0.18059197E+03</pdfrwt>
<pdfrwt beam="2">  1       21 0.79392025E-01 0.18059197E+03</pdfrwt>
<totfact> 0.11749372E+05</totfact>
</mgrwt>
</event>
<event>
12    2  0.4097182E-002  0.1991514E+03  0.7546771E-02  0.1152744E+00
         21   -1    0    0  503  502  0.00000000000E+00  0.00000000000E+00  0.47966577835E+03  0.47966577835E+03  0.00000000000E+00 0. -1.
         21   -1    0    0  501  503 -0.00000000000E+00 -0.00000000000E+00 -0.82319802054E+02  0.82319802054E+02  0.00000000000E+00 0.  1.
          6    2    1    2  501    0 -0.52591198211E+02 -0.82538037878E+02  0.25491484575E+03  0.31714298425E+03  0.16130632985E+03 0.  0.
         24    2    3    3    0    0 -0.77717241930E+02 -0.87452074057E+01  0.11330310914E+03  0.15542510074E+03  0.72131262666E+02 0.  0.
         -6    2    1    2    0  502  0.52591198211E+02  0.82538037878E+02  0.14243113055E+03  0.24484259615E+03  0.17344425074E+03 0.  0.
        -24    2    5    5    0    0  0.24919881096E+02  0.79063463838E+02  0.16932904614E+03  0.20581232176E+03  0.82549101352E+02 0.  0.
          5    1    3    3  501    0  0.25126043719E+02 -0.73792830472E+02  0.14161173661E+03  0.16171788351E+03  0.47000000000E+01 0. -1.
        -15    1    4    4    0    0  0.50040806618E+01  0.18527898436E+02  0.19459940114E+02  0.27389246831E+02  0.17770000000E+01 0.  1.
         16    1    4    4    0    0 -0.82721322591E+02 -0.27273105842E+02  0.93843169030E+02  0.12803585391E+03  0.00000000000E+00 0. -1.
         -5    1    5    5    0  502  0.27671317115E+02  0.34745740392E+01 -0.26897915594E+02  0.39030274390E+02  0.47000000000E+01 0.  1.
         15    1    6    6    0    0  0.17785396238E+02  0.13299617415E+02 -0.17915799857E+01  0.22351009610E+02  0.17770000000E+01 0. -1.
        -16    1    6    6    0    0  0.71344848579E+01  0.65763846424E+02  0.17112062613E+03  0.18346131215E+03  0.00000000000E+00 0.  1.
<mgrwt>
<rscale>  2 0.19647886E+03</rscale>
<asrwt>0</asrwt>
<pdfrwt beam="1">  1       21 0.73794734E-01 0.19915137E+03</pdfrwt>
<pdfrwt beam="2">  1       21 0.12664585E-01 0.19915137E+03</pdfrwt>
<totfact> 0.87576952E+04</totfact>
</mgrwt>
</event>
<event>
12    2  0.4097182E-002  0.2185032E+03  0.7546771E-02  0.1135811E+00
         21   -1    0    0  501  502  0.00000000000E+00  0.00000000000E+00  0.17026388331E+04  0.17026388331E+04  0.00000000000E+00 0. -1.
         21   -1    0    0  502  503 -0.00000000000E+00 -0.00000000000E+00 -0.78558227221E+02  0.78558227221E+02  0.00000000000E+00 0. -1.
         -6    2    1    2    0  503  0.12642176649E+03  0.74901832068E+01  0.91261406351E+02  0.23288238397E+03  0.17282070069E+03 0.  0.
        -24    2    3    3    0    0  0.10180073226E+03  0.36871350798E+02  0.95915758973E+00  0.13466815655E+03  0.80073134113E+02 0.  0.
          6    2    1    2  501    0 -0.12642176649E+03 -0.74901832068E+01  0.15328191996E+04  0.15483146764E+04  0.17805918311E+03 0.  0.
         24    2    5    5    0    0 -0.11115663004E+02  0.25291002165E+02  0.38858051323E+03  0.39780419625E+03  0.80561594675E+02 0.  0.
          5    1    5    5  501    0 -0.11530610348E+03 -0.32781185371E+02  0.11442386863E+04  0.11505104801E+04  0.47000000000E+01 0. -1.
        -15    1    6    6    0    0 -0.38274168008E+02  0.24666498782E+02  0.12911346492E+03  0.13691892729E+03  0.17770000000E+01 0.  1.
         16    1    6    6    0    0  0.27158505004E+02  0.62450338255E+00  0.25946704831E+03  0.26088526895E+03  0.00000000000E+00 0. -1.
         -5    1    3    3    0  503  0.24621034227E+02 -0.29381167591E+02  0.90302248762E+02  0.98214227415E+02  0.47000000000E+01 0.  1.
         15    1    4    4    0    0  0.18446069922E+02  0.33083410889E+02 -0.27130690163E+02  0.46626190595E+02  0.17770000000E+01 0. -1.
        -16    1    4    4    0    0  0.83354662340E+02  0.37879399085E+01  0.28089847753E+02  0.88041965955E+02  0.00000000000E+00 0.  1.
<mgrwt>
<rscale>  2 0.21743351E+03</rscale>
<asrwt>0</asrwt>
<pdfrwt beam="1">  1       21 0.26194441E+00 0.21850318E+03</pdfrwt>
<pdfrwt beam="2">  1       21 0.12085882E-01 0.21850318E+03</pdfrwt>
<totfact> 0.31909053E+03</totfact>
</mgrwt>
</event>
<event>
12    2  0.4097182E-002  0.2547946E+03  0.7546771E-02  0.1110418E+00
         21   -1    0    0  503  502  0.00000000000E+00  0.00000000000E+00  0.13152074941E+04  0.13152074941E+04  0.00000000000E+00 0. -1.
         21   -1    0    0  501  503 -0.00000000000E+00 -0.00000000000E+00 -0.50139529017E+02  0.50139529017E+02  0.00000000000E+00 0. -1.
          6    2    1    2  501    0 -0.18233575767E+03  0.39188344202E+02  0.72542446064E+03  0.76886989962E+03  0.17360362783E+03 0.  0.
         24    2    3    3    0    0 -0.56926453022E+02 -0.16106496424E+02  0.46163230366E+03  0.47155961527E+03  0.75921319101E+02 0.  0.
         -6    2    1    2    0  502  0.18233575767E+03 -0.39188344202E+02  0.53964350445E+03  0.59647712351E+03  0.17259140224E+03 0.  0.
        -24    2    5    5    0    0  0.59202295314E+02 -0.32500532828E+02  0.38414945774E+03  0.39796499558E+03  0.79019841941E+02 0.  0.
          5    1    3    3  501    0 -0.12540930465E+03  0.55294840626E+02  0.26379215698E+03  0.29731028434E+03  0.47000000000E+01 0. -1.
        -15    1    4    4    0    0  0.17719085657E+02  0.50409123319E+01  0.78682392487E+02  0.80829780465E+02  0.17770000000E+01 0.  1.
         16    1    4    4    0    0 -0.74645538679E+02 -0.21147408756E+02  0.38294991117E+03  0.39072983481E+03  0.00000000000E+00 0. -1.
         -5    1    5    5    0  502  0.12313346236E+03 -0.66878113737E+01  0.15549404672E+03  0.19851212794E+03  0.47000000000E+01 0.  1.
         15    1    6    6    0    0  0.65067127713E+02 -0.40034187782E+02  0.20860937085E+03  0.22216546679E+03  0.17770000000E+01 0. -1.
        -16    1    6    6    0    0 -0.58648323991E+01  0.75336549542E+01  0.17554008689E+03  0.17579952879E+03  0.00000000000E+00 0.  1.
<mgrwt>
<rscale>  2 0.25462225E+03</rscale>
<asrwt>0</asrwt>
<pdfrwt beam="1">  1       21 0.20233959E+00 0.25479457E+03</pdfrwt>
<pdfrwt beam="2">  1       21 0.77137747E-02 0.25479457E+03</pdfrwt>
<totfact> 0.15872901E+04</totfact>
</mgrwt>
</event>
<event>
12    2  0.4097182E-002  0.1811142E+03  0.7546771E-02  0.1167391E+00
         21   -1    0    0  503  502  0.00000000000E+00  0.00000000000E+00  0.27070158506E+03  0.27070158506E+03  0.00000000000E+00 0. -1.
         21   -1    0    0  501  503 -0.00000000000E+00 -0.00000000000E+00 -0.15620807490E+03  0.15620807490E+03  0.00000000000E+00 0. -1.
          6    2    1    2  501    0  0.24827473717E+02 -0.46720779140E+02 -0.46100177096E+02  0.18688925540E+03  0.17321412414E+03 0.  0.
         24    2    3    3    0    0  0.50848675806E+02  0.22574381058E+02 -0.54134591341E+02  0.11228654769E+03  0.81132757266E+02 0.  0.
         -6    2    1    2    0  502 -0.24827473717E+02  0.46720779140E+02  0.16059368725E+03  0.24002040456E+03  0.17035324349E+03 0.  0.
        -24    2    5    5    0    0  0.17344190271E+02  0.16565719688E+02  0.14340266323E+02  0.84778883099E+02  0.80041063063E+02 0.  0.
          5    1    3    3  501    0 -0.26021202089E+02 -0.69295160198E+02  0.80344142454E+01  0.74602707707E+02  0.47000000000E+01 0. -1.
        -15    1    4    4    0    0 -0.20763178442E+02  0.16312880474E+02 -0.15710783226E+02  0.30776713387E+02  0.17770000000E+01 0.  1.
         16    1    4    4    0    0  0.71611854248E+02  0.62615005843E+01 -0.38423808115E+02  0.81509834305E+02  0.00000000000E+00 0. -1.
         -5    1    5    5    0  502 -0.42171663988E+02  0.30155059452E+02  0.14625342092E+03  0.15524152146E+03  0.47000000000E+01 0.  1.
         15    1    6    6    0    0 -0.98534624335E+01  0.10992383622E+02  0.42626000298E+02  0.45144843006E+02  0.17770000000E+01 0. -1.
        -16    1    6    6    0    0  0.27197652704E+02  0.55733360660E+01 -0.28285733975E+02  0.39634040092E+02  0.00000000000E+00 0.  1.
<mgrwt>
<rscale>  2 0.18042680E+03</rscale>
<asrwt>0</asrwt>
<pdfrwt beam="1">  1       21 0.41646398E-01 0.18111424E+03</pdfrwt>
<pdfrwt beam="2">  1       21 0.24032012E-01 0.18111424E+03</pdfrwt>
<totfact> 0.91053787E+04</totfact>
</mgrwt>
</event>
<event>
12    2  0.4097182E-002  0.1879031E+03  0.7546771E-02  0.1160592E+00
         21   -1    0    0  501  502  0.00000000000E+00  0.00000000000E+00  0.67958810031E+02  0.67958810031E+02  0.00000000000E+00 0. -1.
         21   -1    0    0  502  503 -0.00000000000E+00 -0.00000000000E+00 -0.74960971965E+03  0.74960971965E+03  0.00000000000E+00 0. -1.
         -6    2    1    2    0  503 -0.71818464157E+02 -0.17531321301E+01 -0.56924211236E+03  0.59945320897E+03  0.17362776850E+03 0.  0.
        -24    2    3    3    0    0 -0.37463056293E+02 -0.70066517519E+02 -0.31022005942E+03  0.32933929489E+03  0.76909612042E+02 0.  0.
          6    2    1    2  501    0  0.71818464157E+02  0.17531321301E+01 -0.11240879726E+03  0.21811532071E+03  0.17256184445E+03 0.  0.
         24    2    5    5    0    0  0.58227653576E+02  0.65130546712E+02 -0.90516806096E+02  0.14953867681E+03  0.80846001266E+02 0.  0.
          5    1    5    5  501    0  0.13590810581E+02 -0.63377414581E+02 -0.21891991160E+02  0.68576643897E+02  0.47000000000E+01 0. -1.
        -15    1    6    6    0    0  0.46465376700E+02  0.46421334598E+02 -0.10446169967E+03  0.12340735782E+03  0.17770000000E+01 0.  1.
         16    1    6    6    0    0  0.11762276876E+02  0.18709212113E+02  0.13944893575E+02  0.26131318988E+02  0.00000000000E+00 0. -1.
         -5    1    3    3    0  503 -0.34355407864E+02  0.68313385389E+02 -0.25902205294E+03  0.27011391409E+03  0.47000000000E+01 0.  1.
         15    1    4    4    0    0 -0.56652619206E+02 -0.66974795670E+02 -0.21609147130E+03  0.23322483619E+03  0.17770000000E+01 0. -1.
        -16    1    4    4    0    0  0.19189562913E+02 -0.30917218490E+01 -0.94128588124E+02  0.96114458699E+02  0.00000000000E+00 0.  1.
<mgrwt>
<rscale>  2 0.18765647E+03</rscale>
<asrwt>0</asrwt>
<pdfrwt beam="1">  1       21 0.10455202E-01 0.18790308E+03</pdfrwt>
<pdfrwt beam="2">  1       21 0.11532456E+00 0.18790308E+03</pdfrwt>
<totfact> 0.43777795E+04</totfact>
</mgrwt>
</event>
<event>
12    2  0.4097182E-002  0.1774256E+03  0.7546771E-02  0.1170709E+00
         21   -1    0    0  501  502  0.00000000000E+00  0.00000000000E+00  0.45400175556E+02  0.45400175556E+02  0.00000000000E+00 0. -1.
         21   -1    0    0  502  503 -0.00000000000E+00 -0.00000000000E+00 -0.69521978839E+03  0.69521978839E+03  0.00000000000E+00 0. -1.
         -6    2    1    2    0  503  0.46383194588E-01  0.36012046643E+02 -0.36316688304E+03  0.40350037987E+03  0.17212060295E+03 0.  0.
        -24    2    3    3    0    0 -0.48939104879E+02  0.42223734555E+01 -0.29293148105E+03  0.31203856786E+03  0.95636555851E+02 0.  0.
          6    2    1    2  501    0 -0.46383194588E-01 -0.36012046643E+02 -0.28665272980E+03  0.33711958409E+03  0.17373242881E+03 0.  0.
         24    2    5    5    0    0 -0.76317107967E+01  0.30336281392E+02 -0.24219094207E+03  0.25675430305E+03  0.79295565681E+02 0.  0.
          5    1    5    5  501    0  0.75853276021E+01 -0.66348328035E+02 -0.44461787729E+02  0.80365281036E+02  0.47000000000E+01 0. -1.
        -15    1    6    6    0    0  0.33061530275E+02  0.46554439488E+01 -0.13793549920E+03  0.14192990387E+03  0.17770000000E+01 0.  1.
         16    1    6    6    0    0 -0.40693241072E+02  0.25680837443E+02 -0.10425544286E+03  0.11482439918E+03  0.00000000000E+00 0. -1.
         -5    1    3    3    0  503  0.48985488074E+02  0.31789673188E+02 -0.70235401991E+02  0.91461812009E+02  0.47000000000E+01 0.  1.
         15    1    4    4    0    0 -0.66154971363E+00  0.77227323265E+01  0.55245847961E+01  0.96828202906E+01  0.17770000000E+01 0. -1.
        -16    1    4    4    0    0 -0.48277555166E+02 -0.35003588711E+01 -0.29845606585E+03  0.30235574757E+03  0.00000000000E+00 0.  1.
<mgrwt>
<rscale>  2 0.17702974E+03</rscale>
<asrwt>0</asrwt>
<pdfrwt beam="1">  1       21 0.69846425E-02 0.17742555E+03</pdfrwt>
<pdfrwt beam="2">  1       21 0.10695689E+00 0.17742555E+03</pdfrwt>
<totfact> 0.10678616E+05</totfact>
</mgrwt>
</event>
<event>
12    2  0.4097182E-002  0.1948884E+03  0.7546771E-02  0.1155404E+00
         21   -1    0    0  503  502  0.00000000000E+00  0.00000000000E+00  0.17489745513E+04  0.17489745513E+04  0.00000000000E+00 0. -1.
         21   -1    0    0  501  503 -0.00000000000E+00 -0.00000000000E+00 -0.28327448219E+02  0.28327448219E+02  0.00000000000E+00 0. -1.
          6    2    1    2  501    0 -0.56380992530E+02  0.60569039979E+02  0.13194544157E+04  0.13337696390E+04  0.17644849043E+03 0.  0.
         24    2    3    3    0    0 -0.84404734972E+02  0.85505544835E+02  0.11419779511E+04  0.11523112556E+04  0.96292426656E+02 0.  0.
         -6    2    1    2    0  502  0.56380992530E+02 -0.60569039979E+02  0.40119268735E+03  0.44353236053E+03  0.17005280807E+03 0.  0.
        -24    2    5    5    0    0 -0.15735694576E+02 -0.41846345920E+02  0.32508990930E+03  0.33692523760E+03  0.76396582738E+02 0.  0.
          5    1    3    3  501    0  0.28023742442E+02 -0.24936504856E+02  0.17747646459E+03  0.18145838337E+03  0.47000000000E+01 0. -1.
        -15    1    4    4    0    0 -0.17630241443E+02  0.84942399784E+02  0.60251891140E+03  0.60873494480E+03  0.17770000000E+01 0.  1.
         16    1    4    4    0    0 -0.66774493529E+02  0.56314505044E+00  0.53945903974E+03  0.54357631081E+03  0.00000000000E+00 0. -1.
         -5    1    5    5    0  502  0.72116687106E+02 -0.18722694059E+02  0.76102778047E+02  0.10660712293E+03  0.47000000000E+01 0.  1.
         15    1    6    6    0    0  0.19681199951E+02 -0.52109068197E+01  0.23860228386E+02  0.31416101111E+02  0.17770000000E+01 0. -1.
        -16    1    6    6    0    0 -0.35416894527E+02 -0.36635439101E+02  0.30122968091E+03  0.30550913649E+03  0.00000000000E+00 0.  1.
<mgrwt>
<rscale>  2 0.19342935E+03</rscale>
<asrwt>0</asrwt>
<pdfrwt beam="1">  1       21 0.26907292E+00 0.19488842E+03</pdfrwt>
<pdfrwt beam="2">  1       21 0.43580703E-02 0.19488842E+03</pdfrwt>
<totfact> 0.17425367E+04</totfact>
</mgrwt>
</event>
<event>
12    2  0.4097182E-002  0.2235092E+03  0.7546771E-02  0.1133955E+00
         21   -1    0    0  503  502  0.00000000000E+00  0.00000000000E+00  0.28165206504E+03  0.28165206504E+03  0.00000000000E+00 0.  1.
         21   -1    0    0  501  503 -0.00000000000E+00 -0.00000000000E+00 -0.19293865354E+03  0.19293865354E+03  0.00000000000E+00 0. -1.
          6    2    1    2  501    0  0.55072284685E+02  0.12928793834E+03 -0.42410933683E+02  0.22749738713E+03  0.17380462110E+03 0.  0.
         24    2    3    3    0    0  0.92363899835E+02  0.13819346236E+03 -0.28259706945E+02  0.18635956832E+03  0.79389890004E+02 0.  0.
         -6    2    1    2    0  502 -0.55072284685E+02 -0.12928793834E+03  0.13112434518E+03  0.24709333145E+03  0.15528423296E+03 0.  0.
        -24    2    5    5    0    0 -0.16324407322E+02 -0.59194235709E+02  0.13300789015E+03  0.16684270596E+03  0.79843258174E+02 0.  0.
          5    1    3    3  501    0 -0.37291615150E+02 -0.89055240181E+01 -0.14151226738E+02  0.41137818813E+02  0.47000000000E+01 0. -1.
        -15    1    4    4    0    0  0.36470830020E+02  0.72325031536E+01 -0.23237659220E+02  0.43881397873E+02  0.17770000000E+01 0.  1.
         16    1    4    4    0    0  0.55893069815E+02  0.13096095921E+03 -0.50220477243E+01  0.14247817044E+03  0.00000000000E+00 0. -1.
         -5    1    5    5    0  502 -0.38747877363E+02 -0.70093702633E+02 -0.18835449714E+01  0.80250625484E+02  0.47000000000E+01 0.  1.
         15    1    6    6    0    0  0.82562134052E+01 -0.51502415827E+02  0.13099414653E+03  0.14100811342E+03  0.17770000000E+01 0. -1.
        -16    1    6    6    0    0 -0.24580620727E+02 -0.76918198824E+01  0.20137436149E+01  0.25834592541E+02  0.00000000000E+00 0.  1.
<mgrwt>
<rscale>  2 0.21990345E+03</rscale>
<asrwt>0</asrwt>
<pdfrwt beam="1">  1       21 0.43331087E-01 0.22350923E+03</pdfrwt>
<pdfrwt beam="2">  1       21 0.29682870E-01 0.22350923E+03</pdfrwt>
<totfact> 0.54917732E+04</totfact>
</mgrwt>
</event>
<event>
12    2  0.4097182E-002  0.2400484E+03  0.7546771E-02  0.1119996E+00
         21   -1    0    0  501  502  0.00000000000E+00  0.00000000000E+00  0.43644534434E+03  0.43644534434E+03  0.00000000000E+00 0. -1.
         21   -1    0    0  502  503 -0.00000000000E+00 -0.00000000000E+00 -0.46019063410E+03  0.46019063410E+03  0.00000000000E+00 0. -1.
         -6    2    1    2    0  503 -0.57572629743E+02 -0.15551137063E+03 -0.39091233041E+03  0.45873270523E+03  0.17356511944E+03 0.  0.
        -24    2    3    3    0    0  0.22613428472E+02 -0.89645217737E+02 -0.28501273207E+03  0.31039198608E+03  0.81014167698E+02 0.  0.
          6    2    1    2  501    0  0.57572629743E+02  0.15551137063E+03  0.36716704065E+03  0.43790327321E+03  0.17160782867E+03 0.  0.
         24    2    5    5    0    0  0.80904623038E+02  0.50956197651E+02  0.24884466735E+03  0.27822096320E+03  0.79631299041E+02 0.  0.
          5    1    5    5  501    0 -0.23331993294E+02  0.10455517298E+03  0.11832237329E+03  0.15968231001E+03  0.47000000000E+01 0. -1.
        -15    1    6    6    0    0  0.60828952188E+02  0.32280962157E+02  0.23956784544E+03  0.24927521385E+03  0.17770000000E+01 0.  1.
         16    1    6    6    0    0  0.20075670850E+02  0.18675235494E+02  0.92768219150E+01  0.28945749354E+02  0.00000000000E+00 0. -1.
         -5    1    3    3    0  503 -0.80186058216E+02 -0.65866152897E+02 -0.10589959834E+03  0.14834071915E+03  0.47000000000E+01 0.  1.
         15    1    4    4    0    0 -0.24244095020E+02 -0.55355062552E+02 -0.10401651715E+03  0.12031023507E+03  0.17770000000E+01 0. -1.
        -16    1    4    4    0    0  0.46857523492E+02 -0.34290155185E+02 -0.18099621492E+03  0.19008175100E+03  0.00000000000E+00 0.  1.
<mgrwt>
<rscale>  2 0.23969480E+03</rscale>
<asrwt>0</asrwt>
<pdfrwt beam="1">  1       21 0.67145438E-01 0.24004842E+03</pdfrwt>
<pdfrwt beam="2">  1       21 0.70798559E-01 0.24004842E+03</pdfrwt>
<totfact> 0.35392544E+03</totfact>
</mgrwt>
</event>
<event>
12    2  0.4097182E-002  0.2228959E+03  0.7546771E-02  0.1131966E+00
         21   -1    0    0  503  502  0.00000000000E+00  0.00000000000E+00  0.33675707248E+03  0.33675707248E+03  0.00000000000E+00 0.  1.
         21   -1    0    0  501  503 -0.00000000000E+00 -0.00000000000E+00 -0.43563421859E+03  0.43563421859E+03  0.00000000000E+00 0. -1.
          6    2    1    2  501    0 -0.73833108535E+02 -0.11765405633E+03 -0.36398605674E+03  0.42681193578E+03  0.17432376241E+03 0.  0.
         24    2    3    3    0    0  0.16193240587E+02 -0.37293616732E+02 -0.90593258267E+02  0.12793360595E+03  0.80664950245E+02 0.  0.
         -6    2    1    2    0  502  0.73833108535E+02  0.11765405633E+03  0.26510891063E+03  0.34557935529E+03  0.17276733320E+03 0.  0.
        -24    2    5    5    0    0  0.17825108506E+02  0.51549558010E+01  0.51052882513E+02  0.97315348917E+02  0.80743868246E+02 0.  0.
          5    1    3    3  501    0 -0.90026349121E+02 -0.80360439595E+02 -0.27339279847E+03  0.29887832984E+03  0.47000000000E+01 0. -1.
        -15    1    4    4    0    0  0.40765534760E+02 -0.45841256501E+02 -0.77353614163E+02  0.98742032463E+02  0.17770000000E+01 0.  1.
         16    1    4    4    0    0 -0.24572294173E+02  0.85476397695E+01 -0.13239644104E+02  0.29191573486E+02  0.00000000000E+00 0. -1.
         -5    1    5    5    0  502  0.56008000029E+02  0.11249910053E+03  0.21405602811E+03  0.24826400637E+03  0.47000000000E+01 0.  1.
         15    1    6    6    0    0 -0.26156008937E+02  0.21440460547E+02  0.32316521011E+02  0.46811808460E+02  0.17770000000E+01 0. -1.
        -16    1    6    6    0    0  0.43981117443E+02 -0.16285504746E+02  0.18736361502E+02  0.50503540457E+02  0.00000000000E+00 0.  1.
<mgrwt>
<rscale>  2 0.22259148E+03</rscale>
<asrwt>0</asrwt>
<pdfrwt beam="1">  1       21 0.51808781E-01 0.22289589E+03</pdfrwt>
<pdfrwt beam="2">  1       21 0.67020649E-01 0.22289589E+03</pdfrwt>
<totfact> 0.70597049E+03</totfact>
</mgrwt>
</event>
<event>
12    2  0.4097182E-002  0.1995019E+03  0.7546771E-02  0.1151811E+00
         21   -1    0    0  503  502  0.00000000000E+00  0.00000000000E+00  0.75044872349E+02  0.75044872349E+02  0.00000000000E+00 0. -1.
         21   -1    0    0  501  503 -0.00000000000E+00 -0.00000000000E+00 -0.51121410238E+03  0.51121410238E+03  0.00000000000E+00 0. -1.
          6    2    1    2  501    0  0.29583542944E+02 -0.77392942715E+02 -0.23513130625E+03  0.30836299455E+03  0.18148319932E+03 0.  0.
         24    2    3    3    0    0 -0.37828975521E+02  0.55745769849E+01 -0.94928536703E+02  0.13199133141E+03  0.83355726791E+02 0.  0.
         -6    2    1    2    0  502 -0.29583542944E+02  0.77392942715E+02 -0.20103792378E+03  0.27789598018E+03  0.17304645447E+03 0.  0.
        -24    2    5    5    0    0 -0.14571025013E+02  0.10467155465E+03 -0.20663148409E+03  0.24591354311E+03  0.81292381833E+02 0.  0.
          5    1    3    3  501    0  0.67412518464E+02 -0.82967519700E+02 -0.14020276955E+03  0.17637166314E+03  0.47000000000E+01 0. -1.
        -15    1    4    4    0    0 -0.54803162215E+02  0.13864587250E+02 -0.97709012660E+02  0.11289739701E+03  0.17770000000E+01 0.  1.
         16    1    4    4    0    0  0.16974186694E+02 -0.82900102648E+01  0.27804759577E+01  0.19093934394E+02  0.00000000000E+00 0. -1.
         -5    1    5    5    0  502 -0.15012517931E+02 -0.27278611936E+02  0.55935603105E+01  0.31982437067E+02  0.47000000000E+01 0.  1.
         15    1    6    6    0    0 -0.47302910405E+02  0.68509309236E+02 -0.11335842824E+03  0.14065696487E+03  0.17770000000E+01 0. -1.
        -16    1    6    6    0    0  0.32731885392E+02  0.36162245415E+02 -0.93273055845E+02  0.10525657823E+03  0.00000000000E+00 0.  1.
<mgrwt>
<rscale>  2 0.19756313E+03</rscale>
<asrwt>0</asrwt>
<pdfrwt beam="1">  1       21 0.11545365E-01 0.19950189E+03</pdfrwt>
<pdfrwt beam="2">  1       21 0.78648323E-01 0.19950189E+03</pdfrwt>
<totfact> 0.89599598E+04</totfact>
</mgrwt>
</event>
<event>
12    2  0.4097182E-002  0.2065201E+03  0.7546771E-02  0.1147082E+00
         21   -1    0    0  501  502  0.00000000000E+00  0.00000000000E+00  0.86678805680E+03  0.86678805680E+03  0.00000000000E+00 0.  1.
         21   -1    0    0  502  503 -0.00000000000E+00 -0.00000000000E+00 -0.49043844280E+02  0.49043844280E+02  0.00000000000E+00 0.  1.
         -6    2    1    2    0  503 -0.86504062091E+02  0.80641469165E+02  0.28512883628E+03  0.34457916188E+03  0.15313505873E+03 0.  0.
        -24    2    3    3    0    0 -0.16138765849E+02  0.10122144757E+02  0.18760448758E+03  0.20508959732E+03  0.80643546495E+02 0.  0.
          6    2    1    2  501    0  0.86504062091E+02 -0.80641469165E+02  0.53261537623E+03  0.57125273920E+03  0.16930609480E+03 0.  0.
         24    2    5    5    0    0  0.12106557700E+03 -0.62894891441E+02  0.32530713901E+03  0.36028299124E+03  0.73256110874E+02 0.  0.
          5    1    5    5  501    0 -0.34561514913E+02 -0.17746577725E+02  0.20730823722E+03  0.21096974796E+03  0.47000000000E+01 0. -1.
        -15    1    6    6    0    0  0.82189265714E+02 -0.15468894668E+02  0.24725463902E+03  0.26102179285E+03  0.17770000000E+01 0.  1.
         16    1    6    6    0    0  0.38876311291E+02 -0.47425996773E+02  0.78052499994E+02  0.99261198384E+02  0.00000000000E+00 0. -1.
         -5    1    3    3    0  503 -0.70365296242E+02  0.70519324408E+02  0.97524348707E+02  0.13948956456E+03  0.47000000000E+01 0.  1.
         15    1    4    4    0    0 -0.84106174941E+01  0.32261406094E+02  0.17560063854E+03  0.17874640918E+03  0.17770000000E+01 0. -1.
        -16    1    4    4    0    0 -0.77281483553E+01 -0.22139261337E+02  0.12003849035E+02  0.26343188137E+02  0.00000000000E+00 0.  1.
<mgrwt>
<rscale>  2 0.20318116E+03</rscale>
<asrwt>0</asrwt>
<pdfrwt beam="1">  1       21 0.13335200E+00 0.20652010E+03</pdfrwt>
<pdfrwt beam="2">  1       21 0.75452075E-02 0.20652010E+03</pdfrwt>
<totfact> 0.53443452E+04</totfact>
</mgrwt>
</event>
<event>
12    2  0.4097182E-002  0.1785526E+03  0.7546771E-02  0.1170796E+00
         21   -1    0    0  501  502  0.00000000000E+00  0.00000000000E+00  0.74465589053E+03  0.74465589053E+03  0.00000000000E+00 0.  1.
         21   -1    0    0  502  503 -0.00000000000E+00 -0.00000000000E+00 -0.18120927271E+03  0.18120927271E+03  0.00000000000E+00 0.  1.
         -6    2    1    2    0  503 -0.33304549499E+02  0.14762210098E+02 -0.12386589142E+03  0.21731037628E+03  0.17479680980E+03 0.  0.
        -24    2    3    3    0    0  0.32735533784E+02 -0.36879846138E+02 -0.68316929881E+02  0.11663281324E+03  0.80649066900E+02 0.  0.
          6    2    1    2  501    0  0.33304549499E+02 -0.14762210098E+02  0.68731250924E+03  0.70855478696E+03  0.16829820233E+03 0.  0.
         24    2    5    5    0    0  0.29376414291E+02 -0.43972811441E+02  0.66314357380E+03  0.67015013988E+03  0.80902587423E+02 0.  0.
          5    1    5    5  501    0  0.39281352077E+01  0.29210601343E+02  0.24168935441E+02  0.38404647081E+02  0.47000000000E+01 0. -1.
        -15    1    6    6    0    0 -0.13229974290E+01 -0.61331797475E+02  0.42657506445E+03  0.43096726447E+03  0.17770000000E+01 0.  1.
         16    1    6    6    0    0  0.30699411720E+02  0.17358986034E+02  0.23656850935E+03  0.23918287541E+03  0.00000000000E+00 0. -1.
         -5    1    3    3    0  503 -0.66040083283E+02  0.51642056236E+02 -0.55548961540E+02  0.10067756304E+03  0.47000000000E+01 0.  1.
         15    1    4    4    0    0 -0.13909191907E+01 -0.19394095556E+02  0.15193277616E+02  0.24739826441E+02  0.17770000000E+01 0. -1.
        -16    1    4    4    0    0  0.34126452975E+02 -0.17485750582E+02 -0.83510207497E+02  0.91892986795E+02  0.00000000000E+00 0.  1.
<mgrwt>
<rscale>  2 0.17694176E+03</rscale>
<asrwt>0</asrwt>
<pdfrwt beam="1">  1       21 0.11456244E+00 0.17855263E+03</pdfrwt>
<pdfrwt beam="2">  1       21 0.27878350E-01 0.17855263E+03</pdfrwt>
<totfact> 0.73495045E+03</totfact>
</mgrwt>
</event>
<event>
12    2  0.4097182E-002  0.1761960E+03  0.7546771E-02  0.1171854E+00
         21   -1    0    0  501  502  0.00000000000E+00  0.00000000000E+00  0.11715314450E+04  0.11715314450E+04  0.00000000000E+00 0.  1.
         21   -1    0    0  502  503 -0.00000000000E+00 -0.00000000000E+00 -0.37307892928E+02  0.37307892928E+02  0.00000000000E+00 0.  1.
         -6    2    1    2    0  503 -0.25395121363E+02  0.11942206175E+02  0.23747876841E+03  0.29494862199E+03  0.17265861024E+03 0.  0.
        -24    2    3    3    0    0 -0.48200598201E+02 -0.47309468972E+02  0.18686179249E+03  0.21361585471E+03  0.78440553107E+02 0.  0.
          6    2    1    2  501    0  0.25395121363E+02 -0.11942206175E+02  0.89674478361E+03  0.91389071589E+03  0.17394684583E+03 0.  0.
         24    2    5    5    0    0 -0.42580975924E+01 -0.28884421305E+02  0.85693685822E+03  0.86123036105E+03  0.80774467664E+02 0.  0.
          5    1    5    5  501    0  0.29653218955E+02  0.16942215130E+02  0.39807925398E+02  0.52660354845E+02  0.47000000000E+01 0. -1.
        -15    1    6    6    0    0 -0.28703131822E+02 -0.47188860441E+02  0.53288617822E+03  0.53574387070E+03  0.17770000000E+01 0.  1.
         16    1    6    6    0    0  0.24445034230E+02  0.18304439136E+02  0.32405067999E+03  0.32548649034E+03  0.00000000000E+00 0. -1.
         -5    1    3    3    0  503  0.22805476838E+02  0.59251675147E+02  0.50616975924E+02  0.81332767279E+02  0.47000000000E+01 0.  1.
         15    1    4    4    0    0 -0.24145609616E+02  0.10820942702E+02  0.11539970669E+03  0.11840757281E+03  0.17770000000E+01 0. -1.
        -16    1    4    4    0    0 -0.24054988585E+02 -0.58130411674E+02  0.71462085799E+02  0.95208281908E+02  0.00000000000E+00 0.  1.
<mgrwt>
<rscale>  2 0.17587723E+03</rscale>
<asrwt>0</asrwt>
<pdfrwt beam="1">  1       21 0.18023558E+00 0.17619601E+03</pdfrwt>
<pdfrwt beam="2">  1       21 0.57396767E-02 0.17619601E+03</pdfrwt>
<totfact> 0.38979280E+04</totfact>
</mgrwt>
</event>
<event>
12    2  0.4097182E-002  0.1888718E+03  0.7546771E-02  0.1159562E+00
         21   -1    0    0  501  502  0.00000000000E+00  0.00000000000E+00  0.11119122321E+04  0.11119122321E+04  0.00000000000E+00 0.  1.
         21   -1    0    0  502  503 -0.00000000000E+00 -0.00000000000E+00 -0.70640845476E+02  0.70640845476E+02  0.00000000000E+00 0.  1.
         -6    2    1    2    0  503  0.78734319819E+01  0.69787278668E+02  0.83245160710E+02  0.20608658681E+03  0.17495619248E+03 0.  0.
        -24    2    3    3    0    0 -0.32084751252E+02  0.11637449778E+02  0.10278853142E+03  0.13272384187E+03  0.76715542814E+02 0.  0.
          6    2    1    2  501    0 -0.78734319819E+01 -0.69787278668E+02  0.95802622590E+03  0.97646649075E+03  0.17532912721E+03 0.  0.
         24    2    5    5    0    0 -0.30592500330E+02 -0.79770679958E+02  0.93209526816E+03  0.94026802479E+03  0.89460086490E+02 0.  0.
          5    1    5    5  501    0  0.22719068349E+02  0.99834012904E+01  0.25930957748E+02  0.36198465957E+02  0.47000000000E+01 0. -1.
        -15    1    6    6    0    0 -0.45167614573E+02 -0.91615109575E+02  0.70018142897E+03  0.70759496388E+03  0.17770000000E+01 0.  1.
         16    1    6    6    0    0  0.14575114243E+02  0.11844429617E+02  0.23191383918E+03  0.23267306091E+03  0.00000000000E+00 0. -1.
         -5    1    3    3    0  503  0.39958183234E+02  0.58149828890E+02 -0.19543370708E+02  0.73362744946E+02  0.47000000000E+01 0.  1.
         15    1    4    4    0    0 -0.79186590807E+01  0.41491341262E+02  0.35326446995E+02  0.55094030055E+02  0.17770000000E+01 0. -1.
        -16    1    4    4    0    0 -0.24166092172E+02 -0.29853891485E+02  0.67462084423E+02  0.77629811815E+02  0.00000000000E+00 0.  1.
<mgrwt>
<rscale>  2 0.18878521E+03</rscale>
<asrwt>0</asrwt>
<pdfrwt beam="1">  1       21 0.17106341E+00 0.18887180E+03</pdfrwt>
<pdfrwt beam="2">  1       21 0.10867823E-01 0.18887180E+03</pdfrwt>
<totfact> 0.14728224E+04</totfact>
</mgrwt>
</event>
<event>
12    2  0.4097182E-002  0.1995401E+03  0.7546771E-02  0.1151132E+00
         21   -1    0    0  503  502  0.00000000000E+00  0.00000000000E+00  0.11407439981E+03  0.11407439981E+03  0.00000000000E+00 0. -1.
         21   -1    0    0  501  503 -0.00000000000E+00 -0.00000000000E+00 -0.73984041187E+03  0.73984041187E+03  0.00000000000E+00 0. -1.
          6    2    1    2  501    0 -0.73295064629E+02  0.48656795362E+02 -0.62811399235E+03  0.65904737131E+03  0.17909941374E+03 0.  0.
         24    2    3    3    0    0 -0.33621370553E+02 -0.18553694507E+02 -0.15061781357E+03  0.17519208023E+03  0.80820189758E+02 0.  0.
         -6    2    1    2    0  502  0.73295064629E+02 -0.48656795362E+02  0.23479802957E+01  0.19486744037E+03  0.17386246308E+03 0.  0.
        -24    2    5    5    0    0 -0.13354628451E+02  0.22029533347E+02  0.22458711327E+02  0.81151751564E+02  0.73604120991E+02 0.  0.
          5    1    3    3  501    0 -0.39673694076E+02  0.67210489869E+02 -0.47749617878E+03  0.48385529108E+03  0.47000000000E+01 0. -1.
        -15    1    4    4    0    0  0.20790886027E+02  0.14031094164E+02 -0.32151787692E+02  0.40817002904E+02  0.17770000000E+01 0.  1.
         16    1    4    4    0    0 -0.54412256580E+02 -0.32584788671E+02 -0.11846602588E+03  0.13437507732E+03  0.00000000000E+00 0. -1.
         -5    1    5    5    0  502  0.86649693081E+02 -0.70686328709E+02 -0.20110731031E+02  0.11371568880E+03  0.47000000000E+01 0.  1.
         15    1    6    6    0    0  0.22820504039E+02 -0.75136550685E+00  0.29998584122E+02  0.37741392834E+02  0.17770000000E+01 0. -1.
        -16    1    6    6    0    0 -0.36175132490E+02  0.22780898854E+02 -0.75398727953E+01  0.43410358730E+02  0.00000000000E+00 0.  1.
<mgrwt>
<rscale>  2 0.19835793E+03</rscale>
<asrwt>0</asrwt>
<pdfrwt beam="1">  1       21 0.17549908E-01 0.19954010E+03</pdfrwt>
<pdfrwt beam="2">  1       21 0.11382160E+00 0.19954010E+03</pdfrwt>
<totfact> 0.17607002E+04</totfact>
</mgrwt>
</event>
<event>
12    2  0.4097182E-002  0.1864538E+03  0.7546771E-02  0.1164096E+00
         21   -1    0    0  503  502  0.00000000000E+00  0.00000000000E+00  0.15932845577E+04  0.15932845577E+04  0.00000000000E+00 0.  1.
         21   -1    0    0  501  503 -0.00000000000E+00 -0.00000000000E+00 -0.87951558329E+02  0.87951558329E+02  0.00000000000E+00 0.  1.
          6    2    1    2  501    0  0.12922939046E+01 -0.28682157168E+02  0.12528294692E+02  0.17683228434E+03  0.17403552066E+03 0.  0.
         24    2    3    3    0    0  0.53050778735E+01 -0.52851746685E+02 -0.51366096307E+02  0.10824034098E+03  0.79095161584E+02 0.  0.
         -6    2    1    2    0  502 -0.12922939046E+01  0.28682157168E+02  0.14928047047E+04  0.15044038317E+04  0.18422992791E+03 0.  0.
        -24    2    5    5    0    0 -0.41508560207E+02 -0.15089070977E+02  0.39688657586E+03  0.40686481026E+03  0.77906219896E+02 0.  0.
          5    1    3    3  501    0 -0.40127839688E+01  0.24169589518E+02  0.63894390999E+02  0.68591943359E+02  0.47000000000E+01 0. -1.
        -15    1    4    4    0    0  0.42016516103E+02 -0.30725639596E+02 -0.23683602456E+02  0.57214712342E+02  0.17770000000E+01 0.  1.
         16    1    4    4    0    0 -0.36711438230E+02 -0.22126107090E+02 -0.27682493851E+02  0.51025628635E+02  0.00000000000E+00 0. -1.
         -5    1    5    5    0  502  0.40216266302E+02  0.43771228145E+02  0.10959181288E+04  0.10975390214E+04  0.47000000000E+01 0.  1.
         15    1    6    6    0    0 -0.10054200070E+02  0.14771244358E+02  0.17726127271E+02  0.25231922558E+02  0.17770000000E+01 0. -1.
        -16    1    6    6    0    0 -0.31454360136E+02 -0.29860315335E+02  0.37916044859E+03  0.38163288770E+03  0.00000000000E+00 0.  1.
<mgrwt>
<rscale>  2 0.18388468E+03</rscale>
<asrwt>0</asrwt>
<pdfrwt beam="1">  1       21 0.24512068E+00 0.18645375E+03</pdfrwt>
<pdfrwt beam="2">  1       21 0.13531010E-01 0.18645375E+03</pdfrwt>
<totfact> 0.33826282E+03</totfact>
</mgrwt>
</event>
<event>
12    2  0.4097182E-002  0.2210917E+03  0.7546771E-02  0.1135983E+00
         21   -1    0    0  503  502  0.00000000000E+00  0.00000000000E+00  0.39197222201E+03  0.39197222201E+03  0.00000000000E+00 0. -1.
         21   -1    0    0  501  503 -0.00000000000E+00 -0.00000000000E+00 -0.42569291472E+03  0.42569291472E+03  0.00000000000E+00 0. -1.
          6    2    1    2  501    0 -0.10998483698E+03 -0.11893403536E+02 -0.36516849458E+03  0.41924425870E+03  0.17372277227E+03 0.  0.
         24    2    3    3    0    0 -0.36005312641E+02 -0.12344973549E+01 -0.63592661192E+02  0.10850859035E+03  0.80200879666E+02 0.  0.
         -6    2    1    2    0  502  0.10998483698E+03  0.11893403536E+02  0.33144780187E+03  0.39842087802E+03  0.19142474570E+03 0.  0.
        -24    2    5    5    0    0  0.30271143320E+02 -0.75686848330E+01  0.29630024824E+03  0.30903135756E+03  0.82054346293E+02 0.  0.
          5    1    3    3  501    0 -0.73979524344E+02 -0.10658906181E+02 -0.30157583339E+03  0.31073566835E+03  0.47000000000E+01 0. -1.
        -15    1    4    4    0    0  0.16521747654E+02  0.12556528110E+02 -0.47502350117E+02  0.51867769755E+02  0.17770000000E+01 0.  1.
         16    1    4    4    0    0 -0.52527060295E+02 -0.13791025465E+02 -0.16090311074E+02  0.56640820590E+02  0.00000000000E+00 0. -1.
         -5    1    5    5    0  502  0.79713693665E+02  0.19462088369E+02  0.35147553633E+02  0.89389520459E+02  0.47000000000E+01 0.  1.
         15    1    6    6    0    0 -0.22639857659E+02  0.18025170239E+02  0.95011127663E+02  0.99336509027E+02  0.17770000000E+01 0. -1.
        -16    1    6    6    0    0  0.52911000978E+02 -0.25593855072E+02  0.20128912057E+03  0.20969484854E+03  0.00000000000E+00 0.  1.
<mgrwt>
<rscale>  2 0.21720648E+03</rscale>
<asrwt>0</asrwt>
<pdfrwt beam="1">  1       21 0.60303419E-01 0.22109172E+03</pdfrwt>
<pdfrwt beam="2">  1       21 0.65491217E-01 0.22109172E+03</pdfrwt>
<totfact> 0.53811866E+03</totfact>
</mgrwt>
</event>
<event>
12    2  0.4097182E-002  0.2119281E+03  0.7546771E-02  0.1141223E+00
         21   -1    0    0  503  502  0.00000000000E+00  0.00000000000E+00  0.24546450716E+03  0.24546450716E+03  0.00000000000E+00 0.  1.
         21   -1    0    0  501  503 -0.00000000000E+00 -0.00000000000E+00 -0.22237544409E+03  0.22237544409E+03  0.00000000000E+00 0.  1.
          6    2    1    2  501    0 -0.84756223691E+02 -0.73260556451E+02 -0.93188190867E+02  0.22610884500E+03  0.17288853138E+03 0.  0.
         24    2    3    3    0    0 -0.21881871421E+02 -0.65393180709E+02  0.85526241750E+01  0.10615734138E+03  0.80256771481E+02 0.  0.
         -6    2    1    2    0  502  0.84756223691E+02  0.73260556451E+02  0.11627725393E+03  0.24173110625E+03  0.17989664078E+03 0.  0.
        -24    2    5    5    0    0 -0.22396914989E+02  0.62623364067E+02  0.67978195806E+02  0.12362169085E+03  0.78980882599E+02 0.  0.
          5    1    3    3  501    0 -0.62874352270E+02 -0.78673757425E+01 -0.10174081504E+03  0.11995150362E+03  0.47000000000E+01 0. -1.
        -15    1    4    4    0    0  0.11867350439E+02  0.40675936677E+01 -0.20122908409E+02  0.23779581505E+02  0.17770000000E+01 0.  1.
         16    1    4    4    0    0 -0.33749221860E+02 -0.69460774376E+02  0.28675532584E+02  0.82377759875E+02  0.00000000000E+00 0. -1.
         -5    1    5    5    0  502  0.10715313868E+03  0.10637192384E+02  0.48299058123E+02  0.11810941540E+03  0.47000000000E+01 0.  1.
         15    1    6    6    0    0  0.21643972534E+02  0.24298074181E+02 -0.18037524120E+01  0.32638462092E+02  0.17770000000E+01 0. -1.
        -16    1    6    6    0    0 -0.44040887522E+02  0.38325289886E+02  0.69781948218E+02  0.90983228761E+02  0.00000000000E+00 0.  1.
<mgrwt>
<rscale>  2 0.21043349E+03</rscale>
<asrwt>0</asrwt>
<pdfrwt beam="1">  1       21 0.37763770E-01 0.21192812E+03</pdfrwt>
<pdfrwt beam="2">  1       21 0.34211607E-01 0.21192812E+03</pdfrwt>
<totfact> 0.55174998E+04</totfact>
</mgrwt>
</event>
<event>
12    2  0.4097182E-002  0.3078301E+03  0.7546771E-02  0.1081831E+00
         21   -1    0    0  503  502  0.00000000000E+00  0.00000000000E+00  0.37740044711E+03  0.37740044711E+03  0.00000000000E+00 0.  1.
         21   -1    0    0  501  503 -0.00000000000E+00 -0.00000000000E+00 -0.49530142657E+03  0.49530142657E+03  0.00000000000E+00 0. -1.
          6    2    1    2  501    0  0.11456589745E+03 -0.22322130305E+03 -0.36736347090E+03  0.47928626204E+03  0.17834322593E+03 0.  0.
         24    2    3    3    0    0 -0.13993162181E+02 -0.64630818751E+02 -0.13353992979E+03  0.16884478301E+03  0.79389524383E+02 0.  0.
         -6    2    1    2    0  502 -0.11456589745E+03  0.22322130305E+03  0.24946249143E+03  0.39341561164E+03  0.17202096922E+03 0.  0.
        -24    2    5    5    0    0 -0.66976461706E+02  0.46059934114E+02  0.36022193023E+02  0.11193780429E+03  0.68008158973E+02 0.  0.
          5    1    3    3  501    0  0.12855905963E+03 -0.15859048430E+03 -0.23382354111E+03  0.31044147903E+03  0.47000000000E+01 0. -1.
        -15    1    4    4    0    0 -0.44734545178E+01  0.11431722845E+02  0.25383163919E+01  0.12660839689E+02  0.17770000000E+01 0.  1.
         16    1    4    4    0    0 -0.95197076628E+01 -0.76062541596E+02 -0.13607824618E+03  0.15618394332E+03  0.00000000000E+00 0. -1.
         -5    1    5    5    0  502 -0.47589435748E+02  0.17716136894E+03  0.21344029841E+03  0.28147780734E+03  0.47000000000E+01 0.  1.
         15    1    6    6    0    0 -0.45683696726E+02  0.50149419691E+02  0.51590979816E+02  0.85245242503E+02  0.17770000000E+01 0. -1.
        -16    1    6    6    0    0 -0.21292764980E+02 -0.40894855777E+01 -0.15568786794E+02  0.26692561792E+02  0.00000000000E+00 0.  1.
<mgrwt>
<rscale>  2 0.30692134E+03</rscale>
<asrwt>0</asrwt>
<pdfrwt beam="1">  1       21 0.58061607E-01 0.30783015E+03</pdfrwt>
<pdfrwt beam="2">  1       21 0.76200220E-01 0.30783015E+03</pdfrwt>
<totfact> 0.39590907E+03</totfact>
</mgrwt>
</event>
<event>
12    2  0.4097182E-002  0.2471890E+03  0.7546771E-02  0.1115624E+00
         21   -1    0    0  503  502  0.00000000000E+00  0.00000000000E+00  0.12602872137E+03  0.12602872137E+03  0.00000000000E+00 0. -1.
         21   -1    0    0  501  503 -0.00000000000E+00 -0.00000000000E+00 -0.48520050923E+03  0.48520050923E+03  0.00000000000E+00 0. -1.
          6    2    1    2  501    0  0.88112817571E+01 -0.17138796344E+03 -0.21691230976E+03  0.32886673790E+03  0.17790702198E+03 0.  0.
         24    2    3    3    0    0 -0.21333066201E+02 -0.14453676730E+03 -0.23141024461E+03  0.28571643590E+03  0.82080470370E+02 0.  0.
         -6    2    1    2    0  502 -0.88112817571E+01  0.17138796344E+03 -0.14225947811E+03  0.28236249270E+03  0.17331862413E+03 0.  0.
        -24    2    5    5    0    0  0.46154402854E+02  0.56485177205E+02 -0.30836236930E+02  0.11306658181E+03  0.80699282937E+02 0.  0.
          5    1    3    3  501    0  0.30144347958E+02 -0.26851196140E+02  0.14497934848E+02  0.43150302001E+02  0.47000000000E+01 0. -1.
        -15    1    4    4    0    0  0.57947585606E+01  0.54525073530E+01  0.53617200348E+00  0.81703287956E+01  0.17770000000E+01 0.  1.
         16    1    4    4    0    0 -0.27127824761E+02 -0.14998927466E+03 -0.23194641661E+03  0.27754610710E+03  0.00000000000E+00 0. -1.
         -5    1    5    5    0  502 -0.54965684611E+02  0.11490278624E+03 -0.11142324118E+03  0.16929591089E+03  0.47000000000E+01 0.  1.
         15    1    6    6    0    0  0.59093789927E+02  0.62473980619E+02 -0.41267190526E+02  0.95400277805E+02  0.17770000000E+01 0. -1.
        -16    1    6    6    0    0 -0.12939387073E+02 -0.59888034139E+01  0.10430953596E+02  0.17666304001E+02  0.00000000000E+00 0.  1.
<mgrwt>
<rscale>  2 0.24636445E+03</rscale>
<asrwt>0</asrwt>
<pdfrwt beam="1">  1       21 0.19389034E-01 0.24718896E+03</pdfrwt>
<pdfrwt beam="2">  1       21 0.74646233E-01 0.24718896E+03</pdfrwt>
<totfact> 0.38275633E+04</totfact>
</mgrwt>
</event>
<event>
12    2  0.4097182E-002  0.3029645E+03  0.7546771E-02  0.1083781E+00
         21   -1    0    0  501  502  0.00000000000E+00  0.00000000000E+00  0.48757483610E+03  0.48757483610E+03  0.00000000000E+00 0.  1.
         21   -1    0    0  502  503 -0.00000000000E+00 -0.00000000000E+00 -0.19176644861E+03  0.19176644861E+03  0.00000000000E+00 0.  1.
         -6    2    1    2    0  503  0.17925998076E+03 -0.17201063987E+03  0.10151476591E+03  0.31951958178E+03  0.17339467845E+03 0.  0.
        -24    2    3    3    0    0  0.55983180815E+02 -0.88966898490E+02  0.10799815781E+03  0.17066543586E+03  0.80086599038E+02 0.  0.
          6    2    1    2  501    0 -0.17925998076E+03  0.17201063987E+03  0.19429362158E+03  0.35982170293E+03  0.17320463499E+03 0.  0.
         24    2    5    5    0    0 -0.27290840973E+02  0.50807917897E+02  0.30942152925E+02  0.10587188195E+03  0.83217810825E+02 0.  0.
          5    1    5    5  501    0 -0.15196913979E+03  0.12120272197E+03  0.16335146865E+03  0.25394982097E+03  0.47000000000E+01 0. -1.
        -15    1    6    6    0    0 -0.70757491124E+00 -0.13336865566E+02  0.33791403266E+02  0.36378418177E+02  0.17770000000E+01 0.  1.
         16    1    6    6    0    0 -0.26583266062E+02  0.64144783463E+02 -0.28492503406E+01  0.69493463776E+02  0.00000000000E+00 0. -1.
         -5    1    3    3    0  503  0.12327679995E+03 -0.83043741377E+02 -0.64833919024E+01  0.14885414592E+03  0.47000000000E+01 0.  1.
         15    1    4    4    0    0  0.19279675787E+02  0.12626957412E+02  0.27648467533E+02  0.36038055412E+02  0.17770000000E+01 0. -1.
        -16    1    4    4    0    0  0.36703505028E+02 -0.10159385590E+03  0.80349690281E+02  0.13462738045E+03  0.00000000000E+00 0.  1.
<mgrwt>
<rscale>  2 0.30293736E+03</rscale>
<asrwt>0</asrwt>
<pdfrwt beam="1">  1       21 0.75011513E-01 0.30296454E+03</pdfrwt>
<pdfrwt beam="2">  1       21 0.29502531E-01 0.30296454E+03</pdfrwt>
<totfact> 0.16533978E+04</totfact>
</mgrwt>
</event>
<event>
12    2  0.4097182E-002  0.1902779E+03  0.7546771E-02  0.1158790E+00
         21   -1    0    0  501  502  0.00000000000E+00  0.00000000000E+00  0.11071006532E+04  0.11071006532E+04  0.00000000000E+00 0. -1.
         21   -1    0    0  502  503 -0.00000000000E+00 -0.00000000000E+00 -0.43072392689E+02  0.43072392689E+02  0.00000000000E+00 0. -1.
         -6    2    1    2    0  503 -0.80021499350E+02  0.22601991293E+02  0.24665233363E+03  0.31151735676E+03  0.17114730353E+03 0.  0.
        -24    2    3    3    0    0 -0.69713457517E+02 -0.48193364107E+02  0.13333377304E+03  0.17742252372E+03  0.80735929966E+02 0.  0.
          6    2    1    2  501    0  0.80021499350E+02 -0.22601991293E+02  0.81737592693E+03  0.83865568918E+03  0.16830231342E+03 0.  0.
         24    2    5    5    0    0  0.23329569157E+02 -0.63089444179E+02  0.32344290790E+03  0.33981189992E+03  0.79575535789E+02 0.  0.
          5    1    5    5  501    0  0.56691930193E+02  0.40487452886E+02  0.49393301903E+03  0.49884378925E+03  0.47000000000E+01 0. -1.
        -15    1    6    6    0    0 -0.25278754666E+02 -0.45733145646E+02  0.14993514392E+03  0.15878992776E+03  0.17770000000E+01 0.  1.
         16    1    6    6    0    0  0.48608323823E+02 -0.17356298533E+02  0.17350776398E+03  0.18102197216E+03  0.00000000000E+00 0. -1.
         -5    1    3    3    0  503 -0.10308041832E+02  0.70795355400E+02  0.11331856059E+03  0.13409483304E+03  0.47000000000E+01 0.  1.
         15    1    4    4    0    0 -0.16958414403E+02  0.37936544763E+01 -0.69395026013E+01  0.18796118182E+02  0.17770000000E+01 0. -1.
        -16    1    4    4    0    0 -0.52755043114E+02 -0.51987018583E+02  0.14027327564E+03  0.15862640554E+03  0.00000000000E+00 0.  1.
<mgrwt>
<rscale>  2 0.18963598E+03</rscale>
<asrwt>0</asrwt>
<pdfrwt beam="1">  1       21 0.17032316E+00 0.19027793E+03</pdfrwt>
<pdfrwt beam="2">  1       21 0.66265228E-02 0.19027793E+03</pdfrwt>
<totfact> 0.35346665E+04</totfact>
</mgrwt>
</event>
<event>
12    2  0.4097182E-002  0.2455157E+03  0.7546771E-02  0.1117400E+00
         21   -1    0    0  501  502  0.00000000000E+00  0.00000000000E+00  0.22663150896E+03  0.22663150896E+03  0.00000000000E+00 0. -1.
         21   -1    0    0  502  503 -0.00000000000E+00 -0.00000000000E+00 -0.27347565472E+03  0.27347565472E+03  0.00000000000E+00 0. -1.
         -6    2    1    2    0  503 -0.16343648304E+03  0.37218274423E+02  0.35816044928E+02  0.24811434560E+03  0.17939134727E+03 0.  0.
        -24    2    3    3    0    0 -0.37460621245E+02  0.30050965266E+02 -0.19741951874E+02  0.11016482916E+03  0.97160620950E+02 0.  0.
          6    2    1    2  501    0  0.16343648304E+03 -0.37218274423E+02 -0.82660190683E+02  0.25199281808E+03  0.16902955157E+03 0.  0.
         24    2    5    5    0    0  0.52003689881E+02  0.37506796848E+02 -0.36617828513E+02  0.11006645414E+03  0.81624845431E+02 0.  0.
          5    1    5    5  501    0  0.11143279316E+03 -0.74725071271E+02 -0.46042362169E+02  0.14192636394E+03  0.47000000000E+01 0. -1.
        -15    1    6    6    0    0 -0.90509617452E+01 -0.18573843587E+02 -0.97826341987E+01  0.22929571191E+02  0.17770000000E+01 0.  1.
         16    1    6    6    0    0  0.61054651626E+02  0.56080640436E+02 -0.26835194315E+02  0.87136882953E+02  0.00000000000E+00 0. -1.
         -5    1    3    3    0  503 -0.12597586179E+03  0.71673091567E+01  0.55557996802E+02  0.13794951643E+03  0.47000000000E+01 0.  1.
         15    1    4    4    0    0 -0.38727341809E+02 -0.15231412054E+02 -0.42466735409E+02  0.59484319463E+02  0.17770000000E+01 0. -1.
        -16    1    4    4    0    0  0.12667205638E+01  0.45282377320E+02  0.22724783534E+02  0.50680509700E+02  0.00000000000E+00 0.  1.
<mgrwt>
<rscale>  2 0.24362751E+03</rscale>
<asrwt>0</asrwt>
<pdfrwt beam="1">  1       21 0.34866386E-01 0.24551566E+03</pdfrwt>
<pdfrwt beam="2">  1       21 0.42073178E-01 0.24551566E+03</pdfrwt>
<totfact> 0.42059933E+04</totfact>
</mgrwt>
</event>
<event>
12    2  0.4097182E-002  0.2197577E+03  0.7546771E-02  0.1134459E+00
         21   -1    0    0  501  502  0.00000000000E+00  0.00000000000E+00  0.38992945109E+03  0.38992945109E+03  0.00000000000E+00 0. -1.
         21   -1    0    0  502  503 -0.00000000000E+00 -0.00000000000E+00 -0.19124891550E+03  0.19124891550E+03  0.00000000000E+00 0.  1.
         -6    2    1    2    0  503  0.20604791642E+02 -0.13648878087E+03 -0.74364396410E+02  0.23199898575E+03  0.17099626076E+03 0.  0.
        -24    2    3    3    0    0  0.54573118954E+02 -0.15294241797E+03 -0.66284510916E+02  0.19311526185E+03  0.80810020704E+02 0.  0.
          6    2    1    2  501    0 -0.20604791642E+02  0.13648878087E+03  0.27304493200E+03  0.34917938084E+03  0.16828238284E+03 0.  0.
         24    2    5    5    0    0 -0.54578726736E+02  0.58195831894E+02  0.22207396471E+03  0.24965981678E+03  0.81532729941E+02 0.  0.
          5    1    5    5  501    0  0.33973935094E+02  0.78292948974E+02  0.50970967292E+02  0.99519564064E+02  0.47000000000E+01 0. -1.
        -15    1    6    6    0    0 -0.39234533844E+02  0.17473332795E+02  0.19202087699E+03  0.19677357783E+03  0.17770000000E+01 0.  1.
         16    1    6    6    0    0 -0.15344192892E+02  0.40722499099E+02  0.30053087718E+02  0.52886238945E+02  0.00000000000E+00 0. -1.
         -5    1    3    3    0  503 -0.33968327312E+02  0.16453637103E+02 -0.80798854936E+01  0.38883723895E+02  0.47000000000E+01 0.  1.
         15    1    4    4    0    0 -0.67192561208E+01 -0.93839395041E+02 -0.19986738450E+02  0.96195675097E+02  0.17770000000E+01 0. -1.
        -16    1    4    4    0    0  0.61292375075E+02 -0.59103022931E+02 -0.46297772467E+02  0.96919586758E+02  0.00000000000E+00 0.  1.
<mgrwt>
<rscale>  2 0.21922959E+03</rscale>
<asrwt>0</asrwt>
<pdfrwt beam="1">  1       21 0.59989146E-01 0.21975774E+03</pdfrwt>
<pdfrwt beam="2">  1       21 0.29422910E-01 0.21975774E+03</pdfrwt>
<totfact> 0.28268204E+04</totfact>
</mgrwt>
</event>
<event>
12    2  0.4097182E-002  0.2869977E+03  0.7546771E-02  0.1091947E+00
         21   -1    0    0  503  502  0.00000000000E+00  0.00000000000E+00  0.12980179671E+03  0.12980179671E+03  0.00000000000E+00 0. -1.
         21   -1    0    0  501  503 -0.00000000000E+00 -0.00000000000E+00 -0.11339222516E+04  0.11339222516E+04  0.00000000000E+00 0. -1.
          6    2    1    2  501    0 -0.90344071952E+02 -0.21012214071E+03 -0.92143587050E+03  0.96505300365E+03  0.17311808417E+03 0.  0.
         24    2    3    3    0    0 -0.67608640436E+02 -0.16351766332E+03 -0.87170712047E+03  0.89305358881E+03  0.79764993128E+02 0.  0.
         -6    2    1    2    0  502  0.90344071952E+02  0.21012214071E+03 -0.82684584361E+02  0.29867104462E+03  0.17336172314E+03 0.  0.
        -24    2    5    5    0    0  0.12258964555E+03  0.13694099974E+03 -0.84328094509E+02  0.21854584549E+03  0.82885465866E+02 0.  0.
          5    1    3    3  501    0 -0.22735431515E+02 -0.46604477382E+02 -0.49728750029E+02  0.71999414843E+02  0.47000000000E+01 0. -1.
        -15    1    4    4    0    0  0.12698293817E+01 -0.17617957597E+02 -0.25412643776E+03  0.25474577326E+03  0.17770000000E+01 0.  1.
         16    1    4    4    0    0 -0.68878469818E+02 -0.14589970573E+03 -0.61758068271E+03  0.63830781555E+03  0.00000000000E+00 0. -1.
         -5    1    5    5    0  502 -0.32245573595E+02  0.73181140968E+02  0.16435101482E+01  0.80125199129E+02  0.47000000000E+01 0.  1.
         15    1    6    6    0    0  0.12683841173E+02  0.39352517347E+02 -0.54732141351E+02  0.68616801691E+02  0.17770000000E+01 0. -1.
        -16    1    6    6    0    0  0.10990580437E+03  0.97588482390E+02 -0.29595953158E+02  0.14992904380E+03  0.00000000000E+00 0.  1.
<mgrwt>
<rscale>  2 0.28696087E+03</rscale>
<asrwt>0</asrwt>
<pdfrwt beam="1">  1       21 0.19969507E-01 0.28699765E+03</pdfrwt>
<pdfrwt beam="2">  1       21 0.17444958E+00 0.28699765E+03</pdfrwt>
<totfact> 0.42864194E+03</totfact>
</mgrwt>
</event>
<event>
12    2  0.4097182E-002  0.1845983E+03  0.7546771E-02  0.1163523E+00
         21   -1    0    0  501  502  0.00000000000E+00  0.00000000000E+00  0.15735505088E+03  0.15735505088E+03  0.00000000000E+00 0.  1.
         21   -1    0    0  502  503 -0.00000000000E+00 -0.00000000000E+00 -0.64363208691E+03  0.64363208691E+03  0.00000000000E+00 0.  1.
         -6    2    1    2    0  503 -0.61493947732E+02 -0.21909147243E+02 -0.56965108569E+03  0.59881455740E+03  0.17267020119E+03 0.  0.
        -24    2    3    3    0    0  0.30313295726E+02  0.95495550799E+01 -0.30757693861E+03  0.31930933656E+03  0.79654186030E+02 0.  0.
          6    2    1    2  501    0  0.61493947732E+02  0.21909147243E+02  0.83374049666E+02  0.20217258040E+03  0.17222370269E+03 0.  0.
         24    2    5    5    0    0  0.75235696303E+02  0.55532405946E+02  0.10371307140E+03  0.16027836857E+03  0.78666995271E+02 0.  0.
          5    1    5    5  501    0 -0.13741748571E+02 -0.33623258702E+02 -0.20339021733E+02  0.41894211827E+02  0.47000000000E+01 0. -1.
        -15    1    6    6    0    0  0.80320979197E+02  0.16788432408E+02  0.79747777365E+02  0.11443852885E+03  0.17770000000E+01 0.  1.
         16    1    6    6    0    0 -0.50852828937E+01  0.38743973538E+02  0.23965294034E+02  0.45839839722E+02  0.00000000000E+00 0. -1.
         -5    1    3    3    0  503 -0.91807243457E+02 -0.31458702323E+02 -0.26207414708E+03  0.27950522083E+03  0.47000000000E+01 0.  1.
         15    1    4    4    0    0 -0.91764428100E+01 -0.26393319751E+02 -0.62539806464E+02  0.68521526192E+02  0.17770000000E+01 0. -1.
        -16    1    4    4    0    0  0.39489738536E+02  0.35942874831E+02 -0.24503713215E+03  0.25078781037E+03  0.00000000000E+00 0.  1.
<mgrwt>
<rscale>  2 0.18449377E+03</rscale>
<asrwt>0</asrwt>
<pdfrwt beam="1">  1       21 0.24208469E-01 0.18459825E+03</pdfrwt>
<pdfrwt beam="2">  1       21 0.99020321E-01 0.18459825E+03</pdfrwt>
<totfact> 0.13605572E+04</totfact>
</mgrwt>
</event>
<event>
12    2  0.4097182E-002  0.1936719E+03  0.7546771E-02  0.1156067E+00
         21   -1    0    0  501  502  0.00000000000E+00  0.00000000000E+00  0.31015969235E+03  0.31015969235E+03  0.00000000000E+00 0. -1.
         21   -1    0    0  502  503 -0.00000000000E+00 -0.00000000000E+00 -0.25514567974E+03  0.25514567974E+03  0.00000000000E+00 0. -1.
         -6    2    1    2    0  503  0.73549944178E+02  0.29695908046E+02 -0.17948013491E+03  0.26117330315E+03  0.17235699640E+03 0.  0.
        -24    2    3    3    0    0 -0.17909931236E+02  0.41823906911E+02 -0.81950772615E+02  0.12683766500E+03  0.85450917520E+02 0.  0.
          6    2    1    2  501    0 -0.73549944178E+02 -0.29695908046E+02  0.23449414752E+03  0.30413206893E+03  0.17668437647E+03 0.  0.
         24    2    5    5    0    0 -0.54511339393E+02 -0.73943666953E+02  0.91397129189E+02  0.15307188458E+03  0.81476466664E+02 0.  0.
          5    1    5    5  501    0 -0.19038604785E+02  0.44247758908E+02  0.14309701833E+03  0.15106018435E+03  0.47000000000E+01 0. -1.
        -15    1    6    6    0    0 -0.26489610034E+02 -0.10100293506E+02 -0.99154716269E+01  0.30086370257E+02  0.17770000000E+01 0.  1.
         16    1    6    6    0    0 -0.28021729359E+02 -0.63843373447E+02  0.10131260082E+03  0.12298551432E+03  0.00000000000E+00 0. -1.
         -5    1    3    3    0  503  0.91459875415E+02 -0.12127998866E+02 -0.97529362297E+02  0.13433563815E+03  0.47000000000E+01 0.  1.
         15    1    4    4    0    0  0.15314264175E+02  0.43608089786E+02 -0.81326975896E+02  0.93559750531E+02  0.17770000000E+01 0. -1.
        -16    1    4    4    0    0 -0.33224195411E+02 -0.17841828748E+01 -0.62379671869E+00  0.33277914472E+02  0.00000000000E+00 0.  1.
<mgrwt>
<rscale>  2 0.19267943E+03</rscale>
<asrwt>0</asrwt>
<pdfrwt beam="1">  1       21 0.47716876E-01 0.19367191E+03</pdfrwt>
<pdfrwt beam="2">  1       21 0.39253182E-01 0.19367191E+03</pdfrwt>
<totfact> 0.26260054E+04</totfact>
</mgrwt>
</event>
<event>
12    2  0.4097182E-002  0.1782820E+03  0.7546771E-02  0.1170805E+00
         21   -1    0    0  503  502  0.00000000000E+00  0.00000000000E+00  0.64114347860E+02  0.64114347860E+02  0.00000000000E+00 0. -1.
         21   -1    0    0  501  503 -0.00000000000E+00 -0.00000000000E+00 -0.83934548121E+03  0.83934548121E+03  0.00000000000E+00 0. -1.
          6    2    1    2  501    0 -0.90486385213E+01 -0.18197045199E+01 -0.67937382181E+03  0.70104173973E+03  0.17270072930E+03 0.  0.
         24    2    3    3    0    0 -0.19680290994E+02 -0.60528076869E+02 -0.30515402198E+03  0.32206647194E+03  0.80974522347E+02 0.  0.
         -6    2    1    2    0  502  0.90486385213E+01  0.18197045199E+01 -0.95857311541E+02  0.20241808934E+03  0.17804288678E+03 0.  0.
        -24    2    5    5    0    0 -0.54722964671E+02  0.26530142047E+02 -0.88341219189E+02  0.13345429637E+03  0.79419310705E+02 0.  0.
          5    1    3    3  501    0  0.10631652473E+02  0.58708372349E+02 -0.37421979982E+03  0.37897526779E+03  0.47000000000E+01 0. -1.
        -15    1    4    4    0    0 -0.31380366356E+02 -0.28739549452E+02 -0.54663762221E+02  0.69296274968E+02  0.17770000000E+01 0.  1.
         16    1    4    4    0    0  0.11700075362E+02 -0.31788527416E+02 -0.25049025976E+03  0.25277019697E+03  0.00000000000E+00 0. -1.
         -5    1    5    5    0  502  0.63771603192E+02 -0.24710437527E+02 -0.75160923516E+01  0.68963792969E+02  0.47000000000E+01 0.  1.
         15    1    6    6    0    0  0.70760977471E+01 -0.20843206964E+02 -0.21752287963E+02  0.30997261113E+02  0.17770000000E+01 0. -1.
        -16    1    6    6    0    0 -0.61799062418E+02  0.47373349011E+02 -0.66588931226E+02  0.10245703526E+03  0.00000000000E+00 0.  1.
<mgrwt>
<rscale>  2 0.17693304E+03</rscale>
<asrwt>0</asrwt>
<pdfrwt beam="1">  1       21 0.98637460E-02 0.17828196E+03</pdfrwt>
<pdfrwt beam="2">  1       21 0.12913007E+00 0.17828196E+03</pdfrwt>
<totfact> 0.36850462E+04</totfact>
</mgrwt>
</event>
<event>
12    2  0.4097182E-002  0.1798157E+03  0.7546771E-02  0.1168146E+00
         21   -1    0    0  501  502  0.00000000000E+00  0.00000000000E+00  0.30694793913E+03  0.30694793913E+03  0.00000000000E+00 0.  1.
         21   -1    0    0  502  503 -0.00000000000E+00 -0.00000000000E+00 -0.15224299474E+03  0.15224299474E+03  0.00000000000E+00 0.  1.
         -6    2    1    2    0  503 -0.47826655074E+02 -0.24160919965E+02 -0.50522313386E+02  0.18677844523E+03  0.17164656846E+03 0.  0.
        -24    2    3    3    0    0  0.22935817378E+02 -0.58361683103E+02 -0.29181282783E+02  0.10520302434E+03  0.79271629800E+02 0.  0.
          6    2    1    2  501    0  0.47826655074E+02  0.24160919965E+02  0.20522725778E+03  0.27241248864E+03  0.17093623853E+03 0.  0.
         24    2    5    5    0    0 -0.26004622475E+02  0.40138890605E+02  0.72534977428E+02  0.11965227014E+03  0.82267684244E+02 0.  0.
          5    1    5    5  501    0  0.73831277549E+02 -0.15977970641E+02  0.13269228035E+03  0.15276021849E+03  0.47000000000E+01 0. -1.
        -15    1    6    6    0    0 -0.36399382838E+01  0.62910925543E+02  0.44435349032E+02  0.77127762032E+02  0.17770000000E+01 0.  1.
         16    1    6    6    0    0 -0.22364684191E+02 -0.22772034938E+02  0.28099628395E+02  0.42524508112E+02  0.00000000000E+00 0. -1.
         -5    1    3    3    0  503 -0.70762472452E+02  0.34200763138E+02 -0.21341030603E+02  0.81575420894E+02  0.47000000000E+01 0.  1.
         15    1    4    4    0    0  0.94312214536E+01 -0.76711428663E+02 -0.16226464316E+02  0.78993968749E+02  0.17770000000E+01 0. -1.
        -16    1    4    4    0    0  0.13504595925E+02  0.18349745560E+02 -0.12954818467E+02  0.26209055586E+02  0.00000000000E+00 0.  1.
<mgrwt>
<rscale>  2 0.17964597E+03</rscale>
<asrwt>0</asrwt>
<pdfrwt beam="1">  1       21 0.47222760E-01 0.17981569E+03</pdfrwt>
<pdfrwt beam="2">  1       21 0.23421999E-01 0.17981569E+03</pdfrwt>
<totfact> 0.73966964E+04</totfact>
</mgrwt>
</event>
<event>
12    2  0.4097182E-002  0.2006158E+03  0.7546771E-02  0.1149710E+00
         21   -1    0    0  503  502  0.00000000000E+00  0.00000000000E+00  0.43262851208E+02  0.43262851208E+02  0.00000000000E+00 0.  1.
         21   -1    0    0  501  503 -0.00000000000E+00 -0.00000000000E+00 -0.12580808165E+04  0.12580808165E+04  0.00000000000E+00 0. -1.
          6    2    1    2  501    0  0.85093187494E+02  0.48526944643E+02 -0.94750171030E+03  0.96850719900E+03  0.17507423737E+03 0.  0.
         24    2    3    3    0    0  0.95522159221E+02  0.48976136059E+02 -0.42956431037E+03  0.45044329805E+03  0.82767887561E+02 0.  0.
         -6    2    1    2    0  502 -0.85093187494E+02 -0.48526944643E+02 -0.26731625495E+03  0.33283646866E+03  0.17241351396E+03 0.  0.
        -24    2    5    5    0    0  0.18274680324E+02 -0.18573548812E+02 -0.15804754480E+03  0.17939637274E+03  0.80778038340E+02 0.  0.
          5    1    3    3  501    0 -0.10428971727E+02 -0.44919141639E+00 -0.51793739993E+03  0.51806390095E+03  0.47000000000E+01 0. -1.
        -15    1    4    4    0    0  0.11043746579E+03  0.37927797048E+02 -0.37872550290E+03  0.39632198516E+03  0.17770000000E+01 0.  1.
         16    1    4    4    0    0 -0.14915306571E+02  0.11048339012E+02 -0.50838807469E+02  0.54121312899E+02  0.00000000000E+00 0. -1.
         -5    1    5    5    0  502 -0.10336786782E+03 -0.29953395831E+02 -0.10926871015E+03  0.15344009592E+03  0.47000000000E+01 0.  1.
         15    1    6    6    0    0 -0.12647058346E+02  0.26298816643E+02 -0.41799862366E+02  0.51009431132E+02  0.17770000000E+01 0. -1.
        -16    1    6    6    0    0  0.30921738670E+02 -0.44872365455E+02 -0.11624768243E+03  0.12838694160E+03  0.00000000000E+00 0.  1.
<mgrwt>
<rscale>  2 0.20003385E+03</rscale>
<asrwt>0</asrwt>
<pdfrwt beam="1">  1       21 0.66558229E-02 0.20061581E+03</pdfrwt>
<pdfrwt beam="2">  1       21 0.19355091E+00 0.20061581E+03</pdfrwt>
<totfact> 0.24251737E+04</totfact>
</mgrwt>
</event>
<event>
12    2  0.4097182E-002  0.2317533E+03  0.7546771E-02  0.1128493E+00
         21   -1    0    0  503  502  0.00000000000E+00  0.00000000000E+00  0.39752968415E+03  0.39752968415E+03  0.00000000000E+00 0. -1.
         21   -1    0    0  501  503 -0.00000000000E+00 -0.00000000000E+00 -0.15318474438E+03  0.15318474438E+03  0.00000000000E+00 0. -1.
          6    2    1    2  501    0 -0.12702593473E+03  0.17788307143E+02  0.24320087523E+03  0.33594082629E+03  0.19302217772E+03 0.  0.
         24    2    3    3    0    0  0.57041996614E+01  0.23151868353E+02  0.32109982964E+02  0.86486399267E+02  0.76683109941E+02 0.  0.
         -6    2    1    2    0  502  0.12702593473E+03 -0.17788307143E+02  0.11440645362E+01  0.21477360224E+03  0.17226253038E+03 0.  0.
        -24    2    5    5    0    0  0.13299748805E+03 -0.49187420111E+02  0.36616148039E+02  0.16679524825E+03  0.79825925710E+02 0.  0.
          5    1    3    3  501    0 -0.13273013439E+03 -0.53635612098E+01  0.21109089226E+03  0.24945442702E+03  0.47000000000E+01 0. -1.
        -15    1    4    4    0    0 -0.76865939705E+01 -0.26445400317E+02  0.18879068978E+02  0.33436804561E+02  0.17770000000E+01 0.  1.
         16    1    4    4    0    0  0.13390793632E+02  0.49597268670E+02  0.13230913986E+02  0.53049594706E+02  0.00000000000E+00 0. -1.
         -5    1    5    5    0  502 -0.59715533200E+01  0.31399112968E+02 -0.35472083503E+02  0.47978353997E+02  0.47000000000E+01 0.  1.
         15    1    6    6    0    0  0.57626934622E+02  0.10691885043E+02 -0.10583668096E+02  0.59584828263E+02  0.17770000000E+01 0. -1.
        -16    1    6    6    0    0  0.75370553428E+02 -0.59879305154E+02  0.47199816136E+02  0.10721041998E+03  0.00000000000E+00 0.  1.
<mgrwt>
<rscale>  2 0.22738566E+03</rscale>
<asrwt>0</asrwt>
<pdfrwt beam="1">  1       21 0.61158412E-01 0.23175326E+03</pdfrwt>
<pdfrwt beam="2">  1       21 0.23566884E-01 0.23175326E+03</pdfrwt>
<totfact> 0.41350894E+04</totfact>
</mgrwt>
</event>
<event>
12    2  0.4097182E-002  0.2092661E+03  0.7546771E-02  0.1142986E+00
         21   -1    0    0  501  502  0.00000000000E+00  0.00000000000E+00  0.76455128401E+03  0.76455128401E+03  0.00000000000E+00 0.  1.
         21   -1    0    0  502  503 -0.00000000000E+00 -0.00000000000E+00 -0.13540523861E+03  0.13540523861E+03  0.00000000000E+00 0.  1.
         -6    2    1    2    0  503 -0.98091411439E+02 -0.50505387999E+02 -0.28382551815E+02  0.21118208097E+03  0.17781896091E+03 0.  0.
        -24    2    3    3    0    0  0.17532555608E+02 -0.28366818125E+02  0.11777710211E+02  0.86707365952E+02  0.79166823707E+02 0.  0.
          6    2    1    2  501    0  0.98091411439E+02  0.50505387999E+02  0.65752859722E+03  0.68877444166E+03  0.17289781982E+03 0.  0.
         24    2    5    5    0    0  0.13331893784E+03  0.53052623046E+02  0.58771395546E+03  0.61039305849E+03  0.81138599992E+02 0.  0.
          5    1    5    5  501    0 -0.35227526405E+02 -0.25472350463E+01  0.69814641761E+02  0.78381383168E+02  0.47000000000E+01 0. -1.
        -15    1    6    6    0    0  0.81764204312E+02 -0.11021095955E+02  0.30369177512E+03  0.31470414943E+03  0.17770000000E+01 0.  1.
         16    1    6    6    0    0  0.51554733533E+02  0.64073719001E+02  0.28402218034E+03  0.29568890906E+03  0.00000000000E+00 0. -1.
         -5    1    3    3    0  503 -0.11562396705E+03 -0.22138569875E+02 -0.40160262027E+02  0.12447471501E+03  0.47000000000E+01 0.  1.
         15    1    4    4    0    0 -0.19765978988E+01 -0.40076381808E+02  0.35667743032E+02  0.53715630315E+02  0.17770000000E+01 0. -1.
        -16    1    4    4    0    0  0.19509153506E+02  0.11709563683E+02 -0.23890032821E+02  0.32991735638E+02  0.00000000000E+00 0.  1.
<mgrwt>
<rscale>  2 0.20821694E+03</rscale>
<asrwt>0</asrwt>
<pdfrwt beam="1">  1       21 0.11762327E+00 0.20926610E+03</pdfrwt>
<pdfrwt beam="2">  1       21 0.20831575E-01 0.20926610E+03</pdfrwt>
<totfact> 0.11731367E+04</totfact>
</mgrwt>
</event>
<event>
12    2  0.4097182E-002  0.1972835E+03  0.7546771E-02  0.1155521E+00
         21   -1    0    0  501  502  0.00000000000E+00  0.00000000000E+00  0.97466041924E+03  0.97466041924E+03  0.00000000000E+00 0. -1.
         21   -1    0    0  502  503 -0.00000000000E+00 -0.00000000000E+00 -0.37529159730E+02  0.37529159730E+02  0.00000000000E+00 0. -1.
         -6    2    1    2    0  503  0.16274770872E+02 -0.63667640363E+02  0.38241532018E+03  0.42343618543E+03  0.16952371347E+03 0.  0.
        -24    2    3    3    0    0  0.25372840771E+02  0.12812273850E+02  0.29345745186E+03  0.30567564667E+03  0.80699377340E+02 0.  0.
          6    2    1    2  501    0 -0.16274770872E+02  0.63667640363E+02  0.55471593932E+03  0.58875339353E+03  0.18601706497E+03 0.  0.
         24    2    5    5    0    0 -0.44561517221E+02  0.10135020881E+03  0.29825939669E+03  0.32796197450E+03  0.79641668475E+02 0.  0.
          5    1    5    5  501    0  0.28286746350E+02 -0.37682568451E+02  0.25645654263E+03  0.26079141904E+03  0.47000000000E+01 0. -1.
        -15    1    6    6    0    0 -0.25917103865E+02  0.67946406577E+01  0.14089072574E+03  0.14342669815E+03  0.17770000000E+01 0.  1.
         16    1    6    6    0    0 -0.18644413357E+02  0.94555568156E+02  0.15736867096E+03  0.18453527635E+03  0.00000000000E+00 0. -1.
         -5    1    3    3    0  503 -0.90980698995E+01 -0.76479914213E+02  0.88957868323E+02  0.11776053877E+03  0.47000000000E+01 0.  1.
         15    1    4    4    0    0 -0.23518713444E+02 -0.11380148541E+02  0.14855350529E+03  0.15084408946E+03  0.17770000000E+01 0. -1.
        -16    1    4    4    0    0  0.48891554215E+02  0.24192422391E+02  0.14490394657E+03  0.15483155721E+03  0.00000000000E+00 0.  1.
<mgrwt>
<rscale>  2 0.19329721E+03</rscale>
<asrwt>0</asrwt>
<pdfrwt beam="1">  1       21 0.14994774E+00 0.19728351E+03</pdfrwt>
<pdfrwt beam="2">  1       21 0.57737176E-02 0.19728351E+03</pdfrwt>
<totfact> 0.62840936E+04</totfact>
</mgrwt>
</event>
<event>
12    2  0.4097182E-002  0.3405187E+03  0.7546771E-02  0.1066962E+00
         21   -1    0    0  503  502  0.00000000000E+00  0.00000000000E+00  0.51008042211E+03  0.51008042211E+03  0.00000000000E+00 0.  1.
         21   -1    0    0  501  503 -0.00000000000E+00 -0.00000000000E+00 -0.22509702926E+03  0.22509702926E+03  0.00000000000E+00 0. -1.
          6    2    1    2  501    0 -0.28517384302E+03 -0.16017532219E+02  0.15216231428E+03  0.36967174903E+03  0.17867050697E+03 0.  0.
         24    2    3    3    0    0 -0.72507707093E+02  0.40691260825E+02  0.49376540607E+02  0.12671130400E+03  0.81881411224E+02 0.  0.
         -6    2    1    2    0  502  0.28517384302E+03  0.16017532219E+02  0.13282107857E+03  0.36550570233E+03  0.18539767379E+03 0.  0.
        -24    2    5    5    0    0  0.68974914638E+02 -0.18183238199E+02 -0.38323099969E+01  0.10742062346E+03  0.80226770746E+02 0.  0.
          5    1    3    3  501    0 -0.21266613593E+03 -0.56708793044E+02  0.10278577367E+03  0.24296044503E+03  0.47000000000E+01 0. -1.
        -15    1    4    4    0    0 -0.16873766687E+02  0.20654244807E+02  0.60862881992E+02  0.66473829167E+02  0.17770000000E+01 0.  1.
         16    1    4    4    0    0 -0.55633940406E+02  0.20037016018E+02 -0.11486341385E+02  0.60237474835E+02  0.00000000000E+00 0. -1.
         -5    1    5    5    0  502  0.21619892838E+03  0.34200770418E+02  0.13665338857E+03  0.25808507887E+03  0.47000000000E+01 0.  1.
         15    1    6    6    0    0 -0.25497056242E+01  0.21996275334E+02  0.97607615035E+01  0.24264528050E+02  0.17770000000E+01 0. -1.
        -16    1    6    6    0    0  0.71524620262E+02 -0.40179513533E+02 -0.13593071500E+02  0.83156095412E+02  0.00000000000E+00 0.  1.
<mgrwt>
<rscale>  2 0.33961122E+03</rscale>
<asrwt>0</asrwt>
<pdfrwt beam="1">  1       21 0.78473911E-01 0.34051869E+03</pdfrwt>
<pdfrwt beam="2">  1       21 0.34630312E-01 0.34051869E+03</pdfrwt>
<totfact> 0.10689318E+04</totfact>
</mgrwt>
</event>
<event>
12    2  0.4097182E-002  0.1776608E+03  0.7546771E-02  0.1170248E+00
         21   -1    0    0  503  502  0.00000000000E+00  0.00000000000E+00  0.84795427844E+03  0.84795427844E+03  0.00000000000E+00 0.  1.
         21   -1    0    0  501  503 -0.00000000000E+00 -0.00000000000E+00 -0.38792163124E+02  0.38792163124E+02  0.00000000000E+00 0.  1.
          6    2    1    2  501    0 -0.33286999174E+02 -0.13984748508E+02  0.31087791590E+03  0.35773744598E+03  0.17328417169E+03 0.  0.
         24    2    3    3    0    0 -0.78780527574E+02 -0.43923919649E+02  0.23369264994E+03  0.26315589187E+03  0.80641717198E+02 0.  0.
         -6    2    1    2    0  502  0.33286999174E+02  0.13984748508E+02  0.49828419941E+03  0.52900899558E+03  0.17395337455E+03 0.  0.
        -24    2    5    5    0    0 -0.25025244260E+02  0.60092427749E+02  0.30631331521E+03  0.32309360956E+03  0.79525283652E+02 0.  0.
          5    1    3    3  501    0  0.45493528400E+02  0.29939171141E+02  0.77185265965E+02  0.94581554105E+02  0.47000000000E+01 0. -1.
        -15    1    4    4    0    0 -0.54222240656E+02  0.79507673373E+01  0.16370953383E+03  0.17264772016E+03  0.17770000000E+01 0.  1.
         16    1    4    4    0    0 -0.24558286918E+02 -0.51874686986E+02  0.69983116109E+02  0.90508171711E+02  0.00000000000E+00 0. -1.
         -5    1    5    5    0  502  0.58312243434E+02 -0.46107679241E+02  0.19197088420E+03  0.20591538602E+03  0.47000000000E+01 0.  1.
         15    1    6    6    0    0  0.69267391406E+01  0.61799502377E+01  0.19595229408E+03  0.19618009783E+03  0.17770000000E+01 0. -1.
        -16    1    6    6    0    0 -0.31951983401E+02  0.53912477511E+02  0.11036102113E+03  0.12691351173E+03  0.00000000000E+00 0.  1.
<mgrwt>
<rscale>  2 0.17749682E+03</rscale>
<asrwt>0</asrwt>
<pdfrwt beam="1">  1       21 0.13045449E+00 0.17766084E+03</pdfrwt>
<pdfrwt beam="2">  1       21 0.59680257E-02 0.17766084E+03</pdfrwt>
<totfact> 0.85859385E+04</totfact>
</mgrwt>
</event>
<event>
12    2  0.4097182E-002  0.2454201E+03  0.7546771E-02  0.1116365E+00
         21   -1    0    0  501  502  0.00000000000E+00  0.00000000000E+00  0.58334472919E+02  0.58334472919E+02  0.00000000000E+00 0. -1.
         21   -1    0    0  502  503 -0.00000000000E+00 -0.00000000000E+00 -0.15869122723E+04  0.15869122723E+04  0.00000000000E+00 0. -1.
         -6    2    1    2    0  503 -0.10894161952E+03 -0.13563614273E+03 -0.12528175008E+04  0.12766294373E+04  0.17310571911E+03 0.  0.
        -24    2    3    3    0    0 -0.31466069001E+02 -0.32587036501E+01 -0.32209641213E+03  0.33334258679E+03  0.79815091374E+02 0.  0.
          6    2    1    2  501    0  0.10894161952E+03  0.13563614273E+03 -0.27576029850E+03  0.36861730792E+03  0.17195795355E+03 0.  0.
         24    2    5    5    0    0  0.81080044601E+02  0.43839771713E+02 -0.23613538371E+03  0.26471800589E+03  0.76287639805E+02 0.  0.
          5    1    5    5  501    0  0.27861574916E+02  0.91796371021E+02 -0.39624914792E+02  0.10389930203E+03  0.47000000000E+01 0. -1.
        -15    1    6    6    0    0 -0.73807923215E-01 -0.12980039845E+02 -0.65017083514E+01  0.14625895613E+02  0.17770000000E+01 0.  1.
         16    1    6    6    0    0  0.81153852524E+02  0.56819811558E+02 -0.22963367536E+03  0.25009211028E+03  0.00000000000E+00 0. -1.
         -5    1    3    3    0  503 -0.77475550516E+02 -0.13237743908E+03 -0.93072108871E+03  0.94328685047E+03  0.47000000000E+01 0.  1.
         15    1    4    4    0    0 -0.52579250050E+02 -0.19426301404E+02 -0.25653264284E+03  0.26259115235E+03  0.17770000000E+01 0. -1.
        -16    1    4    4    0    0  0.21113181049E+02  0.16167597754E+02 -0.65563769295E+02  0.70751434440E+02  0.00000000000E+00 0.  1.
<mgrwt>
<rscale>  2 0.24521780E+03</rscale>
<asrwt>0</asrwt>
<pdfrwt beam="1">  1       21 0.89745343E-02 0.24542011E+03</pdfrwt>
<pdfrwt beam="2">  1       21 0.24414035E+00 0.24542011E+03</pdfrwt>
<totfact> 0.67444291E+03</totfact>
</mgrwt>
</event>
<event>
12    2  0.4097182E-002  0.1865881E+03  0.7546771E-02  0.1161684E+00
         21   -1    0    0  501  502  0.00000000000E+00  0.00000000000E+00  0.19949327143E+04  0.19949327143E+04  0.00000000000E+00 0.  1.
         21   -1    0    0  502  503 -0.00000000000E+00 -0.00000000000E+00 -0.17501062550E+02  0.17501062550E+02  0.00000000000E+00 0.  1.
         -6    2    1    2    0  503 -0.36073774765E+02 -0.59944187360E+02  0.91400242779E+03  0.93275936387E+03  0.17246730142E+03 0.  0.
        -24    2    3    3    0    0  0.43607324641E+02 -0.27550319111E+02  0.38044986238E+03  0.39229764426E+03  0.80589857090E+02 0.  0.
          6    2    1    2  501    0  0.36073774765E+02  0.59944187360E+02  0.10634292239E+04  0.10796744129E+04  0.17297543422E+03 0.  0.
         24    2    5    5    0    0 -0.35124240262E+02  0.12285661187E+02  0.73899622052E+03  0.74408633783E+03  0.78513785259E+02 0.  0.
          5    1    5    5  501    0  0.71198015027E+02  0.47658526173E+02  0.32443300340E+03  0.33558807511E+03  0.47000000000E+01 0. -1.
        -15    1    6    6    0    0 -0.64929003643E+01 -0.11503582558E+02  0.19454175979E+02  0.23582045264E+02  0.17770000000E+01 0.  1.
         16    1    6    6    0    0 -0.28631339898E+02  0.23789243744E+02  0.71954204454E+03  0.72050429257E+03  0.00000000000E+00 0. -1.
         -5    1    3    3    0  503 -0.79681099406E+02 -0.32393868249E+02  0.53355256541E+03  0.54046171961E+03  0.47000000000E+01 0.  1.
         15    1    4    4    0    0 -0.60191761463E+01  0.19294372480E+02  0.37630865828E+02  0.42752112027E+02  0.17770000000E+01 0. -1.
        -16    1    4    4    0    0  0.49626500787E+02 -0.46844691590E+02  0.34281899655E+03  0.34954553223E+03  0.00000000000E+00 0.  1.
<mgrwt>
<rscale>  2 0.18647026E+03</rscale>
<asrwt>0</asrwt>
<pdfrwt beam="1">  1       21 0.30691255E+00 0.18658811E+03</pdfrwt>
<pdfrwt beam="2">  1       21 0.26924727E-02 0.18658811E+03</pdfrwt>
<totfact> 0.23705181E+04</totfact>
</mgrwt>
</event>
<event>
12    2  0.4097182E-002  0.2432572E+03  0.7546771E-02  0.1117773E+00
         21   -1    0    0  503  502  0.00000000000E+00  0.00000000000E+00  0.29170546596E+03  0.29170546596E+03  0.00000000000E+00 0.  1.
         21   -1    0    0  501  503 -0.00000000000E+00 -0.00000000000E+00 -0.58132319964E+03  0.58132319964E+03  0.00000000000E+00 0.  1.
          6    2    1    2  501    0 -0.52951424227E+02 -0.16369767544E+03 -0.49741417637E+03  0.55371015233E+03  0.17196885668E+03 0.  0.
         24    2    3    3    0    0 -0.81458565280E+02 -0.54358044421E+02 -0.22145568960E+03  0.25547704146E+03  0.81459200850E+02 0.  0.
         -6    2    1    2    0  502  0.52951424227E+02  0.16369767544E+03  0.20779644269E+03  0.31931851328E+03  0.17083374682E+03 0.  0.
        -24    2    5    5    0    0  0.94172869531E+02  0.15570677740E+03  0.16066781937E+03  0.25602349656E+03  0.81368008012E+02 0.  0.
          5    1    3    3  501    0  0.28507141052E+02 -0.10933963102E+03 -0.27595848677E+03  0.29823311087E+03  0.47000000000E+01 0. -1.
        -15    1    4    4    0    0 -0.38514029877E+02  0.41467938258E+01 -0.14485655168E+03  0.14995700947E+03  0.17770000000E+01 0.  1.
         16    1    4    4    0    0 -0.42944535402E+02 -0.58504838247E+02 -0.76599137921E+02  0.10552003198E+03  0.00000000000E+00 0. -1.
         -5    1    5    5    0  502 -0.41221445303E+02  0.79908980393E+01  0.47128623322E+02  0.63295016712E+02  0.47000000000E+01 0.  1.
         15    1    6    6    0    0  0.85158530998E+02  0.13232197894E+03  0.90543961083E+02  0.18155563370E+03  0.17770000000E+01 0. -1.
        -16    1    6    6    0    0  0.90143385328E+01  0.23384798466E+02  0.70123858285E+02  0.74467862862E+02  0.00000000000E+00 0.  1.
<mgrwt>
<rscale>  2 0.24305668E+03</rscale>
<asrwt>0</asrwt>
<pdfrwt beam="1">  1       21 0.44877764E-01 0.24325721E+03</pdfrwt>
<pdfrwt beam="2">  1       21 0.89434338E-01 0.24325721E+03</pdfrwt>
<totfact> 0.48976670E+03</totfact>
</mgrwt>
</event>
<event>
12    2  0.4097182E-002  0.1973452E+03  0.7546771E-02  0.1152059E+00
         21   -1    0    0  501  502  0.00000000000E+00  0.00000000000E+00  0.24896861595E+03  0.24896861595E+03  0.00000000000E+00 0. -1.
         21   -1    0    0  502  503 -0.00000000000E+00 -0.00000000000E+00 -0.20630497027E+03  0.20630497027E+03  0.00000000000E+00 0. -1.
         -6    2    1    2    0  503 -0.33869960054E+02 -0.89622085085E+02  0.13352378986E+03  0.23827239176E+03  0.17252778874E+03 0.  0.
        -24    2    3    3    0    0  0.21820579220E+02 -0.68243343392E+02  0.14172537113E+03  0.17787501851E+03  0.80125837237E+02 0.  0.
          6    2    1    2  501    0  0.33869960054E+02  0.89622085085E+02 -0.90860144183E+02  0.21700119445E+03  0.17220528523E+03 0.  0.
         24    2    5    5    0    0 -0.12934261779E+01  0.89440484686E+02  0.25447108311E+01  0.11708596213E+03  0.75507441500E+02 0.  0.
          5    1    5    5  501    0  0.35163386232E+02  0.18160039938E+00 -0.93404855014E+02  0.99915232323E+02  0.47000000000E+01 0. -1.
        -15    1    6    6    0    0  0.24930154584E+02  0.46048704280E+02  0.29014787540E+02  0.59891663847E+02  0.17770000000E+01 0.  1.
         16    1    6    6    0    0 -0.26223580762E+02  0.43391780406E+02 -0.26470076709E+02  0.57194298280E+02  0.00000000000E+00 0. -1.
         -5    1    3    3    0  503 -0.55690539274E+02 -0.21378741693E+02 -0.82015812645E+01  0.60397373256E+02  0.47000000000E+01 0.  1.
         15    1    4    4    0    0 -0.11520450626E+02 -0.64041731867E+02  0.56248846337E+02  0.86029963655E+02  0.17770000000E+01 0. -1.
        -16    1    4    4    0    0  0.33341029847E+02 -0.42016115249E+01  0.85476524789E+02  0.91845054852E+02  0.00000000000E+00 0.  1.
<mgrwt>
<rscale>  2 0.19727470E+03</rscale>
<asrwt>0</asrwt>
<pdfrwt beam="1">  1       21 0.38302864E-01 0.19734521E+03</pdfrwt>
<pdfrwt beam="2">  1       21 0.31739226E-01 0.19734521E+03</pdfrwt>
<totfact> 0.62601398E+04</totfact>
</mgrwt>
</event>
<event>
12    2  0.4097182E-002  0.2218986E+03  0.7546771E-02  0.1132476E+00
         21   -1    0    0  501  502  0.00000000000E+00  0.00000000000E+00  0.41713215896E+03  0.41713215896E+03  0.00000000000E+00 0. -1.
         21   -1    0    0  502  503 -0.00000000000E+00 -0.00000000000E+00 -0.12985403667E+03  0.12985403667E+03  0.00000000000E+00 0. -1.
         -6    2    1    2    0  503  0.93886262818E+02 -0.10474782850E+03  0.61145358885E+02  0.23016890192E+03  0.17161652186E+03 0.  0.
        -24    2    3    3    0    0  0.18035164240E+02 -0.35312423644E+01  0.62385557008E+02  0.10359159528E+03  0.80632028800E+02 0.  0.
          6    2    1    2  501    0 -0.93886262818E+02  0.10474782850E+03  0.22613276341E+03  0.31681729371E+03  0.17161128455E+03 0.  0.
         24    2    5    5    0    0 -0.69966973752E+02  0.13857838486E+03  0.15452423245E+03  0.23395288254E+03  0.82200162205E+02 0.  0.
          5    1    5    5  501    0 -0.23919289066E+02 -0.33830556359E+02  0.71608530961E+02  0.82864411175E+02  0.47000000000E+01 0. -1.
        -15    1    6    6    0    0  0.44197999933E+01  0.31677992593E+02  0.74504104396E+02  0.81099008302E+02  0.17770000000E+01 0.  1.
         16    1    6    6    0    0 -0.74386773745E+02  0.10690039226E+03  0.80020128057E+02  0.15285387423E+03  0.00000000000E+00 0. -1.
         -5    1    3    3    0  503  0.75851098578E+02 -0.10121658613E+03 -0.12401981235E+01  0.12657730664E+03  0.47000000000E+01 0.  1.
         15    1    4    4    0    0  0.46283760166E+02 -0.97891944380E+01  0.18081363108E+02  0.50676505440E+02  0.17770000000E+01 0. -1.
        -16    1    4    4    0    0 -0.28248595926E+02  0.62579520736E+01  0.44304193901E+02  0.52915089843E+02  0.00000000000E+00 0.  1.
<mgrwt>
<rscale>  2 0.22189754E+03</rscale>
<asrwt>0</asrwt>
<pdfrwt beam="1">  1       21 0.64174177E-01 0.22189855E+03</pdfrwt>
<pdfrwt beam="2">  1       21 0.19977544E-01 0.22189855E+03</pdfrwt>
<totfact> 0.51122606E+04</totfact>
</mgrwt>
</event>
<event>
12    2  0.4097182E-002  0.1798411E+03  0.7546771E-02  0.1168316E+00
         21   -1    0    0  501  502  0.00000000000E+00  0.00000000000E+00  0.18146595124E+03  0.18146595124E+03  0.00000000000E+00 0. -1.
         21   -1    0    0  502  503 -0.00000000000E+00 -0.00000000000E+00 -0.21224747588E+03  0.21224747588E+03  0.00000000000E+00 0. -1.
         -6    2    1    2    0  503 -0.42799033365E+02 -0.12075898981E+02 -0.95819626969E+02  0.20247328749E+03  0.17273229762E+03 0.  0.
        -24    2    3    3    0    0  0.32936380149E+02 -0.22856541966E+01 -0.92704243419E+02  0.12589981057E+03  0.78528059960E+02 0.  0.
          6    2    1    2  501    0  0.42799033365E+02  0.12075898981E+02  0.65038102332E+02  0.19124013964E+03  0.17425628155E+03 0.  0.
         24    2    5    5    0    0  0.84011650364E+02  0.23018567100E+02  0.82540474351E+02  0.14490824121E+03  0.81225960361E+02 0.  0.
          5    1    5    5  501    0 -0.41212616998E+02 -0.10942668118E+02 -0.17502372019E+02  0.46331898425E+02  0.47000000000E+01 0. -1.
        -15    1    6    6    0    0  0.80180989695E+02  0.19676270330E+02  0.98280218015E+02  0.12836785308E+03  0.17770000000E+01 0.  1.
         16    1    6    6    0    0  0.38306606682E+01  0.33422967702E+01 -0.15739743664E+02  0.16540388129E+02  0.00000000000E+00 0. -1.
         -5    1    3    3    0  503 -0.75735413514E+02 -0.97902447849E+01 -0.31153835499E+01  0.76573476921E+02  0.47000000000E+01 0.  1.
         15    1    4    4    0    0 -0.23669005527E+01  0.34173785636E+02 -0.33953246447E+02  0.48264174252E+02  0.17770000000E+01 0. -1.
        -16    1    4    4    0    0  0.35303280702E+02 -0.36459439832E+02 -0.58750996972E+02  0.77635636317E+02  0.00000000000E+00 0.  1.
<mgrwt>
<rscale>  2 0.17947094E+03</rscale>
<asrwt>0</asrwt>
<pdfrwt beam="1">  1       21 0.27917839E-01 0.17984114E+03</pdfrwt>
<pdfrwt beam="2">  1       21 0.32653458E-01 0.17984114E+03</pdfrwt>
<totfact> 0.11111206E+05</totfact>
</mgrwt>
</event>
<event>
12    2  0.4097182E-002  0.2001113E+03  0.7546771E-02  0.1149663E+00
         21   -1    0    0  503  502  0.00000000000E+00  0.00000000000E+00  0.11566209820E+04  0.11566209820E+04  0.00000000000E+00 0. -1.
         21   -1    0    0  501  503 -0.00000000000E+00 -0.00000000000E+00 -0.54094940774E+02  0.54094940774E+02  0.00000000000E+00 0. -1.
          6    2    1    2  501    0  0.97833979077E+02 -0.16187503970E+01  0.18799878183E+03  0.27456891414E+03  0.17455783806E+03 0.  0.
         24    2    3    3    0    0  0.16536249047E+02  0.55981123347E+02  0.10064884865E+03  0.14198246238E+03  0.81372570225E+02 0.  0.
         -6    2    1    2    0  502 -0.97833979077E+02  0.16187503970E+01  0.91452725941E+03  0.93614700865E+03  0.17446204684E+03 0.  0.
        -24    2    5    5    0    0 -0.56153838093E+02 -0.58305281022E+02  0.38798719180E+03  0.40455068013E+03  0.81082874072E+02 0.  0.
          5    1    3    3  501    0  0.81297730030E+02 -0.57599873744E+02  0.87349933182E+02  0.13258645176E+03  0.47000000000E+01 0. -1.
        -15    1    4    4    0    0  0.12620246496E+02  0.39914647234E+02  0.11353364171E+03  0.12101857384E+03  0.17770000000E+01 0.  1.
         16    1    4    4    0    0  0.39160025505E+01  0.16066476113E+02 -0.12884793057E+02  0.20963888542E+02  0.00000000000E+00 0. -1.
         -5    1    5    5    0  502 -0.41680140984E+02  0.59924031419E+02  0.52654006761E+03  0.53159632852E+03  0.47000000000E+01 0.  1.
         15    1    6    6    0    0 -0.38386877079E+02  0.13337324699E+02  0.14536347896E+03  0.15094745876E+03  0.17770000000E+01 0. -1.
        -16    1    6    6    0    0 -0.17766961014E+02 -0.71642605721E+02  0.24262371284E+03  0.25360322137E+03  0.00000000000E+00 0.  1.
<mgrwt>
<rscale>  2 0.20009044E+03</rscale>
<asrwt>0</asrwt>
<pdfrwt beam="1">  1       21 0.17794167E+00 0.20011134E+03</pdfrwt>
<pdfrwt beam="2">  1       21 0.83222994E-02 0.20011134E+03</pdfrwt>
<totfact> 0.20941785E+04</totfact>
</mgrwt>
</event>
<event>
12    2  0.4097182E-002  0.1759912E+03  0.7546771E-02  0.1171955E+00
         21   -1    0    0  501  502  0.00000000000E+00  0.00000000000E+00  0.31690339041E+02  0.31690339041E+02  0.00000000000E+00 0.  1.
         21   -1    0    0  502  503 -0.00000000000E+00 -0.00000000000E+00 -0.16888647698E+04  0.16888647698E+04  0.00000000000E+00 0.  1.
         -6    2    1    2    0  503  0.35781877266E+01  0.30378102191E+02 -0.13876651398E+04  0.13986729032E+04  0.17244047537E+03 0.  0.
        -24    2    3    3    0    0  0.40159377592E+02 -0.34534185393E+02 -0.63580470759E+03  0.64311483927E+03  0.80893044927E+02 0.  0.
          6    2    1    2  501    0 -0.35781877266E+01 -0.30378102191E+02 -0.26950929100E+03  0.32188220564E+03  0.17331261884E+03 0.  0.
         24    2    5    5    0    0 -0.53623127703E+01  0.13693169438E+01 -0.27769216905E+03  0.28871397962E+03  0.78817459049E+02 0.  0.
          5    1    5    5  501    0  0.17841250438E+01 -0.31747419135E+02  0.81828780451E+01  0.33168226015E+02  0.47000000000E+01 0. -1.
        -15    1    6    6    0    0  0.31722721733E+02 -0.82511418310E+01 -0.67501543599E+02  0.75060166087E+02  0.17770000000E+01 0.  1.
         16    1    6    6    0    0 -0.37085034504E+02  0.96204587747E+01 -0.21019062545E+03  0.21365381354E+03  0.00000000000E+00 0. -1.
         -5    1    3    3    0  503 -0.36581189866E+02  0.64912287584E+02 -0.75186043220E+03  0.75555806398E+03  0.47000000000E+01 0.  1.
         15    1    4    4    0    0 -0.48292277773E+01  0.25965030869E+01 -0.12667714362E+01  0.59013310428E+01  0.17770000000E+01 0. -1.
        -16    1    4    4    0    0  0.44988605370E+02 -0.37130688479E+02 -0.63453793616E+03  0.63721350822E+03  0.00000000000E+00 0.  1.
<mgrwt>
<rscale>  2 0.17577609E+03</rscale>
<asrwt>0</asrwt>
<pdfrwt beam="1">  1       21 0.48754357E-02 0.17599118E+03</pdfrwt>
<pdfrwt beam="2">  1       21 0.25982540E+00 0.17599118E+03</pdfrwt>
<totfact> 0.16612903E+04</totfact>
</mgrwt>
</event>
<event>
12    2  0.4097182E-002  0.2295807E+03  0.7546771E-02  0.1127195E+00
         21   -1    0    0  503  502  0.00000000000E+00  0.00000000000E+00  0.65153079571E+03  0.65153079571E+03  0.00000000000E+00 0.  1.
         21   -1    0    0  501  503 -0.00000000000E+00 -0.00000000000E+00 -0.18486214446E+03  0.18486214446E+03  0.00000000000E+00 0.  1.
          6    2    1    2  501    0 -0.12758858529E+03 -0.72901787212E+02 -0.81385632442E+02  0.24219534072E+03  0.17447476672E+03 0.  0.
         24    2    3    3    0    0 -0.14414491316E+03 -0.58690209003E+02 -0.10982040450E+03  0.20604693536E+03  0.78565397639E+02 0.  0.
         -6    2    1    2    0  502  0.12758858529E+03  0.72901787212E+02  0.54805428369E+03  0.59419759946E+03  0.17639096250E+03 0.  0.
        -24    2    5    5    0    0  0.68727375257E+02  0.21910074497E+02  0.47565664295E+03  0.48776308815E+03  0.80374652131E+02 0.  0.
          5    1    3    3  501    0  0.16556327869E+02 -0.14211578210E+02  0.28434772057E+02  0.36148405354E+02  0.47000000000E+01 0. -1.
        -15    1    4    4    0    0 -0.80417614166E+02 -0.14466470821E+02 -0.14252749111E+02  0.82961256212E+02  0.17770000000E+01 0.  1.
         16    1    4    4    0    0 -0.63727298991E+02 -0.44223738181E+02 -0.95567655388E+02  0.12308567915E+03  0.00000000000E+00 0. -1.
         -5    1    5    5    0  502  0.58861210031E+02  0.50991712716E+02  0.72397640742E+02  0.10643451131E+03  0.47000000000E+01 0.  1.
         15    1    6    6    0    0  0.84675894439E+01 -0.59060011859E+01  0.36201560277E+01  0.11083509357E+02  0.17770000000E+01 0. -1.
        -16    1    6    6    0    0  0.60259785813E+02  0.27816075682E+02  0.47203648693E+03  0.47667957880E+03  0.00000000000E+00 0.  1.
<mgrwt>
<rscale>  2 0.22921256E+03</rscale>
<asrwt>0</asrwt>
<pdfrwt beam="1">  1       21 0.10023551E+00 0.22958068E+03</pdfrwt>
<pdfrwt beam="2">  1       21 0.28440330E-01 0.22958068E+03</pdfrwt>
<totfact> 0.94126834E+03</totfact>
</mgrwt>
</event>
<event>
12    2  0.4097182E-002  0.2076042E+03  0.7546771E-02  0.1143597E+00
         21   -1    0    0  503  502  0.00000000000E+00  0.00000000000E+00  0.31005569524E+03  0.31005569524E+03  0.00000000000E+00 0. -1.
         21   -1    0    0  501  503 -0.00000000000E+00 -0.00000000000E+00 -0.17776057380E+03  0.17776057380E+03  0.00000000000E+00 0. -1.
          6    2    1    2  501    0 -0.99279377456E+02 -0.62304394092E+02 -0.48395785291E+02  0.21259142066E+03  0.17063038356E+03 0.  0.
         24    2    3    3    0    0 -0.10986876920E+02 -0.15781092249E+02  0.25567872826E+02  0.88282547337E+02  0.82282061876E+02 0.  0.
         -6    2    1    2    0  502  0.99279377456E+02  0.62304394092E+02  0.18069090674E+03  0.27522484837E+03  0.17135133812E+03 0.  0.
        -24    2    5    5    0    0  0.62121229362E+02  0.62410806141E+02  0.33976477817E+02  0.12380505790E+03  0.80119507344E+02 0.  0.
          5    1    3    3  501    0 -0.88292500536E+02 -0.46523301843E+02 -0.73963658117E+02  0.12430887332E+03  0.47000000000E+01 0. -1.
        -15    1    4    4    0    0  0.34306162688E+02 -0.16039580224E+02  0.40210988490E+01  0.38124898650E+02  0.17770000000E+01 0.  1.
         16    1    4    4    0    0 -0.45293039609E+02  0.25848797472E+00  0.21546773977E+02  0.50157648687E+02  0.00000000000E+00 0. -1.
         -5    1    5    5    0  502  0.37158148094E+02 -0.10641204886E+00  0.14671442892E+03  0.15141979047E+03  0.47000000000E+01 0.  1.
         15    1    6    6    0    0  0.81290376269E+02  0.45926018976E+02  0.22591150418E+02  0.96077272543E+02  0.17770000000E+01 0. -1.
        -16    1    6    6    0    0 -0.19169146907E+02  0.16484787165E+02  0.11385327399E+02  0.27727785361E+02  0.00000000000E+00 0.  1.
<mgrwt>
<rscale>  2 0.20745540E+03</rscale>
<asrwt>0</asrwt>
<pdfrwt beam="1">  1       21 0.47700876E-01 0.20760422E+03</pdfrwt>
<pdfrwt beam="2">  1       21 0.27347781E-01 0.20760422E+03</pdfrwt>
<totfact> 0.53197529E+04</totfact>
</mgrwt>
</event>
<event>
12    2  0.4097182E-002  0.1911735E+03  0.7546771E-02  0.1158737E+00
         21   -1    0    0  503  502  0.00000000000E+00  0.00000000000E+00  0.14692043940E+03  0.14692043940E+03  0.00000000000E+00 0. -1.
         21   -1    0    0  501  503 -0.00000000000E+00 -0.00000000000E+00 -0.24484334086E+03  0.24484334086E+03  0.00000000000E+00 0. -1.
          6    2    1    2  501    0 -0.78310738874E+02 -0.13884646979E+02 -0.24332565206E+02  0.18691540937E+03  0.16739158069E+03 0.  0.
         24    2    3    3    0    0  0.18837336252E+02  0.13887754098E+02 -0.29419630682E+02  0.85638447541E+02  0.76946176493E+02 0.  0.
         -6    2    1    2    0  502  0.78310738874E+02  0.13884646979E+02 -0.73590336250E+02  0.20484837089E+03  0.17384464968E+03 0.  0.
        -24    2    5    5    0    0 -0.23640360764E+01  0.51300561538E+02 -0.11240147118E+02  0.96137717964E+02  0.80490891580E+02 0.  0.
          5    1    3    3  501    0 -0.97148075126E+02 -0.27772401077E+02  0.50870654764E+01  0.10127696183E+03  0.47000000000E+01 0. -1.
        -15    1    4    4    0    0 -0.88420910157E+01  0.52921772291E+01 -0.49361721309E+02  0.50457179598E+02  0.17770000000E+01 0.  1.
         16    1    4    4    0    0  0.27679427268E+02  0.85955768687E+01  0.19942090627E+02  0.35181267944E+02  0.00000000000E+00 0. -1.
         -5    1    5    5    0  502  0.80674774950E+02 -0.37415914559E+02 -0.62350189132E+02  0.10871065293E+03  0.47000000000E+01 0.  1.
         15    1    6    6    0    0  0.32165779747E+02  0.40300974819E+02 -0.25052859802E+02  0.57355117220E+02  0.17770000000E+01 0. -1.
        -16    1    6    6    0    0 -0.34529815823E+02  0.10999586719E+02  0.13812712684E+02  0.38782600744E+02  0.00000000000E+00 0.  1.
<mgrwt>
<rscale>  2 0.18969427E+03</rscale>
<asrwt>0</asrwt>
<pdfrwt beam="1">  1       21 0.22603145E-01 0.19117353E+03</pdfrwt>
<pdfrwt beam="2">  1       21 0.37668206E-01 0.19117353E+03</pdfrwt>
<totfact> 0.12474357E+05</totfact>
</mgrwt>
</event>
<event>
12    2  0.4097182E-002  0.1885169E+03  0.7546771E-02  0.1160029E+00
         21   -1    0    0  503  502  0.00000000000E+00  0.00000000000E+00  0.25296241028E+03  0.25296241028E+03  0.00000000000E+00 0. -1.
         21   -1    0    0  501  503 -0.00000000000E+00 -0.00000000000E+00 -0.16379381816E+03  0.16379381816E+03  0.00000000000E+00 0.  1.
          6    2    1    2  501    0 -0.37028935323E+02  0.61819104854E+02 -0.35132187045E+02  0.19176261243E+03  0.17420070374E+03 0.  0.
         24    2    3    3    0    0  0.12311303215E+02  0.62306999032E+00 -0.63746663475E+02  0.10797542914E+03  0.86273401414E+02 0.  0.
         -6    2    1    2    0  502  0.37028935323E+02 -0.61819104854E+02  0.12430077916E+03  0.22499361601E+03  0.17314358137E+03 0.  0.
        -24    2    5    5    0    0  0.40281470199E+02 -0.41456838254E+02  0.15595315413E+03  0.18692573288E+03  0.85314577014E+02 0.  0.
          5    1    3    3  501    0 -0.49340238538E+02  0.61196034864E+02  0.28614476429E+02  0.83787183288E+02  0.47000000000E+01 0. -1.
        -15    1    4    4    0    0 -0.14896589777E+02  0.28772146280E+02 -0.60549650294E+02  0.68696161962E+02  0.17770000000E+01 0.  1.
         16    1    4    4    0    0  0.27207892993E+02 -0.28149076290E+02 -0.31970131808E+01  0.39279267182E+02  0.00000000000E+00 0. -1.
         -5    1    5    5    0  502 -0.32525348755E+01 -0.20362266600E+02 -0.31652374972E+02  0.38067883124E+02  0.47000000000E+01 0.  1.
         15    1    6    6    0    0  0.60448585875E+02 -0.51347162553E+02  0.13262468628E+03  0.15454134650E+03  0.17770000000E+01 0. -1.
        -16    1    6    6    0    0 -0.20167115677E+02  0.98903242990E+01  0.23328467848E+02  0.32384386386E+02  0.00000000000E+00 0.  1.
<mgrwt>
<rscale>  2 0.18827234E+03</rscale>
<asrwt>0</asrwt>
<pdfrwt beam="1">  1       21 0.38917294E-01 0.18851692E+03</pdfrwt>
<pdfrwt beam="2">  1       21 0.25199049E-01 0.18851692E+03</pdfrwt>
<totfact> 0.95128471E+04</totfact>
</mgrwt>
</event>
<event>
12    2  0.4097182E-002  0.1822230E+03  0.7546771E-02  0.1166570E+00
         21   -1    0    0  503  502  0.00000000000E+00  0.00000000000E+00  0.10511908885E+04  0.10511908885E+04  0.00000000000E+00 0. -1.
         21   -1    0    0  501  503 -0.00000000000E+00 -0.00000000000E+00 -0.41434233067E+02  0.41434233067E+02  0.00000000000E+00 0. -1.
          6    2    1    2  501    0  0.16995543582E+01 -0.40770013353E+02  0.22607009754E+03  0.28803215249E+03  0.17375197666E+03 0.  0.
         24    2    3    3    0    0  0.37285478440E+02 -0.81357403914E+00  0.45277815405E+02  0.99429887621E+02  0.80282956966E+02 0.  0.
         -6    2    1    2    0  502 -0.16995543582E+01  0.40770013353E+02  0.78368655792E+03  0.80459296910E+03  0.17759544585E+03 0.  0.
        -24    2    5    5    0    0 -0.31505186190E+02 -0.32504782224E+02  0.27237922584E+03  0.28718128660E+03  0.78952587520E+02 0.  0.
          5    1    3    3  501    0 -0.35585924082E+02 -0.39956439314E+02  0.18079228213E+03  0.18860226487E+03  0.47000000000E+01 0. -1.
        -15    1    4    4    0    0  0.22531517557E+02 -0.26260439773E+02 -0.10642668891E+02  0.36245056361E+02  0.17770000000E+01 0.  1.
         16    1    4    4    0    0  0.14753960883E+02  0.25446865734E+02  0.55920484296E+02  0.63184831260E+02  0.00000000000E+00 0. -1.
         -5    1    5    5    0  502  0.29805631832E+02  0.73274795577E+02  0.51130733208E+03  0.51741168250E+03  0.47000000000E+01 0.  1.
         15    1    6    6    0    0 -0.56276613607E+01  0.88907636690E+01  0.21492363268E+00  0.10673339317E+02  0.17770000000E+01 0. -1.
        -16    1    6    6    0    0 -0.25877524830E+02 -0.41395545893E+02  0.27216430221E+03  0.27650794728E+03  0.00000000000E+00 0.  1.
<mgrwt>
<rscale>  2 0.18127976E+03</rscale>
<asrwt>0</asrwt>
<pdfrwt beam="1">  1       21 0.16172165E+00 0.18222301E+03</pdfrwt>
<pdfrwt beam="2">  1       21 0.63744982E-02 0.18222301E+03</pdfrwt>
<totfact> 0.43730552E+04</totfact>
</mgrwt>
</event>
<event>
12    2  0.4097182E-002  0.1925814E+03  0.7546771E-02  0.1157826E+00
         21   -1    0    0  503  502  0.00000000000E+00  0.00000000000E+00  0.15428302643E+03  0.15428302643E+03  0.00000000000E+00 0.  1.
         21   -1    0    0  501  503 -0.00000000000E+00 -0.00000000000E+00 -0.24064478847E+03  0.24064478847E+03  0.00000000000E+00 0.  1.
          6    2    1    2  501    0 -0.64453100252E+02 -0.62838486583E+01 -0.81381273785E+02  0.20228199654E+03  0.17349756631E+03 0.  0.
         24    2    3    3    0    0 -0.37732296022E+02  0.82882969675E+01  0.24921294388E+02  0.91608265206E+02  0.79237499395E+02 0.  0.
         -6    2    1    2    0  502  0.64453100252E+02  0.62838486583E+01 -0.49804882586E+01  0.19264581837E+03  0.18136680287E+03 0.  0.
        -24    2    5    5    0    0  0.92337379625E+02  0.40285760774E+02 -0.37101616690E+02  0.13798760805E+03  0.86688614109E+02 0.  0.
          5    1    3    3  501    0 -0.26720804230E+02 -0.14572145626E+02 -0.10630256817E+03  0.11067373133E+03  0.47000000000E+01 0. -1.
        -15    1    4    4    0    0 -0.61870709358E+02  0.91800569581E+01  0.10420496476E+02  0.63435026586E+02  0.17770000000E+01 0.  1.
         16    1    4    4    0    0  0.24138413336E+02 -0.89175999059E+00  0.14500797912E+02  0.28173238620E+02  0.00000000000E+00 0. -1.
         -5    1    5    5    0  502 -0.27884279373E+02 -0.34001912116E+02  0.32121128432E+02  0.54658210320E+02  0.47000000000E+01 0.  1.
         15    1    6    6    0    0  0.45558807462E+01  0.43334533699E+02 -0.22070226630E+02  0.48876277404E+02  0.17770000000E+01 0. -1.
        -16    1    6    6    0    0  0.87781498879E+02 -0.30487729251E+01 -0.15031390060E+02  0.89111330643E+02  0.00000000000E+00 0.  1.
<mgrwt>
<rscale>  2 0.19070619E+03</rscale>
<asrwt>0</asrwt>
<pdfrwt beam="1">  1       21 0.23735850E-01 0.19258143E+03</pdfrwt>
<pdfrwt beam="2">  1       21 0.37022275E-01 0.19258143E+03</pdfrwt>
<totfact> 0.11765689E+05</totfact>
</mgrwt>
</event>
<event>
12    2  0.4097182E-002  0.2094536E+03  0.7546771E-02  0.1142216E+00
         21   -1    0    0  503  502  0.00000000000E+00  0.00000000000E+00  0.52412019267E+03  0.52412019267E+03  0.00000000000E+00 0.  1.
         21   -1    0    0  501  503 -0.00000000000E+00 -0.00000000000E+00 -0.83498491633E+02  0.83498491633E+02  0.00000000000E+00 0.  1.
          6    2    1    2  501    0 -0.11846236076E+03  0.82784971604E+01  0.20494827316E+03  0.29304371054E+03  0.17253682849E+03 0.  0.
         24    2    3    3    0    0 -0.13375113104E+03 -0.64604729352E+01  0.21374105935E+03  0.26958338605E+03  0.95178037487E+02 0.  0.
         -6    2    1    2    0  502  0.11846236076E+03 -0.82784971604E+01  0.23567342788E+03  0.31457497376E+03  0.17121210553E+03 0.  0.
        -24    2    5    5    0    0  0.11177068991E+02 -0.46724806275E+02  0.11489354940E+03  0.14844815004E+03  0.80797222506E+02 0.  0.
          5    1    3    3  501    0  0.15288770282E+02  0.14738970096E+02 -0.87927861868E+01  0.23460324489E+02  0.47000000000E+01 0. -1.
        -15    1    4    4    0    0  0.68367192412E+01 -0.19603903708E+02  0.44767003796E+02  0.49379106193E+02  0.17770000000E+01 0.  1.
         16    1    4    4    0    0 -0.14058785028E+03  0.13143430773E+02  0.16897405555E+03  0.22020427986E+03  0.00000000000E+00 0. -1.
         -5    1    5    5    0  502  0.10728529177E+03  0.38446309115E+02  0.12077987848E+03  0.16612682372E+03  0.47000000000E+01 0.  1.
         15    1    6    6    0    0  0.29039058161E+02 -0.28308866037E+02  0.11891671237E+02  0.42299271495E+02  0.17770000000E+01 0. -1.
        -16    1    6    6    0    0 -0.17861989170E+02 -0.18415940238E+02  0.10300187816E+03  0.10614887855E+03  0.00000000000E+00 0.  1.
<mgrwt>
<rscale>  2 0.20918062E+03</rscale>
<asrwt>0</asrwt>
<pdfrwt beam="1">  1       21 0.80633874E-01 0.20945363E+03</pdfrwt>
<pdfrwt beam="2">  1       21 0.12845922E-01 0.20945363E+03</pdfrwt>
<totfact> 0.69626024E+04</totfact>
</mgrwt>
</event>
<event>
12    2  0.4097182E-002  0.2041103E+03  0.7546771E-02  0.1146426E+00
         21   -1    0    0  503  502  0.00000000000E+00  0.00000000000E+00  0.37372332294E+03  0.37372332294E+03  0.00000000000E+00 0.  1.
         21   -1    0    0  501  503 -0.00000000000E+00 -0.00000000000E+00 -0.16855340395E+03  0.16855340395E+03  0.00000000000E+00 0.  1.
          6    2    1    2  501    0 -0.13610088236E+02  0.10709294283E+03 -0.55507824229E+02  0.21152339508E+03  0.17322498438E+03 0.  0.
         24    2    3    3    0    0 -0.55052261102E+02  0.22958317226E+02  0.40695189322E+01  0.10031350913E+03  0.80550625984E+02 0.  0.
         -6    2    1    2    0  502  0.13610088236E+02 -0.10709294283E+03  0.26067774322E+03  0.33075333181E+03  0.17259996463E+03 0.  0.
        -24    2    5    5    0    0 -0.32633160022E+02 -0.10338307778E+01  0.12709611669E+03  0.15396782843E+03  0.80539911700E+02 0.  0.
          5    1    3    3  501    0  0.41442172865E+02  0.84134625601E+02 -0.59577343161E+02  0.11120988596E+03  0.47000000000E+01 0. -1.
        -15    1    4    4    0    0 -0.42099951199E+02  0.27748859492E+02 -0.33314676842E+02  0.60460156435E+02  0.17770000000E+01 0.  1.
         16    1    4    4    0    0 -0.12952309902E+02 -0.47905422658E+01  0.37384195774E+02  0.39853352690E+02  0.00000000000E+00 0. -1.
         -5    1    5    5    0  502  0.46243248258E+02 -0.10605911205E+03  0.13358162653E+03  0.17678550338E+03  0.47000000000E+01 0.  1.
         15    1    6    6    0    0 -0.37799133035E+02  0.20270869052E+02  0.12473930629E+03  0.13191942560E+03  0.17770000000E+01 0. -1.
        -16    1    6    6    0    0  0.51659730127E+01 -0.21304699830E+02  0.23568104003E+01  0.22048402828E+02  0.00000000000E+00 0.  1.
<mgrwt>
<rscale>  2 0.20397766E+03</rscale>
<asrwt>0</asrwt>
<pdfrwt beam="1">  1       21 0.57495896E-01 0.20411033E+03</pdfrwt>
<pdfrwt beam="2">  1       21 0.25931293E-01 0.20411033E+03</pdfrwt>
<totfact> 0.39854736E+04</totfact>
</mgrwt>
</event>
<event>
12    2  0.4097182E-002  0.1761009E+03  0.7546771E-02  0.1172053E+00
         21   -1    0    0  501  502  0.00000000000E+00  0.00000000000E+00  0.32776610368E+03  0.32776610368E+03  0.00000000000E+00 0.  1.
         21   -1    0    0  502  503 -0.00000000000E+00 -0.00000000000E+00 -0.14290773078E+03  0.14290773078E+03  0.00000000000E+00 0.  1.
         -6    2    1    2    0  503 -0.24264759338E+02 -0.13053915271E+02 -0.45358628143E+02  0.18184862855E+03  0.17393198472E+03 0.  0.
        -24    2    3    3    0    0 -0.60511943826E+01 -0.37956798187E+02 -0.89395656346E+02  0.12787421444E+03  0.82963219938E+02 0.  0.
          6    2    1    2  501    0  0.24264759338E+02  0.13053915271E+02  0.23021700104E+03  0.28882520591E+03  0.17222354296E+03 0.  0.
         24    2    5    5    0    0  0.10260799270E+02  0.72469651310E+02  0.16738479127E+03  0.20109654940E+03  0.84053670188E+02 0.  0.
          5    1    5    5  501    0  0.14003960067E+02 -0.59415736039E+02  0.62832209774E+02  0.87728656502E+02  0.47000000000E+01 0. -1.
        -15    1    6    6    0    0 -0.22282847970E+02  0.25451571976E+02  0.12609422288E+03  0.13056499762E+03  0.17770000000E+01 0.  1.
         16    1    6    6    0    0  0.32543647240E+02  0.47018079333E+02  0.41290568386E+02  0.70531551787E+02  0.00000000000E+00 0. -1.
         -5    1    3    3    0  503 -0.18213564955E+02  0.24902882916E+02  0.44037028203E+02  0.53974414113E+02  0.47000000000E+01 0.  1.
         15    1    4    4    0    0 -0.24843526149E+02 -0.36933388872E+02 -0.91834881139E+01  0.45483735423E+02  0.17770000000E+01 0. -1.
        -16    1    4    4    0    0  0.18792331767E+02 -0.10234093155E+01 -0.80212168232E+02  0.82390479015E+02  0.00000000000E+00 0.  1.
<mgrwt>
<rscale>  2 0.17567755E+03</rscale>
<asrwt>0</asrwt>
<pdfrwt beam="1">  1       21 0.50425554E-01 0.17610088E+03</pdfrwt>
<pdfrwt beam="2">  1       21 0.21985805E-01 0.17610088E+03</pdfrwt>
<totfact> 0.72861879E+04</totfact>
</mgrwt>
</event>
<event>
12    2  0.4097182E-002  0.2256520E+03  0.7546771E-02  0.1129858E+00
         21   -1    0    0  501  502  0.00000000000E+00  0.00000000000E+00  0.16276767798E+03  0.16276767798E+03  0.00000000000E+00 0.  1.
         21   -1    0    0  502  503 -0.00000000000E+00 -0.00000000000E+00 -0.31191247019E+03  0.31191247019E+03  0.00000000000E+00 0.  1.
         -6    2    1    2    0  503  0.74904333604E+02  0.12318830955E+03 -0.75302165081E+02  0.23788493089E+03  0.17358803379E+03 0.  0.
        -24    2    3    3    0    0  0.52834879782E+02  0.13146306896E+03 -0.11069580593E+03  0.19510254844E+03  0.75745494475E+02 0.  0.
          6    2    1    2  501    0 -0.74904333604E+02 -0.12318830955E+03 -0.73842627125E+02  0.23679521729E+03  0.17272296474E+03 0.  0.
         24    2    5    5    0    0 -0.66984723966E+02 -0.15174620205E+03 -0.35295452592E+02  0.18794597875E+03  0.81018879742E+02 0.  0.
          5    1    5    5  501    0 -0.79196096377E+01  0.28557892502E+02 -0.38547174533E+02  0.48849238535E+02  0.47000000000E+01 0. -1.
        -15    1    6    6    0    0 -0.30243646093E+02 -0.86026003786E+02 -0.59454190507E+02  0.10887198884E+03  0.17770000000E+01 0.  1.
         16    1    6    6    0    0 -0.36741077873E+02 -0.65720198261E+02  0.24158737914E+02  0.79073989910E+02  0.00000000000E+00 0. -1.
         -5    1    3    3    0  503  0.22069453822E+02 -0.82747594186E+01  0.35393640849E+02  0.42782382448E+02  0.47000000000E+01 0.  1.
         15    1    4    4    0    0 -0.15527787504E+02  0.55145117427E+01 -0.59979558609E+01  0.17625414266E+02  0.17770000000E+01 0. -1.
        -16    1    4    4    0    0  0.68362667286E+02  0.12594855722E+03 -0.10469785007E+03  0.17747713417E+03  0.00000000000E+00 0.  1.
<mgrwt>
<rscale>  2 0.22548562E+03</rscale>
<asrwt>0</asrwt>
<pdfrwt beam="1">  1       21 0.25041181E-01 0.22565200E+03</pdfrwt>
<pdfrwt beam="2">  1       21 0.47986534E-01 0.22565200E+03</pdfrwt>
<totfact> 0.61754561E+04</totfact>
</mgrwt>
</event>
<event>
12    2  0.4097182E-002  0.2051924E+03  0.7546771E-02  0.1145690E+00
         21   -1    0    0  501  502  0.00000000000E+00  0.00000000000E+00  0.23092543808E+03  0.23092543808E+03  0.00000000000E+00 0. -1.
         21   -1    0    0  502  503 -0.00000000000E+00 -0.00000000000E+00 -0.21152789155E+03  0.21152789155E+03  0.00000000000E+00 0. -1.
         -6    2    1    2    0  503 -0.42056191598E+02 -0.10211869442E+03  0.93438218260E+02  0.22431129767E+03  0.17142901338E+03 0.  0.
        -24    2    3    3    0    0 -0.18094065096E+02 -0.38885080796E+02 -0.15676236122E+02  0.95856139915E+02  0.84280546274E+02 0.  0.
          6    2    1    2  501    0  0.42056191598E+02  0.10211869442E+03 -0.74040671733E+02  0.21814203195E+03  0.17293632942E+03 0.  0.
         24    2    5    5    0    0  0.57422696578E+01  0.83044422929E+02  0.17965350214E+02  0.11729696845E+03  0.80662724710E+02 0.  0.
          5    1    5    5  501    0  0.36313921940E+02  0.19074271490E+02 -0.92006021947E+02  0.10084506351E+03  0.47000000000E+01 0. -1.
        -15    1    6    6    0    0 -0.27454370289E+02  0.68958156251E+01  0.19143156892E+02  0.34218604675E+02  0.17770000000E+01 0.  1.
         16    1    6    6    0    0  0.33196639947E+02  0.76148607304E+02 -0.11778066782E+01  0.83078363770E+02  0.00000000000E+00 0. -1.
         -5    1    3    3    0  503 -0.23962126502E+02 -0.63233613623E+02  0.10911445438E+03  0.12845515775E+03  0.47000000000E+01 0.  1.
         15    1    4    4    0    0 -0.27745846252E+02 -0.24014609608E+02  0.29634584916E+02  0.47200633587E+02  0.17770000000E+01 0. -1.
        -16    1    4    4    0    0  0.96517811563E+01 -0.14870471188E+02 -0.45310821039E+02  0.48655506328E+02  0.00000000000E+00 0.  1.
<mgrwt>
<rscale>  2 0.20487448E+03</rscale>
<asrwt>0</asrwt>
<pdfrwt beam="1">  1       21 0.35526990E-01 0.20519241E+03</pdfrwt>
<pdfrwt beam="2">  1       21 0.32542753E-01 0.20519241E+03</pdfrwt>
<totfact> 0.69028224E+04</totfact>
</mgrwt>
</event>
<event>
12    2  0.4097182E-002  0.2953947E+03  0.7546771E-02  0.1087749E+00
         21   -1    0    0  501  502  0.00000000000E+00  0.00000000000E+00  0.24594577979E+03  0.24594577979E+03  0.00000000000E+00 0.  1.
         21   -1    0    0  502  503 -0.00000000000E+00 -0.00000000000E+00 -0.62852048924E+03  0.62852048924E+03  0.00000000000E+00 0. -1.
         -6    2    1    2    0  503  0.14892000794E+03 -0.18690576582E+03 -0.48100174510E+03  0.56446498985E+03  0.17362923692E+03 0.  0.
        -24    2    3    3    0    0  0.19580419078E+02 -0.10133271595E+03 -0.29022351870E+03  0.31855871140E+03  0.81229610796E+02 0.  0.
          6    2    1    2  501    0 -0.14892000794E+03  0.18690576582E+03  0.98427035648E+02  0.31000127918E+03  0.17117820447E+03 0.  0.
         24    2    5    5    0    0 -0.13959088947E+02  0.11459014532E+03  0.34680266891E+02  0.14408039698E+03  0.78934671172E+02 0.  0.
          5    1    5    5  501    0 -0.13496091899E+03  0.72315620499E+02  0.63746768757E+02  0.16592088220E+03  0.47000000000E+01 0. -1.
        -15    1    6    6    0    0 -0.24114665066E+02  0.35829742715E+02  0.46845850564E+02  0.63741501224E+02  0.17770000000E+01 0.  1.
         16    1    6    6    0    0  0.10155576119E+02  0.78760402607E+02 -0.12165583672E+02  0.80338895756E+02  0.00000000000E+00 0. -1.
         -5    1    3    3    0  503  0.12933958886E+03 -0.85573049871E+02 -0.19077822640E+03  0.24590627844E+03  0.47000000000E+01 0.  1.
         15    1    4    4    0    0 -0.83433124099E+01  0.35841157773E+01 -0.92727553329E+02  0.93188055153E+02  0.17770000000E+01 0. -1.
        -16    1    4    4    0    0  0.27923731488E+02 -0.10491683173E+03 -0.19749596537E+03  0.22537065625E+03  0.00000000000E+00 0.  1.
<mgrwt>
<rscale>  2 0.29503558E+03</rscale>
<asrwt>0</asrwt>
<pdfrwt beam="1">  1       21 0.37837812E-01 0.29539473E+03</pdfrwt>
<pdfrwt beam="2">  1       21 0.96695460E-01 0.29539473E+03</pdfrwt>
<totfact> 0.56076665E+03</totfact>
</mgrwt>
</event>
<event>
12    2  0.4097182E-002  0.1753410E+03  0.7546771E-02  0.1172439E+00
         21   -1    0    0  503  502  0.00000000000E+00  0.00000000000E+00  0.45627194956E+03  0.45627194956E+03  0.00000000000E+00 0. -1.
         21   -1    0    0  501  503 -0.00000000000E+00 -0.00000000000E+00 -0.10029378982E+03  0.10029378982E+03  0.00000000000E+00 0. -1.
          6    2    1    2  501    0  0.29676029287E+02 -0.68013838259E+01  0.18458974391E+02  0.17630999425E+03  0.17267760365E+03 0.  0.
         24    2    3    3    0    0  0.95849211508E+01 -0.46595025968E+02  0.40224576424E+02  0.12648010349E+03  0.11007376105E+03 0.  0.
         -6    2    1    2    0  502 -0.29676029287E+02  0.68013838259E+01  0.33751918535E+03  0.38025574513E+03  0.17247697147E+03 0.  0.
        -24    2    5    5    0    0 -0.80421459136E+02  0.30575357821E+02  0.24264335992E+03  0.26996606863E+03  0.81261396157E+02 0.  0.
          5    1    3    3  501    0  0.20091108136E+02  0.39793642142E+02 -0.21765602034E+02  0.49829890758E+02  0.47000000000E+01 0. -1.
        -15    1    4    4    0    0 -0.17799260136E+02 -0.63894828300E+01 -0.33290182920E+02  0.38327968379E+02  0.17770000000E+01 0.  1.
         16    1    4    4    0    0  0.27384181286E+02 -0.40205543138E+02  0.73514759344E+02  0.88152135114E+02  0.00000000000E+00 0. -1.
         -5    1    5    5    0  502  0.50745429849E+02 -0.23773973995E+02  0.94875825429E+02  0.11028967649E+03  0.47000000000E+01 0.  1.
         15    1    6    6    0    0  0.27373811080E+01 -0.16099778538E+02  0.77897060884E+02  0.79610338196E+02  0.17770000000E+01 0. -1.
        -16    1    6    6    0    0 -0.83158840244E+02  0.46675136359E+02  0.16474629904E+03  0.19035573044E+03  0.00000000000E+00 0.  1.
<mgrwt>
<rscale>  2 0.17529162E+03</rscale>
<asrwt>0</asrwt>
<pdfrwt beam="1">  1       21 0.70195683E-01 0.17534104E+03</pdfrwt>
<pdfrwt beam="2">  1       21 0.15429814E-01 0.17534104E+03</pdfrwt>
<totfact> 0.69139068E+04</totfact>
</mgrwt>
</event>
<event>
12    2  0.4097182E-002  0.2156112E+03  0.7546771E-02  0.1137303E+00
         21   -1    0    0  503  502  0.00000000000E+00  0.00000000000E+00  0.12885754727E+04  0.12885754727E+04  0.00000000000E+00 0. -1.
         21   -1    0    0  501  503 -0.00000000000E+00 -0.00000000000E+00 -0.42787498168E+02  0.42787498168E+02  0.00000000000E+00 0. -1.
          6    2    1    2  501    0 -0.80829170320E+02 -0.99636149511E+02  0.35681674316E+03  0.41661817496E+03  0.17260300820E+03 0.  0.
         24    2    3    3    0    0 -0.87803190517E+02 -0.30541606814E+02  0.32169791803E+03  0.33865591058E+03  0.50557742172E+02 0.  0.
         -6    2    1    2    0  502  0.80829170320E+02  0.99636149511E+02  0.88897123133E+03  0.91474479587E+03  0.17328437430E+03 0.  0.
        -24    2    5    5    0    0  0.89892035600E+02  0.36698853399E+02  0.34973893095E+03  0.37175602754E+03  0.80360688645E+02 0.  0.
          5    1    3    3  501    0  0.69740201964E+01 -0.69094542698E+02  0.35118825132E+02  0.77962264378E+02  0.47000000000E+01 0. -1.
        -15    1    4    4    0    0 -0.11634014280E+02 -0.85075860362E+00  0.12623894566E+03  0.12678920778E+03  0.17770000000E+01 0.  1.
         16    1    4    4    0    0 -0.76169176237E+02 -0.29690848210E+02  0.19545897237E+03  0.21186670280E+03  0.00000000000E+00 0. -1.
         -5    1    5    5    0  502 -0.90628652795E+01  0.62937296113E+02  0.53923230037E+03  0.54298876833E+03  0.47000000000E+01 0.  1.
         15    1    6    6    0    0  0.71225831932E+02  0.61233564281E+02  0.23884925028E+03  0.25666084746E+03  0.17770000000E+01 0. -1.
        -16    1    6    6    0    0  0.18666203668E+02 -0.24534710883E+02  0.11088968067E+03  0.11509518008E+03  0.00000000000E+00 0.  1.
<mgrwt>
<rscale>  2 0.21547427E+03</rscale>
<asrwt>0</asrwt>
<pdfrwt beam="1">  1       21 0.19824235E+00 0.21561120E+03</pdfrwt>
<pdfrwt beam="2">  1       21 0.65826930E-02 0.21561120E+03</pdfrwt>
<totfact> 0.22795847E+04</totfact>
</mgrwt>
</event>
<event>
12    2  0.4097182E-002  0.2180831E+03  0.7546771E-02  0.1135511E+00
         21   -1    0    0  501  502  0.00000000000E+00  0.00000000000E+00  0.46597021957E+03  0.46597021957E+03  0.00000000000E+00 0.  1.
         21   -1    0    0  502  503 -0.00000000000E+00 -0.00000000000E+00 -0.16053756309E+03  0.16053756309E+03  0.00000000000E+00 0.  1.
         -6    2    1    2    0  503 -0.12945536566E+03 -0.29592965641E+02 -0.37318603991E+02  0.22025829327E+03  0.17171663355E+03 0.  0.
        -24    2    3    3    0    0 -0.81563957268E+02  0.36750997049E+02  0.17881344316E+02  0.12144416130E+03  0.80160008300E+02 0.  0.
          6    2    1    2  501    0  0.12945536566E+03  0.29592965641E+02  0.34275126046E+03  0.40624948939E+03  0.17299071004E+03 0.  0.
         24    2    5    5    0    0  0.15271039930E+03  0.63728022396E+00  0.23068043372E+03  0.28809201601E+03  0.80390764446E+02 0.  0.
          5    1    5    5  501    0 -0.23255033632E+02  0.28955685417E+02  0.11207082674E+03  0.11815747337E+03  0.47000000000E+01 0. -1.
        -15    1    6    6    0    0  0.10124318788E+03  0.38778708614E+02  0.14050593451E+03  0.17747970784E+03  0.17770000000E+01 0.  1.
         16    1    6    6    0    0  0.51467211413E+02 -0.38141428390E+02  0.90174499213E+02  0.11061230817E+03  0.00000000000E+00 0. -1.
         -5    1    3    3    0  503 -0.47891408396E+02 -0.66343962690E+02 -0.55199948306E+02  0.98814131968E+02  0.47000000000E+01 0.  1.
         15    1    4    4    0    0 -0.57967901403E+01  0.42236140968E+01  0.36227680060E+02  0.36973561142E+02  0.17770000000E+01 0. -1.
        -16    1    4    4    0    0 -0.75767167128E+02  0.32527382952E+02 -0.18346335745E+02  0.84470600161E+02  0.00000000000E+00 0.  1.
<mgrwt>
<rscale>  2 0.21783031E+03</rscale>
<asrwt>0</asrwt>
<pdfrwt beam="1">  1       21 0.71687725E-01 0.21808306E+03</pdfrwt>
<pdfrwt beam="2">  1       21 0.24698087E-01 0.21808306E+03</pdfrwt>
<totfact> 0.26868920E+04</totfact>
</mgrwt>
</event>
<event>
12    2  0.4097182E-002  0.2757930E+03  0.7546771E-02  0.1098126E+00
         21   -1    0    0  503  502  0.00000000000E+00  0.00000000000E+00  0.13635786544E+03  0.13635786544E+03  0.00000000000E+00 0. -1.
         21   -1    0    0  501  503 -0.00000000000E+00 -0.00000000000E+00 -0.56228169863E+03  0.56228169863E+03  0.00000000000E+00 0.  1.
          6    2    1    2  501    0 -0.18397002044E+03  0.10754966090E+03 -0.24922500627E+03  0.37109681835E+03  0.17374650171E+03 0.  0.
         24    2    3    3    0    0 -0.12400814030E+03  0.59975404256E+02 -0.24549493236E+03  0.29431960548E+03  0.85913912600E+02 0.  0.
         -6    2    1    2    0  502  0.18397002044E+03 -0.10754966090E+03 -0.17669882692E+03  0.32754274572E+03  0.17507106231E+03 0.  0.
        -24    2    5    5    0    0  0.69754343722E+02  0.16150363813E+02 -0.64468897615E+02  0.12514570040E+03  0.79866794415E+02 0.  0.
          5    1    3    3  501    0 -0.59961880142E+02  0.47574256643E+02 -0.37300739138E+01  0.76777212874E+02  0.47000000000E+01 0. -1.
        -15    1    4    4    0    0  0.13183568609E+02  0.23796356645E+01 -0.18665243462E+02  0.23043831922E+02  0.17770000000E+01 0.  1.
         16    1    4    4    0    0 -0.13719170891E+03  0.57595768592E+02 -0.22682968890E+03  0.27127577355E+03  0.00000000000E+00 0. -1.
         -5    1    5    5    0  502  0.11421567672E+03 -0.12370002471E+03 -0.11222992931E+03  0.20239704532E+03  0.47000000000E+01 0.  1.
         15    1    6    6    0    0  0.15828030045E+02 -0.14768851210E+02  0.13389656440E+02  0.25516389435E+02  0.17770000000E+01 0. -1.
        -16    1    6    6    0    0  0.53926313677E+02  0.30919215023E+02 -0.77858554055E+02  0.99629310968E+02  0.00000000000E+00 0.  1.
<mgrwt>
<rscale>  2 0.27558302E+03</rscale>
<asrwt>0</asrwt>
<pdfrwt beam="1">  1       21 0.20978133E-01 0.27579299E+03</pdfrwt>
<pdfrwt beam="2">  1       21 0.86504876E-01 0.27579299E+03</pdfrwt>
<totfact> 0.23284965E+04</totfact>
</mgrwt>
</event>
<event>
12    2  0.4097182E-002  0.2035134E+03  0.7546771E-02  0.1147814E+00
         21   -1    0    0  503  502  0.00000000000E+00  0.00000000000E+00  0.46539376056E+02  0.46539376056E+02  0.00000000000E+00 0.  1.
         21   -1    0    0  501  503 -0.00000000000E+00 -0.00000000000E+00 -0.16995419234E+04  0.16995419234E+04  0.00000000000E+00 0. -1.
          6    2    1    2  501    0 -0.62720758268E+02 -0.76859576728E+02 -0.14317211466E+04  0.14454433597E+04  0.17216206418E+03 0.  0.
         24    2    3    3    0    0 -0.53390353104E+02 -0.12005625206E+03 -0.10991961491E+04  0.11099616565E+04  0.80738288154E+02 0.  0.
         -6    2    1    2    0  502  0.62720758268E+02  0.76859576728E+02 -0.22128140079E+03  0.30063793982E+03  0.17769756463E+03 0.  0.
        -24    2    5    5    0    0  0.92653622833E+02  0.90791500496E+02 -0.12268646147E+03  0.19655563134E+03  0.82184901275E+02 0.  0.
          5    1    3    3  501    0 -0.93304051636E+01  0.43196675334E+02 -0.33252499744E+03  0.33548170314E+03  0.47000000000E+01 0. -1.
        -15    1    4    4    0    0  0.28685830472E+01 -0.67238718279E+02 -0.32315377475E+03  0.33009209907E+03  0.17770000000E+01 0.  1.
         16    1    4    4    0    0 -0.56258936152E+02 -0.52817533783E+02 -0.77604237440E+03  0.77986955745E+03  0.00000000000E+00 0. -1.
         -5    1    5    5    0  502 -0.29932864565E+02 -0.13931923768E+02 -0.98594939312E+02  0.10408230848E+03  0.47000000000E+01 0.  1.
         15    1    6    6    0    0  0.74154837966E+02  0.69259851843E+02 -0.39914612478E+02  0.10905136904E+03  0.17770000000E+01 0. -1.
        -16    1    6    6    0    0  0.18498784867E+02  0.21531648653E+02 -0.82771848995E+02  0.87504262303E+02  0.00000000000E+00 0.  1.
<mgrwt>
<rscale>  2 0.20229884E+03</rscale>
<asrwt>0</asrwt>
<pdfrwt beam="1">  1       21 0.71599048E-02 0.20351342E+03</pdfrwt>
<pdfrwt beam="2">  1       21 0.26146796E+00 0.20351342E+03</pdfrwt>
<totfact> 0.82000744E+03</totfact>
</mgrwt>
</event>
<event>
12    2  0.4097182E-002  0.1973328E+03  0.7546771E-02  0.1153826E+00
         21   -1    0    0  501  502  0.00000000000E+00  0.00000000000E+00  0.64476457887E+03  0.64476457887E+03  0.00000000000E+00 0.  1.
         21   -1    0    0  502  503 -0.00000000000E+00 -0.00000000000E+00 -0.58092586419E+02  0.58092586419E+02  0.00000000000E+00 0. -1.
         -6    2    1    2    0  503  0.94437164030E+02  0.27840542249E+01  0.32036820172E+03  0.37626586859E+03  0.17324575112E+03 0.  0.
        -24    2    3    3    0    0  0.72591741344E+02 -0.63119647190E+02  0.18632424720E+03  0.22523477213E+03  0.82221205960E+02 0.  0.
          6    2    1    2  501    0 -0.94437164030E+02 -0.27840542249E+01  0.26630379073E+03  0.32659129670E+03  0.16376213609E+03 0.  0.
         24    2    5    5    0    0 -0.10377267525E+03  0.15184206955E+02  0.11787864695E+03  0.17671760493E+03  0.79588995578E+02 0.  0.
          5    1    5    5  501    0  0.93355112178E+01 -0.17968261179E+02  0.14842514378E+03  0.14987369177E+03  0.47000000000E+01 0. -1.
        -15    1    6    6    0    0 -0.65751957151E+02  0.30417862933E+02  0.11464794409E+03  0.13563139411E+03  0.17770000000E+01 0.  1.
         16    1    6    6    0    0 -0.38020718096E+02 -0.15233655978E+02  0.32307028623E+01  0.41086210826E+02  0.00000000000E+00 0. -1.
         -5    1    3    3    0  503  0.21845422686E+02  0.65903701414E+02  0.13404395452E+03  0.15103109646E+03  0.47000000000E+01 0.  1.
         15    1    4    4    0    0  0.98081502032E+01  0.19084782396E+02  0.20101915594E+02  0.29456297613E+02  0.17770000000E+01 0. -1.
        -16    1    4    4    0    0  0.62783591140E+02 -0.82204429586E+02  0.16622233160E+03  0.19577847452E+03  0.00000000000E+00 0.  1.
<mgrwt>
<rscale>  2 0.19523157E+03</rscale>
<asrwt>0</asrwt>
<pdfrwt beam="1">  1       21 0.99194546E-01 0.19733276E+03</pdfrwt>
<pdfrwt beam="2">  1       21 0.89373214E-02 0.19733276E+03</pdfrwt>
<totfact> 0.82577129E+04</totfact>
</mgrwt>
</event>
<event>
12    2  0.4097182E-002  0.1768778E+03  0.7546771E-02  0.1171000E+00
         21   -1    0    0  501  502  0.00000000000E+00  0.00000000000E+00  0.14061154392E+03  0.14061154392E+03  0.00000000000E+00 0.  1.
         21   -1    0    0  502  503 -0.00000000000E+00 -0.00000000000E+00 -0.22180905271E+03  0.22180905271E+03  0.00000000000E+00 0.  1.
         -6    2    1    2    0  503 -0.13537139386E+02  0.31667878982E+02 -0.38711138344E+02  0.18051174339E+03  0.17291566895E+03 0.  0.
        -24    2    3    3    0    0  0.43402122175E+02 -0.11208564572E+02 -0.64592133579E+02  0.10453553111E+03  0.68892361078E+02 0.  0.
          6    2    1    2  501    0  0.13537139386E+02 -0.31667878982E+02 -0.42486370446E+02  0.18190885324E+03  0.17349245088E+03 0.  0.
         24    2    5    5    0    0  0.20501738237E+02 -0.80622425230E+02 -0.59693075231E+02  0.12934257199E+03  0.79031265818E+02 0.  0.
          5    1    5    5  501    0 -0.69645988514E+01  0.48954546248E+02  0.17206704785E+02  0.52566281256E+02  0.47000000000E+01 0. -1.
        -15    1    6    6    0    0 -0.88382350290E+01 -0.39332195317E+02 -0.66952163811E+02  0.78172155879E+02  0.17770000000E+01 0.  1.
         16    1    6    6    0    0  0.29339973266E+02 -0.41290229913E+02  0.72590885798E+01  0.51170416107E+02  0.00000000000E+00 0. -1.
         -5    1    3    3    0  503 -0.56939261561E+02  0.42876443553E+02  0.25880995236E+02  0.75976212286E+02  0.47000000000E+01 0.  1.
         15    1    4    4    0    0 -0.32080010347E+01  0.26702860964E+01 -0.54724224109E+02  0.54911930687E+02  0.17770000000E+01 0. -1.
        -16    1    4    4    0    0  0.46610123210E+02 -0.13878850668E+02 -0.98679094703E+01  0.49623600422E+02  0.00000000000E+00 0.  1.
<mgrwt>
<rscale>  2 0.17673616E+03</rscale>
<asrwt>0</asrwt>
<pdfrwt beam="1">  1       21 0.21632545E-01 0.17687775E+03</pdfrwt>
<pdfrwt beam="2">  1       21 0.34124469E-01 0.17687775E+03</pdfrwt>
<totfact> 0.16567977E+05</totfact>
</mgrwt>
</event>
<event>
12    2  0.4097182E-002  0.2670523E+03  0.7546771E-02  0.1103444E+00
         21   -1    0    0  501  502  0.00000000000E+00  0.00000000000E+00  0.20544264049E+03  0.20544264049E+03  0.00000000000E+00 0. -1.
         21   -1    0    0  502  503 -0.00000000000E+00 -0.00000000000E+00 -0.43707203125E+03  0.43707203125E+03  0.00000000000E+00 0. -1.
         -6    2    1    2    0  503 -0.18009642161E+03 -0.84976666660E+02 -0.26430065851E+03  0.37347133369E+03  0.17311916140E+03 0.  0.
        -24    2    3    3    0    0 -0.17696634022E+03 -0.18897225736E+02 -0.20372145422E+03  0.28364806324E+03  0.85320584588E+02 0.  0.
          6    2    1    2  501    0  0.18009642161E+03  0.84976666660E+02  0.32671267753E+02  0.26904333806E+03  0.17793580601E+03 0.  0.
         24    2    5    5    0    0  0.28790712389E+02 -0.14243095967E+02  0.12818867738E+02  0.86960426378E+02  0.79787351649E+02 0.  0.
          5    1    5    5  501    0  0.15130570922E+03  0.99219762627E+02  0.19852400015E+02  0.18208291168E+03  0.47000000000E+01 0. -1.
        -15    1    6    6    0    0  0.22352754680E+02  0.22299114551E+01 -0.31793991201E+02  0.38969651684E+02  0.17770000000E+01 0.  1.
         16    1    6    6    0    0  0.64379577087E+01 -0.16473007422E+02  0.44612858939E+02  0.47990774694E+02  0.00000000000E+00 0. -1.
         -5    1    3    3    0  503 -0.31300813855E+01 -0.66079440925E+02 -0.60579204288E+02  0.89823270451E+02  0.47000000000E+01 0.  1.
         15    1    4    4    0    0 -0.40045704729E+02  0.43807335407E+01 -0.10715411313E+03  0.11449022222E+03  0.17770000000E+01 0. -1.
        -16    1    4    4    0    0 -0.13692063550E+03 -0.23277959276E+02 -0.96567341089E+02  0.16915784102E+03  0.00000000000E+00 0.  1.
<mgrwt>
<rscale>  2 0.26625245E+03</rscale>
<asrwt>0</asrwt>
<pdfrwt beam="1">  1       21 0.31606560E-01 0.26705225E+03</pdfrwt>
<pdfrwt beam="2">  1       21 0.67241851E-01 0.26705225E+03</pdfrwt>
<totfact> 0.18716022E+04</totfact>
</mgrwt>
</event>
<event>
12    2  0.4097182E-002  0.1770659E+03  0.7546771E-02  0.1171191E+00
         21   -1    0    0  501  502  0.00000000000E+00  0.00000000000E+00  0.13242609292E+03  0.13242609292E+03  0.00000000000E+00 0.  1.
         21   -1    0    0  502  503 -0.00000000000E+00 -0.00000000000E+00 -0.26211332170E+03  0.26211332170E+03  0.00000000000E+00 0.  1.
         -6    2    1    2    0  503 -0.90439853312E+01 -0.29911634080E+02 -0.12981313668E+03  0.21955358704E+03  0.17428662486E+03 0.  0.
        -24    2    3    3    0    0 -0.29808537613E+02 -0.82736424159E+02 -0.90544200476E+02  0.15037436741E+03  0.81733306167E+02 0.  0.
          6    2    1    2  501    0  0.90439853312E+01  0.29911634080E+02  0.12590789833E+00  0.17498582759E+03  0.17217294932E+03 0.  0.
         24    2    5    5    0    0  0.67145150853E+01 -0.18196132515E+02  0.57378108511E+02  0.10002124853E+03  0.79597857192E+02 0.  0.
          5    1    5    5  501    0  0.23294702459E+01  0.48107766595E+02 -0.57252200612E+02  0.74964579058E+02  0.47000000000E+01 0. -1.
        -15    1    6    6    0    0  0.28487644854E+02 -0.94317187534E+01 -0.75386127437E+01  0.30991799545E+02  0.17770000000E+01 0.  1.
         16    1    6    6    0    0 -0.21773129768E+02 -0.87644137612E+01  0.64916721254E+02  0.69029448983E+02  0.00000000000E+00 0. -1.
         -5    1    3    3    0  503  0.20764552282E+02  0.52824790079E+02 -0.39268936202E+02  0.69179219631E+02  0.47000000000E+01 0.  1.
         15    1    4    4    0    0  0.23012360154E+02 -0.56452397217E+02 -0.48615832213E+02  0.77994222492E+02  0.17770000000E+01 0. -1.
        -16    1    4    4    0    0 -0.52820897767E+02 -0.26284026943E+02 -0.41928368263E+02  0.72380144918E+02  0.00000000000E+00 0.  1.
<mgrwt>
<rscale>  2 0.17654355E+03</rscale>
<asrwt>0</asrwt>
<pdfrwt beam="1">  1       21 0.20373245E-01 0.17706588E+03</pdfrwt>
<pdfrwt beam="2">  1       21 0.40325127E-01 0.17706588E+03</pdfrwt>
<totfact> 0.13283920E+05</totfact>
</mgrwt>
</event>
<event>
12    2  0.4097182E-002  0.3330621E+03  0.7546771E-02  0.1069850E+00
         21   -1    0    0  501  502  0.00000000000E+00  0.00000000000E+00  0.13619478869E+03  0.13619478869E+03  0.00000000000E+00 0. -1.
         21   -1    0    0  502  503 -0.00000000000E+00 -0.00000000000E+00 -0.19539195806E+04  0.19539195806E+04  0.00000000000E+00 0.  1.
         -6    2    1    2    0  503 -0.18814626569E+03  0.21345476904E+03 -0.17076853547E+04  0.17398619512E+04  0.17311378519E+03 0.  0.
        -24    2    3    3    0    0 -0.15871095858E+03  0.89219765263E+02 -0.82817486438E+03  0.85112038799E+03  0.73368753424E+02 0.  0.
          6    2    1    2  501    0  0.18814626569E+03 -0.21345476904E+03 -0.11003943717E+03  0.35025241811E+03  0.17206429886E+03 0.  0.
         24    2    5    5    0    0  0.99372641290E+02 -0.12935574369E+03 -0.13406197230E+03  0.22554245601E+03  0.79302943085E+02 0.  0.
          5    1    5    5  501    0  0.88773624397E+02 -0.84099025353E+02  0.24022535133E+02  0.12470996210E+03  0.47000000000E+01 0. -1.
        -15    1    6    6    0    0  0.31798824465E+02 -0.94898026432E+02 -0.48600553996E+02  0.11127431076E+03  0.17770000000E+01 0.  1.
         16    1    6    6    0    0  0.67573816825E+02 -0.34457717259E+02 -0.85461418305E+02  0.11426814524E+03  0.00000000000E+00 0. -1.
         -5    1    3    3    0  503 -0.29435307103E+02  0.12423500378E+03 -0.87951049035E+03  0.88874156317E+03  0.47000000000E+01 0.  1.
         15    1    4    4    0    0 -0.12164756311E+03  0.10018391086E+03 -0.67214665074E+03  0.69037614634E+03  0.17770000000E+01 0. -1.
        -16    1    4    4    0    0 -0.37063395476E+02 -0.10964145599E+02 -0.15602821364E+03  0.16074424165E+03  0.00000000000E+00 0.  1.
<mgrwt>
<rscale>  2 0.33292591E+03</rscale>
<asrwt>0</asrwt>
<pdfrwt beam="1">  1       21 0.20953045E-01 0.33306206E+03</pdfrwt>
<pdfrwt beam="2">  1       21 0.30060301E+00 0.33306206E+03</pdfrwt>
<totfact> 0.61852646E+02</totfact>
</mgrwt>
</event>
<event>
12    2  0.4097182E-002  0.2785187E+03  0.7546771E-02  0.1096581E+00
         21   -1    0    0  503  502  0.00000000000E+00  0.00000000000E+00  0.16980649079E+04  0.16980649079E+04  0.00000000000E+00 0.  1.
         21   -1    0    0  501  503 -0.00000000000E+00 -0.00000000000E+00 -0.47505585698E+02  0.47505585698E+02  0.00000000000E+00 0. -1.
          6    2    1    2  501    0 -0.19771739535E+03 -0.91758025165E+02  0.10015171966E+04  0.10395236153E+04  0.17338093319E+03 0.  0.
         24    2    3    3    0    0 -0.14844769327E+03 -0.44383641504E+02  0.90715625273E+03  0.92291352351E+03  0.69500213890E+02 0.  0.
         -6    2    1    2    0  502  0.19771739535E+03  0.91758025165E+02  0.64904212561E+03  0.70604687835E+03  0.17243784387E+03 0.  0.
        -24    2    5    5    0    0  0.12329983152E+03  0.93248634256E+02  0.57689689229E+03  0.60228166060E+03  0.77685379091E+02 0.  0.
          5    1    3    3  501    0 -0.49269702085E+02 -0.47374383661E+02  0.94360943855E+02  0.11661009174E+03  0.47000000000E+01 0. -1.
        -15    1    4    4    0    0 -0.51673468621E+02  0.16894540914E+02  0.33753224892E+03  0.34188704225E+03  0.17770000000E+01 0.  1.
         16    1    4    4    0    0 -0.96774224646E+02 -0.61278182418E+02  0.56962400382E+03  0.58102648126E+03  0.00000000000E+00 0. -1.
         -5    1    5    5    0  502  0.74417563830E+02 -0.14906090904E+01  0.72145233325E+02  0.10376521774E+03  0.47000000000E+01 0.  1.
         15    1    6    6    0    0  0.11120352357E+03  0.67812870364E+02  0.54201589769E+03  0.55744883184E+03  0.17770000000E+01 0. -1.
        -16    1    6    6    0    0  0.12096307957E+02  0.25435763892E+02  0.34880994596E+02  0.44832828764E+02  0.00000000000E+00 0.  1.
<mgrwt>
<rscale>  2 0.27837203E+03</rscale>
<asrwt>0</asrwt>
<pdfrwt beam="1">  1       21 0.26124071E+00 0.27851867E+03</pdfrwt>
<pdfrwt beam="2">  1       21 0.73085530E-02 0.27851867E+03</pdfrwt>
<totfact> 0.74574928E+03</totfact>
</mgrwt>
</event>
<event>
12    2  0.4097182E-002  0.2045296E+03  0.7546771E-02  0.1145997E+00
         21   -1    0    0  501  502  0.00000000000E+00  0.00000000000E+00  0.79578824993E+02  0.79578824993E+02  0.00000000000E+00 0. -1.
         21   -1    0    0  502  503 -0.00000000000E+00 -0.00000000000E+00 -0.58927684193E+03  0.58927684193E+03  0.00000000000E+00 0. -1.
         -6    2    1    2    0  503 -0.72435314115E+02 -0.81829083399E+02 -0.36505125096E+03  0.41844325418E+03  0.17288570652E+03 0.  0.
        -24    2    3    3    0    0 -0.36130778649E+02 -0.26583851078E+02 -0.67816458260E+02  0.11390973060E+03  0.79776064150E+02 0.  0.
          6    2    1    2  501    0  0.72435314115E+02  0.81829083399E+02 -0.14464676597E+03  0.25041241274E+03  0.17274494472E+03 0.  0.
         24    2    5    5    0    0  0.12049584177E+02 -0.15442973863E+02 -0.22544452074E+02  0.82962854474E+02  0.77400936575E+02 0.  0.
          5    1    5    5  501    0  0.60385729938E+02  0.97272057262E+02 -0.12210231390E+03  0.16744955827E+03  0.47000000000E+01 0. -1.
        -15    1    6    6    0    0  0.25257083457E+02 -0.40535685135E+02 -0.17977865780E+01  0.47827312278E+02  0.17770000000E+01 0.  1.
         16    1    6    6    0    0 -0.13207499280E+02  0.25092711272E+02 -0.20746665496E+02  0.35135542197E+02  0.00000000000E+00 0. -1.
         -5    1    3    3    0  503 -0.36304535466E+02 -0.55245232321E+02 -0.29723479270E+03  0.30453352357E+03  0.47000000000E+01 0.  1.
         15    1    4    4    0    0 -0.14058424865E+01  0.10168707584E+02 -0.62165449693E+02  0.63032371616E+02  0.17770000000E+01 0. -1.
        -16    1    4    4    0    0 -0.34724936162E+02 -0.36752558663E+02 -0.56510085674E+01  0.50877358987E+02  0.00000000000E+00 0.  1.
<mgrwt>
<rscale>  2 0.20449981E+03</rscale>
<asrwt>0</asrwt>
<pdfrwt beam="1">  1       21 0.12242896E-01 0.20452956E+03</pdfrwt>
<pdfrwt beam="2">  1       21 0.90657977E-01 0.20452956E+03</pdfrwt>
<totfact> 0.58144635E+04</totfact>
</mgrwt>
</event>
<event>
12    2  0.4097182E-002  0.1924839E+03  0.7546771E-02  0.1156298E+00
         21   -1    0    0  503  502  0.00000000000E+00  0.00000000000E+00  0.63865515826E+03  0.63865515826E+03  0.00000000000E+00 0.  1.
         21   -1    0    0  501  503 -0.00000000000E+00 -0.00000000000E+00 -0.65294140976E+02  0.65294140976E+02  0.00000000000E+00 0.  1.
          6    2    1    2  501    0 -0.46655975751E+02  0.67743387561E+02  0.16868245787E+03  0.25593715366E+03  0.17402329844E+03 0.  0.
         24    2    3    3    0    0 -0.55839605358E+02  0.97214924133E+02  0.81408122606E+02  0.16324513611E+03  0.86330116634E+02 0.  0.
         -6    2    1    2    0  502  0.46655975751E+02 -0.67743387561E+02  0.40467855942E+03  0.44801214558E+03  0.17373600520E+03 0.  0.
        -24    2    5    5    0    0 -0.28602605240E+02 -0.57726903623E+02  0.30890127164E+03  0.32570285396E+03  0.80696028572E+02 0.  0.
          5    1    3    3  501    0  0.91836296068E+01 -0.29471536572E+02  0.87274335263E+02  0.92692017544E+02  0.47000000000E+01 0. -1.
        -15    1    4    4    0    0 -0.53052010060E+01 -0.13899636455E+02 -0.24045049548E+01  0.15175125185E+02  0.17770000000E+01 0.  1.
         16    1    4    4    0    0 -0.50534404352E+02  0.11111456059E+03  0.83812627561E+02  0.14807001093E+03  0.00000000000E+00 0. -1.
         -5    1    5    5    0  502  0.75258580991E+02 -0.10016483938E+02  0.95777287781E+02  0.12230929163E+03  0.47000000000E+01 0.  1.
         15    1    6    6    0    0 -0.96138349641E+01  0.10578030041E+02  0.16147367555E+03  0.16211485486E+03  0.17770000000E+01 0. -1.
        -16    1    6    6    0    0 -0.18988770276E+02 -0.68304933664E+02  0.14742759609E+03  0.16358799910E+03  0.00000000000E+00 0.  1.
<mgrwt>
<rscale>  2 0.19241895E+03</rscale>
<asrwt>0</asrwt>
<pdfrwt beam="1">  1       21 0.98254635E-01 0.19248391E+03</pdfrwt>
<pdfrwt beam="2">  1       21 0.10045253E-01 0.19248391E+03</pdfrwt>
<totfact> 0.68905245E+04</totfact>
</mgrwt>
</event>
<event>
12    2  0.4097182E-002  0.3140631E+03  0.7546771E-02  0.1078461E+00
         21   -1    0    0  501  502  0.00000000000E+00  0.00000000000E+00  0.82023531009E+02  0.82023531009E+02  0.00000000000E+00 0.  1.
         21   -1    0    0  502  503 -0.00000000000E+00 -0.00000000000E+00 -0.15195440306E+04  0.15195440306E+04  0.00000000000E+00 0. -1.
         -6    2    1    2    0  503  0.25904689204E+02 -0.26065225518E+03 -0.10857559577E+04  0.11302661743E+04  0.17327715963E+03 0.  0.
        -24    2    3    3    0    0 -0.43606475234E+02 -0.19900057258E+03 -0.69864490319E+03  0.73213329388E+03  0.80073133410E+02 0.  0.
          6    2    1    2  501    0 -0.25904689204E+02  0.26065225518E+03 -0.35176454188E+03  0.47130138729E+03  0.17255739244E+03 0.  0.
         24    2    5    5    0    0 -0.26952075967E+02  0.21484205752E+02 -0.34409718509E+02  0.73886457020E+02  0.55562526107E+02 0.  0.
          5    1    5    5  501    0  0.10473867628E+01  0.23916804943E+03 -0.31735482337E+03  0.39741493027E+03  0.47000000000E+01 0. -1.
        -15    1    6    6    0    0 -0.90999237351E+01 -0.11214139736E+02 -0.33608972298E+02  0.36623575603E+02  0.17770000000E+01 0.  1.
         16    1    6    6    0    0 -0.17852152232E+02  0.32698345489E+02 -0.80074621076E+00  0.37262881417E+02  0.00000000000E+00 0. -1.
         -5    1    3    3    0  503  0.69511164438E+02 -0.61651682600E+02 -0.38711105452E+03  0.39813288043E+03  0.47000000000E+01 0.  1.
         15    1    4    4    0    0 -0.55714733467E+02 -0.13430442048E+03 -0.56132547164E+03  0.57985450910E+03  0.17770000000E+01 0. -1.
        -16    1    4    4    0    0  0.12108258233E+02 -0.64696152101E+02 -0.13731943155E+03  0.15227878479E+03  0.00000000000E+00 0.  1.
<mgrwt>
<rscale>  2 0.31396391E+03</rscale>
<asrwt>0</asrwt>
<pdfrwt beam="1">  1       21 0.12619005E-01 0.31406309E+03</pdfrwt>
<pdfrwt beam="2">  1       21 0.23377600E+00 0.31406309E+03</pdfrwt>
<totfact> 0.40388788E+03</totfact>
</mgrwt>
</event>
<event>
12    2  0.4097182E-002  0.2864801E+03  0.7546771E-02  0.1092296E+00
         21   -1    0    0  501  502  0.00000000000E+00  0.00000000000E+00  0.41241657217E+03  0.41241657217E+03  0.00000000000E+00 0. -1.
         21   -1    0    0  502  503 -0.00000000000E+00 -0.00000000000E+00 -0.33883351280E+03  0.33883351280E+03  0.00000000000E+00 0. -1.
         -6    2    1    2    0  503  0.28516199506E+02  0.22584052194E+03 -0.20496627765E+03  0.35167455149E+03  0.17276197558E+03 0.  0.
        -24    2    3    3    0    0  0.42151555713E+00  0.12809156470E+03 -0.38035069319E+02  0.15614376562E+03  0.80787266449E+02 0.  0.
          6    2    1    2  501    0 -0.28516199506E+02 -0.22584052194E+03  0.27854933702E+03  0.39957553348E+03  0.17393607681E+03 0.  0.
         24    2    5    5    0    0 -0.19844205973E+02 -0.42359263296E+02  0.46603489406E+02  0.10366753769E+03  0.79918542579E+02 0.  0.
          5    1    5    5  501    0 -0.86719935332E+01 -0.18348125865E+03  0.23194584762E+03  0.29590799579E+03  0.47000000000E+01 0. -1.
        -15    1    6    6    0    0  0.15841115194E+02 -0.15522204158E+01  0.46792826308E+02  0.49457826900E+02  0.17770000000E+01 0.  1.
         16    1    6    6    0    0 -0.35685321167E+02 -0.40807042880E+02 -0.18933690148E+00  0.54209710789E+02  0.00000000000E+00 0. -1.
         -5    1    3    3    0  503  0.28094683949E+02  0.97748957237E+02 -0.16693120833E+03  0.19553078587E+03  0.47000000000E+01 0.  1.
         15    1    4    4    0    0 -0.39353952718E+02  0.48667318141E+02 -0.15712882038E+02  0.64554580322E+02  0.17770000000E+01 0. -1.
        -16    1    4    4    0    0  0.39775468275E+02  0.79424246563E+02 -0.22322187280E+02  0.91589185298E+02  0.00000000000E+00 0.  1.
<mgrwt>
<rscale>  2 0.28630215E+03</rscale>
<asrwt>0</asrwt>
<pdfrwt beam="1">  1       21 0.63448703E-01 0.28648015E+03</pdfrwt>
<pdfrwt beam="2">  1       21 0.52128233E-01 0.28648015E+03</pdfrwt>
<totfact> 0.75775995E+03</totfact>
</mgrwt>
</event>
<event>
12    2  0.4097182E-002  0.2060433E+03  0.7546771E-02  0.1145180E+00
         21   -1    0    0  503  502  0.00000000000E+00  0.00000000000E+00  0.13991715342E+03  0.13991715342E+03  0.00000000000E+00 0.  1.
         21   -1    0    0  501  503 -0.00000000000E+00 -0.00000000000E+00 -0.52975638902E+03  0.52975638902E+03  0.00000000000E+00 0.  1.
          6    2    1    2  501    0 -0.35145388512E+02 -0.10555285404E+03 -0.41472799185E+03  0.46213248513E+03  0.17085234345E+03 0.  0.
         24    2    3    3    0    0 -0.27307031563E+02  0.69495581319E+01 -0.23544981941E+03  0.25028115590E+03  0.80062907820E+02 0.  0.
         -6    2    1    2    0  502  0.35145388512E+02  0.10555285404E+03  0.24888756252E+02  0.20754105731E+03  0.17342790130E+03 0.  0.
        -24    2    5    5    0    0  0.61174063022E+02  0.42575278776E+02 -0.36721677750E+02  0.11555408833E+03  0.80307816335E+02 0.  0.
          5    1    3    3  501    0 -0.78383569490E+01 -0.11250241217E+03 -0.17927817244E+03  0.21185132923E+03  0.47000000000E+01 0. -1.
        -15    1    4    4    0    0  0.99968138509E+01 -0.21478277283E+02 -0.15770803942E+03  0.15948741677E+03  0.17770000000E+01 0.  1.
         16    1    4    4    0    0 -0.37303845414E+02  0.28427835415E+02 -0.77741779987E+02  0.90793739127E+02  0.00000000000E+00 0. -1.
         -5    1    5    5    0  502 -0.26028674510E+02  0.62977575264E+02  0.61610434002E+02  0.91986968973E+02  0.47000000000E+01 0.  1.
         15    1    6    6    0    0  0.67680902011E+02  0.25120034768E+02  0.23675429037E+01  0.72252914351E+02  0.17770000000E+01 0. -1.
        -16    1    6    6    0    0 -0.65068389894E+01  0.17455244008E+02 -0.39089220654E+02  0.43301173983E+02  0.00000000000E+00 0.  1.
<mgrwt>
<rscale>  2 0.20550037E+03</rscale>
<asrwt>0</asrwt>
<pdfrwt beam="1">  1       21 0.21525716E-01 0.20604330E+03</pdfrwt>
<pdfrwt beam="2">  1       21 0.81500984E-01 0.20604330E+03</pdfrwt>
<totfact> 0.26317423E+04</totfact>
</mgrwt>
</event>
<event>
12    2  0.4097182E-002  0.2280952E+03  0.7546771E-02  0.1128120E+00
         21   -1    0    0  501  502  0.00000000000E+00  0.00000000000E+00  0.36524682114E+02  0.36524682114E+02  0.00000000000E+00 0.  1.
         21   -1    0    0  502  503 -0.00000000000E+00 -0.00000000000E+00 -0.14934084463E+04  0.14934084463E+04  0.00000000000E+00 0. -1.
         -6    2    1    2    0  503  0.11042712135E+03 -0.98182366210E+02 -0.89937284085E+03  0.92784638607E+03  0.17376272072E+03 0.  0.
        -24    2    3    3    0    0  0.52721855867E+02  0.59823226777E+01 -0.24747007096E+03  0.26514019818E+03  0.79009533586E+02 0.  0.
          6    2    1    2  501    0 -0.11042712135E+03  0.98182366210E+02 -0.55751092337E+03  0.60208674238E+03  0.17278914756E+03 0.  0.
         24    2    5    5    0    0 -0.80175755515E+01  0.11092945450E+02 -0.12712910360E+03  0.15117335484E+03  0.80648864062E+02 0.  0.
          5    1    5    5  501    0 -0.10240954580E+03  0.87089420760E+02 -0.43038181977E+03  0.45091338755E+03  0.47000000000E+01 0. -1.
        -15    1    6    6    0    0  0.21611396075E+02  0.20078157340E+02 -0.11901973171E+02  0.31859057375E+02  0.17770000000E+01 0.  1.
         16    1    6    6    0    0 -0.29628971626E+02 -0.89852118894E+01 -0.11522713043E+03  0.11931429746E+03  0.00000000000E+00 0. -1.
         -5    1    3    3    0  503  0.57705265480E+02 -0.10416468889E+03 -0.65190276989E+03  0.66270618789E+03  0.47000000000E+01 0.  1.
         15    1    4    4    0    0  0.49077682750E+02 -0.25131824232E+02 -0.20545059079E+03  0.21272830211E+03  0.17770000000E+01 0. -1.
        -16    1    4    4    0    0  0.36441731173E+01  0.31114146910E+02 -0.42019480173E+02  0.52411896070E+02  0.00000000000E+00 0.  1.
<mgrwt>
<rscale>  2 0.22790975E+03</rscale>
<asrwt>0</asrwt>
<pdfrwt beam="1">  1       21 0.56191818E-02 0.22809518E+03</pdfrwt>
<pdfrwt beam="2">  1       21 0.22975515E+00 0.22809518E+03</pdfrwt>
<totfact> 0.18821611E+04</totfact>
</mgrwt>
</event>
<event>
12    2  0.4097182E-002  0.2950078E+03  0.7546771E-02  0.1087824E+00
         21   -1    0    0  501  502  0.00000000000E+00  0.00000000000E+00  0.84214017760E+03  0.84214017760E+03  0.00000000000E+00 0. -1.
         21   -1    0    0  502  503 -0.00000000000E+00 -0.00000000000E+00 -0.30374134509E+03  0.30374134509E+03  0.00000000000E+00 0. -1.
         -6    2    1    2    0  503 -0.22512592234E+03 -0.78091378356E+02 -0.19629709173E+03  0.35434746030E+03  0.17392420796E+03 0.  0.
        -24    2    3    3    0    0 -0.75691028960E+02 -0.82068645116E+02 -0.53661105820E+02  0.14767448072E+03  0.80398032326E+02 0.  0.
          6    2    1    2  501    0  0.22512592234E+03  0.78091378356E+02  0.73469592424E+03  0.79153406239E+03  0.17311304557E+03 0.  0.
         24    2    5    5    0    0  0.19003875643E+03  0.26712472785E+01  0.46082628734E+03  0.50527199120E+03  0.82565449706E+02 0.  0.
          5    1    5    5  501    0  0.35087165908E+02  0.75420131077E+02  0.27386963690E+03  0.28626207119E+03  0.47000000000E+01 0. -1.
        -15    1    6    6    0    0  0.69084579816E+01  0.19184139508E+01  0.10338311452E+03  0.10364667482E+03  0.17770000000E+01 0.  1.
         16    1    6    6    0    0  0.18313029845E+03  0.75283332767E+00  0.35744317282E+03  0.40162531638E+03  0.00000000000E+00 0. -1.
         -5    1    3    3    0  503 -0.14943489338E+03  0.39772667600E+01 -0.14263598591E+03  0.20667297958E+03  0.47000000000E+01 0.  1.
         15    1    4    4    0    0 -0.70160862977E+02 -0.46694808081E+02 -0.68792375215E+02  0.10880487311E+03  0.17770000000E+01 0. -1.
        -16    1    4    4    0    0 -0.55301659829E+01 -0.35373837035E+02  0.15131269395E+02  0.38869607612E+02  0.00000000000E+00 0.  1.
<mgrwt>
<rscale>  2 0.29488831E+03</rscale>
<asrwt>0</asrwt>
<pdfrwt beam="1">  1       21 0.12956003E+00 0.29500775E+03</pdfrwt>
<pdfrwt beam="2">  1       21 0.46729438E-01 0.29500775E+03</pdfrwt>
<totfact> 0.17661741E+03</totfact>
</mgrwt>
</event>
<event>
12    2  0.4097182E-002  0.1933945E+03  0.7546771E-02  0.1155766E+00
         21   -1    0    0  503  502  0.00000000000E+00  0.00000000000E+00  0.48430054460E+03  0.48430054460E+03  0.00000000000E+00 0.  1.
         21   -1    0    0  501  503 -0.00000000000E+00 -0.00000000000E+00 -0.11963419202E+03  0.11963419202E+03  0.00000000000E+00 0. -1.
          6    2    1    2  501    0  0.33245677467E+02 -0.78131635879E+02  0.17457341378E+01  0.19340240445E+03  0.17375734477E+03 0.  0.
         24    2    3    3    0    0  0.28248893602E+02 -0.11164537488E+03  0.32590670927E+02  0.14734115526E+03  0.85933546883E+02 0.  0.
         -6    2    1    2    0  502 -0.33245677467E+02  0.78131635879E+02  0.36292061844E+03  0.41053233217E+03  0.17209181524E+03 0.  0.
        -24    2    5    5    0    0 -0.77164352555E+02  0.49909437879E+02  0.16233692342E+03  0.20321313096E+03  0.80604035849E+02 0.  0.
          5    1    3    3  501    0  0.49967838647E+01  0.33513739003E+02 -0.30844936789E+02  0.46061249185E+02  0.47000000000E+01 0. -1.
        -15    1    4    4    0    0 -0.22801832818E+02 -0.12277367992E+02  0.23906666759E+02  0.35289428859E+02  0.17770000000E+01 0.  1.
         16    1    4    4    0    0  0.51050726420E+02 -0.99368006890E+02  0.86840041679E+01  0.11205172640E+03  0.00000000000E+00 0. -1.
         -5    1    5    5    0  502  0.43918675088E+02  0.28222198001E+02  0.20058369503E+03  0.20731920121E+03  0.47000000000E+01 0.  1.
         15    1    6    6    0    0 -0.20781091134E+02  0.26999982683E+02  0.49572877208E+01  0.34475864661E+02  0.17770000000E+01 0. -1.
        -16    1    6    6    0    0 -0.56383261421E+02  0.22909455196E+02  0.15737963570E+03  0.16873726630E+03  0.00000000000E+00 0.  1.
<mgrwt>
<rscale>  2 0.19301968E+03</rscale>
<asrwt>0</asrwt>
<pdfrwt beam="1">  1       21 0.74507775E-01 0.19339453E+03</pdfrwt>
<pdfrwt beam="2">  1       21 0.18405261E-01 0.19339453E+03</pdfrwt>
<totfact> 0.43456760E+04</totfact>
</mgrwt>
</event>
<event>
12    2  0.4097182E-002  0.1840593E+03  0.7546771E-02  0.1164174E+00
         21   -1    0    0  503  502  0.00000000000E+00  0.00000000000E+00  0.57248496600E+03  0.57248496600E+03  0.00000000000E+00 0. -1.
         21   -1    0    0  501  503 -0.00000000000E+00 -0.00000000000E+00 -0.63552523657E+02  0.63552523657E+02  0.00000000000E+00 0. -1.
          6    2    1    2  501    0 -0.19183756779E+02 -0.56488619099E+02  0.34034889462E+03  0.38644136606E+03  0.17303346127E+03 0.  0.
         24    2    3    3    0    0 -0.53925261099E+02 -0.87267234443E+02  0.19990995912E+03  0.23845663749E+03  0.79837786886E+02 0.  0.
         -6    2    1    2    0  502  0.19183756779E+02  0.56488619099E+02  0.16858354773E+03  0.24959612360E+03  0.17412303622E+03 0.  0.
        -24    2    5    5    0    0  0.43502739820E+02  0.79856718744E+02  0.17670798786E+03  0.21458787394E+03  0.80948494535E+02 0.  0.
          5    1    3    3  501    0  0.34741504320E+02  0.30778615344E+02  0.14043893550E+03  0.14798472856E+03  0.47000000000E+01 0. -1.
        -15    1    4    4    0    0 -0.47508794748E+02 -0.40196503622E+02  0.17299331427E+03  0.18385507606E+03  0.17770000000E+01 0.  1.
         16    1    4    4    0    0 -0.64164663515E+01 -0.47070730822E+02  0.26916644852E+02  0.54601561430E+02  0.00000000000E+00 0. -1.
         -5    1    5    5    0  502 -0.24318983042E+02 -0.23368099645E+02 -0.81244401327E+01  0.35008249666E+02  0.47000000000E+01 0.  1.
         15    1    6    6    0    0 -0.14806146010E+02 -0.50290119447E+01  0.43192670337E+02  0.45970397221E+02  0.17770000000E+01 0. -1.
        -16    1    6    6    0    0  0.58308885830E+02  0.84885730689E+02  0.13351531752E+03  0.16861747672E+03  0.00000000000E+00 0.  1.
<mgrwt>
<rscale>  2 0.18380112E+03</rscale>
<asrwt>0</asrwt>
<pdfrwt beam="1">  1       21 0.88074607E-01 0.18405926E+03</pdfrwt>
<pdfrwt beam="2">  1       21 0.97773117E-02 0.18405926E+03</pdfrwt>
<totfact> 0.93576178E+04</totfact>
</mgrwt>
</event>
<event>
12    2  0.4097182E-002  0.2343368E+03  0.7546771E-02  0.1123743E+00
         21   -1    0    0  503  502  0.00000000000E+00  0.00000000000E+00  0.12546491410E+03  0.12546491410E+03  0.00000000000E+00 0. -1.
         21   -1    0    0  501  503 -0.00000000000E+00 -0.00000000000E+00 -0.47201463560E+03  0.47201463560E+03  0.00000000000E+00 0.  1.
          6    2    1    2  501    0 -0.67511367215E+02  0.14154615182E+03 -0.25510451061E+03  0.34593243647E+03  0.17319884950E+03 0.  0.
         24    2    3    3    0    0 -0.29319603281E+02  0.66571003136E+02 -0.23521100279E+03  0.25934302946E+03  0.81506156208E+02 0.  0.
         -6    2    1    2    0  502  0.67511367215E+02 -0.14154615182E+03 -0.91445210900E+02  0.25154711323E+03  0.17412818778E+03 0.  0.
        -24    2    5    5    0    0 -0.25511661115E+02 -0.81197402829E+02 -0.77184358595E+02  0.13965110252E+03  0.79379733834E+02 0.  0.
          5    1    3    3  501    0 -0.38191763935E+02  0.74975148689E+02 -0.19893507818E+02  0.86589407012E+02  0.47000000000E+01 0. -1.
        -15    1    4    4    0    0 -0.51093340832E+02  0.17753565251E+02 -0.95703023259E+02  0.10994519065E+03  0.17770000000E+01 0.  1.
         16    1    4    4    0    0  0.21773737551E+02  0.48817437885E+02 -0.13950797953E+03  0.14939783881E+03  0.00000000000E+00 0. -1.
         -5    1    5    5    0  502  0.93023028330E+02 -0.60348748996E+02 -0.14260852305E+02  0.11189601071E+03  0.47000000000E+01 0.  1.
         15    1    6    6    0    0  0.27292728472E+02 -0.28486266282E+02 -0.14058126793E+02  0.41918361753E+02  0.17770000000E+01 0. -1.
        -16    1    6    6    0    0 -0.52804389587E+02 -0.52711136547E+02 -0.63126231802E+02  0.97732740764E+02  0.00000000000E+00 0.  1.
<mgrwt>
<rscale>  2 0.23416415E+03</rscale>
<asrwt>0</asrwt>
<pdfrwt beam="1">  1       21 0.19302294E-01 0.23433677E+03</pdfrwt>
<pdfrwt beam="2">  1       21 0.72617637E-01 0.23433677E+03</pdfrwt>
<totfact> 0.41284482E+04</totfact>
</mgrwt>
</event>
<event>
12    2  0.4097182E-002  0.1889257E+03  0.7546771E-02  0.1159786E+00
         21   -1    0    0  501  502  0.00000000000E+00  0.00000000000E+00  0.51968153506E+03  0.51968153506E+03  0.00000000000E+00 0.  1.
         21   -1    0    0  502  503 -0.00000000000E+00 -0.00000000000E+00 -0.89137080123E+03  0.89137080123E+03  0.00000000000E+00 0.  1.
         -6    2    1    2    0  503  0.55864602273E+02 -0.48996097823E+02 -0.86381656204E+03  0.88390699437E+03  0.17202049424E+03 0.  0.
        -24    2    3    3    0    0  0.45010326040E+02 -0.84076757352E+02 -0.41188835305E+03  0.43046497595E+03  0.80952143637E+02 0.  0.
          6    2    1    2  501    0 -0.55864602273E+02  0.48996097823E+02  0.49212729587E+03  0.52714534192E+03  0.17369935169E+03 0.  0.
         24    2    5    5    0    0 -0.17858624985E+02 -0.27159940229E+02  0.35539567522E+03  0.36601861376E+03  0.81283127494E+02 0.  0.
          5    1    5    5  501    0 -0.38005977288E+02  0.76156038051E+02  0.13673162065E+03  0.16112672816E+03  0.47000000000E+01 0. -1.
        -15    1    6    6    0    0 -0.12586133801E+01  0.13930865790E+01  0.30930607258E+03  0.30931687484E+03  0.17770000000E+01 0.  1.
         16    1    6    6    0    0 -0.16600011605E+02 -0.28553026808E+02  0.46089602646E+02  0.56701738926E+02  0.00000000000E+00 0. -1.
         -5    1    3    3    0  503  0.10854276234E+02  0.35080659529E+02 -0.45192820899E+03  0.45344201842E+03  0.47000000000E+01 0.  1.
         15    1    4    4    0    0 -0.16329154681E+02 -0.52047614298E+02 -0.15120195830E+03  0.16075069322E+03  0.17770000000E+01 0. -1.
        -16    1    4    4    0    0  0.61339480720E+02 -0.32029143054E+02 -0.26068639475E+03  0.26971428273E+03  0.00000000000E+00 0.  1.
<mgrwt>
<rscale>  2 0.18853896E+03</rscale>
<asrwt>0</asrwt>
<pdfrwt beam="1">  1       21 0.79951006E-01 0.18892574E+03</pdfrwt>
<pdfrwt beam="2">  1       21 0.13713397E+00 0.18892574E+03</pdfrwt>
<totfact> 0.52203196E+02</totfact>
</mgrwt>
</event>
<event>
12    2  0.4097182E-002  0.2367640E+03  0.7546771E-02  0.1122317E+00
         21   -1    0    0  503  502  0.00000000000E+00  0.00000000000E+00  0.71895973150E+03  0.71895973150E+03  0.00000000000E+00 0. -1.
         21   -1    0    0  501  503 -0.00000000000E+00 -0.00000000000E+00 -0.77549488545E+02  0.77549488545E+02  0.00000000000E+00 0. -1.
          6    2    1    2  501    0 -0.15881969470E+03 -0.46143093416E+01  0.29929863588E+03  0.38162398027E+03  0.17553404685E+03 0.  0.
         24    2    3    3    0    0 -0.32054791710E+01 -0.10352974480E+02  0.10188343501E+03  0.13014124153E+03  0.80243686603E+02 0.  0.
         -6    2    1    2    0  502  0.15881969470E+03  0.46143093416E+01  0.34211160708E+03  0.41488523977E+03  0.17275538547E+03 0.  0.
        -24    2    5    5    0    0  0.77912814538E+02  0.62214602127E+02  0.13531769439E+03  0.18543038732E+03  0.78310195643E+02 0.  0.
          5    1    3    3  501    0 -0.15561421553E+03  0.57386651383E+01  0.19741520087E+03  0.25148273874E+03  0.47000000000E+01 0. -1.
        -15    1    4    4    0    0 -0.38158537551E+02 -0.20952872218E+02  0.45803171939E+02  0.63215386821E+02  0.17770000000E+01 0.  1.
         16    1    4    4    0    0  0.34953058380E+02  0.10599897738E+02  0.56080263071E+02  0.66925854707E+02  0.00000000000E+00 0. -1.
         -5    1    5    5    0  502  0.80906880163E+02 -0.57600292786E+02  0.20679391269E+03  0.22945485245E+03  0.47000000000E+01 0.  1.
         15    1    6    6    0    0  0.56865998324E+02  0.12645035416E+02  0.11298340481E+03  0.12713003649E+03  0.17770000000E+01 0. -1.
        -16    1    6    6    0    0  0.21046816214E+02  0.49569566712E+02  0.22334289578E+02  0.58300350837E+02  0.00000000000E+00 0.  1.
<mgrwt>
<rscale>  2 0.23624915E+03</rscale>
<asrwt>0</asrwt>
<pdfrwt beam="1">  1       21 0.11060919E+00 0.23676399E+03</pdfrwt>
<pdfrwt beam="2">  1       21 0.11930691E-01 0.23676399E+03</pdfrwt>
<totfact> 0.37341232E+04</totfact>
</mgrwt>
</event>
<event>
12    2  0.4097182E-002  0.1841975E+03  0.7546771E-02  0.1165636E+00
         21   -1    0    0  501  502  0.00000000000E+00  0.00000000000E+00  0.23448135496E+03  0.23448135496E+03  0.00000000000E+00 0. -1.
         21   -1    0    0  502  503 -0.00000000000E+00 -0.00000000000E+00 -0.40525226737E+03  0.40525226737E+03  0.00000000000E+00 0. -1.
         -6    2    1    2    0  503 -0.26165259104E+02  0.27904986824E+02 -0.34537168531E+03  0.39142088439E+03  0.18018157135E+03 0.  0.
        -24    2    3    3    0    0 -0.82989155799E+02 -0.11422891591E+02 -0.27068170025E+03  0.28955665552E+03  0.59638841988E+02 0.  0.
          6    2    1    2  501    0  0.26165259104E+02 -0.27904986824E+02  0.17460077290E+03  0.24831273794E+03  0.17236727314E+03 0.  0.
         24    2    5    5    0    0  0.77901866817E+02 -0.45884203015E+02  0.96799378900E+02  0.15304954620E+03  0.76681046520E+02 0.  0.
          5    1    5    5  501    0 -0.51736607713E+02  0.17979216191E+02  0.77801394002E+02  0.95263191744E+02  0.47000000000E+01 0. -1.
        -15    1    6    6    0    0 -0.13439041687E+01 -0.30034096041E+02  0.46345892426E+01  0.30471136340E+02  0.17770000000E+01 0.  1.
         16    1    6    6    0    0  0.79245770985E+02 -0.15850106974E+02  0.92164789657E+02  0.12257840986E+03  0.00000000000E+00 0. -1.
         -5    1    3    3    0  503  0.56823896695E+02  0.39327878415E+02 -0.74689985055E+02  0.10186422887E+03  0.47000000000E+01 0.  1.
         15    1    4    4    0    0 -0.67178918609E+02 -0.12627916143E+02 -0.26335933310E+03  0.27209146887E+03  0.17770000000E+01 0. -1.
        -16    1    4    4    0    0 -0.15810237190E+02  0.12050245521E+01 -0.73223671545E+01  0.17465186656E+02  0.00000000000E+00 0.  1.
<mgrwt>
<rscale>  2 0.18225793E+03</rscale>
<asrwt>0</asrwt>
<pdfrwt beam="1">  1       21 0.36074055E-01 0.18419747E+03</pdfrwt>
<pdfrwt beam="2">  1       21 0.62346502E-01 0.18419747E+03</pdfrwt>
<totfact> 0.17770095E+04</totfact>
</mgrwt>
</event>
<event>
12    2  0.4097182E-002  0.1892033E+03  0.7546771E-02  0.1159289E+00
         21   -1    0    0  503  502  0.00000000000E+00  0.00000000000E+00  0.27387692631E+03  0.27387692631E+03  0.00000000000E+00 0. -1.
         21   -1    0    0  501  503 -0.00000000000E+00 -0.00000000000E+00 -0.54111380703E+03  0.54111380703E+03  0.00000000000E+00 0. -1.
          6    2    1    2  501    0 -0.57005932284E+02 -0.50800796134E+02 -0.48860162904E+03  0.52378595531E+03  0.17259715489E+03 0.  0.
         24    2    3    3    0    0 -0.82119897052E+01  0.20804345489E+02 -0.13028711460E+03  0.15511330051E+03  0.81148913719E+02 0.  0.
         -6    2    1    2    0  502  0.57005932284E+02  0.50800796134E+02  0.22136474832E+03  0.29120477804E+03  0.17311116009E+03 0.  0.
        -24    2    5    5    0    0  0.19434738909E+02  0.86354383872E+02  0.15928658086E+03  0.21026380542E+03  0.10489930570E+03 0.  0.
          5    1    3    3  501    0 -0.48793942579E+02 -0.71605141623E+02 -0.35831451443E+03  0.36867265480E+03  0.47000000000E+01 0. -1.
        -15    1    4    4    0    0 -0.14037286624E+02  0.38378509415E+02 -0.13033079198E+03  0.13659878648E+03  0.17770000000E+01 0.  1.
         16    1    4    4    0    0  0.58252969193E+01 -0.17574163926E+02  0.43677382346E-01  0.18514514026E+02  0.00000000000E+00 0. -1.
         -5    1    5    5    0  502  0.37571193375E+02 -0.35553587738E+02  0.62078167467E+02  0.80940972620E+02  0.47000000000E+01 0.  1.
         15    1    6    6    0    0  0.40107655059E+02 -0.40991222651E+00  0.85681054975E+02  0.94621313313E+02  0.17770000000E+01 0. -1.
        -16    1    6    6    0    0 -0.20672916151E+02  0.86764296098E+02  0.73605525881E+02  0.11564249210E+03  0.00000000000E+00 0.  1.
<mgrwt>
<rscale>  2 0.18908560E+03</rscale>
<asrwt>0</asrwt>
<pdfrwt beam="1">  1       21 0.42134912E-01 0.18920325E+03</pdfrwt>
<pdfrwt beam="2">  1       21 0.83248277E-01 0.18920325E+03</pdfrwt>
<totfact> 0.68292972E+03</totfact>
</mgrwt>
</event>
<event>
12    2  0.4097182E-002  0.1773462E+03  0.7546771E-02  0.1170631E+00
         21   -1    0    0  503  502  0.00000000000E+00  0.00000000000E+00  0.42792610937E+03  0.42792610937E+03  0.00000000000E+00 0. -1.
         21   -1    0    0  501  503 -0.00000000000E+00 -0.00000000000E+00 -0.23990527413E+03  0.23990527413E+03  0.00000000000E+00 0. -1.
          6    2    1    2  501    0  0.29053286106E+02 -0.24191091557E+02 -0.18449508026E+03  0.25525439588E+03  0.17229936051E+03 0.  0.
         24    2    3    3    0    0  0.16773558658E+01  0.45027816643E+02 -0.13957430997E+03  0.16818738484E+03  0.82314583280E+02 0.  0.
         -6    2    1    2    0  502 -0.29053286106E+02  0.24191091557E+02  0.37251591550E+03  0.41257698761E+03  0.17326961957E+03 0.  0.
        -24    2    5    5    0    0  0.23085195446E+02 -0.61647599542E+01  0.85365947693E+02  0.11911984766E+03  0.79569231282E+02 0.  0.
          5    1    3    3  501    0  0.27375930240E+02 -0.69218908200E+02 -0.44920770289E+02  0.87067011045E+02  0.47000000000E+01 0. -1.
        -15    1    4    4    0    0  0.19696285035E+02  0.11190137722E+02  0.73550984874E+00  0.22734588850E+02  0.17770000000E+01 0.  1.
         16    1    4    4    0    0 -0.18018929169E+02  0.33837678920E+02 -0.14030981982E+03  0.14545279599E+03  0.00000000000E+00 0. -1.
         -5    1    5    5    0  502 -0.52138481552E+02  0.30355851511E+02  0.28714996781E+03  0.29345713996E+03  0.47000000000E+01 0.  1.
         15    1    6    6    0    0  0.16157327010E+02 -0.83453914286E+01  0.10059848449E+03  0.10224440124E+03  0.17770000000E+01 0. -1.
        -16    1    6    6    0    0  0.69278684356E+01  0.21806314744E+01 -0.15232536795E+02  0.16875446421E+02  0.00000000000E+00 0.  1.
<mgrwt>
<rscale>  2 0.17710873E+03</rscale>
<asrwt>0</asrwt>
<pdfrwt beam="1">  1       21 0.65834786E-01 0.17734617E+03</pdfrwt>
<pdfrwt beam="2">  1       21 0.36908504E-01 0.17734617E+03</pdfrwt>
<totfact> 0.15155269E+04</totfact>
</mgrwt>
</event>
<event>
12    2  0.4097182E-002  0.1831527E+03  0.7546771E-02  0.1165164E+00
         21   -1    0    0  503  502  0.00000000000E+00  0.00000000000E+00  0.17064497168E+03  0.17064497168E+03  0.00000000000E+00 0. -1.
         21   -1    0    0  501  503 -0.00000000000E+00 -0.00000000000E+00 -0.20170847607E+03  0.20170847607E+03  0.00000000000E+00 0. -1.
          6    2    1    2  501    0  0.31915359883E+02 -0.46240542566E+02  0.18801960286E+02  0.18253382912E+03  0.17265082418E+03 0.  0.
         24    2    3    3    0    0  0.76469683670E+02 -0.27434651017E+02 -0.23138141236E+02  0.11834807182E+03  0.82889202712E+02 0.  0.
         -6    2    1    2    0  502 -0.31915359883E+02  0.46240542566E+02 -0.49865464672E+02  0.18981961863E+03  0.17432195810E+03 0.  0.
        -24    2    5    5    0    0  0.93621491658E+01  0.80725771553E+02 -0.69483659332E+02  0.13237375425E+03  0.78041859740E+02 0.  0.
          5    1    3    3  501    0 -0.44554323787E+02 -0.18805891548E+02  0.41940101522E+02  0.64185757304E+02  0.47000000000E+01 0. -1.
        -15    1    4    4    0    0  0.27748492302E+02  0.18051734007E+02  0.20221553894E+02  0.38831854148E+02  0.17770000000E+01 0.  1.
         16    1    4    4    0    0  0.48721191368E+02 -0.45486385024E+02 -0.43359695130E+02  0.79516217670E+02  0.00000000000E+00 0. -1.
         -5    1    5    5    0  502 -0.41277509048E+02 -0.34485228987E+02  0.19618194659E+02  0.57445864370E+02  0.47000000000E+01 0.  1.
         15    1    6    6    0    0 -0.23555742299E+02  0.24550069572E+02  0.38737041162E+01  0.34289097741E+02  0.17770000000E+01 0. -1.
        -16    1    6    6    0    0  0.32917891465E+02  0.56175701980E+02 -0.73357363448E+02  0.98084656514E+02  0.00000000000E+00 0.  1.
<mgrwt>
<rscale>  2 0.18275397E+03</rscale>
<asrwt>0</asrwt>
<pdfrwt beam="1">  1       21 0.26253072E-01 0.18315273E+03</pdfrwt>
<pdfrwt beam="2">  1       21 0.31032073E-01 0.18315273E+03</pdfrwt>
<totfact> 0.13802159E+05</totfact>
</mgrwt>
</event>
<event>
12    2  0.4097182E-002  0.1945298E+03  0.7546771E-02  0.1154467E+00
         21   -1    0    0  501  502  0.00000000000E+00  0.00000000000E+00  0.94888037840E+03  0.94888037840E+03  0.00000000000E+00 0. -1.
         21   -1    0    0  502  503 -0.00000000000E+00 -0.00000000000E+00 -0.39931598757E+02  0.39931598757E+02  0.00000000000E+00 0. -1.
         -6    2    1    2    0  503 -0.88624019816E+02  0.12611753923E+02  0.43242402703E+03  0.47411041453E+03  0.17255976584E+03 0.  0.
        -24    2    3    3    0    0 -0.10106628112E+03 -0.39855794806E+02  0.35092173292E+03  0.37627193804E+03  0.81434827698E+02 0.  0.
          6    2    1    2  501    0  0.88624019816E+02 -0.12611753923E+02  0.47652475261E+03  0.51470156263E+03  0.17270954083E+03 0.  0.
         24    2    5    5    0    0  0.41725182678E+02  0.57025670957E+00  0.45073984967E+03  0.45938232955E+03  0.78258523858E+02 0.  0.
          5    1    5    5  501    0  0.46898837138E+02 -0.13182010633E+02  0.25784902945E+02  0.55319233085E+02  0.47000000000E+01 0. -1.
        -15    1    6    6    0    0  0.49922522478E+02 -0.26015124839E+02  0.36282811976E+03  0.36717359272E+03  0.17770000000E+01 0.  1.
         16    1    6    6    0    0 -0.81973398007E+01  0.26585381548E+02  0.87911729908E+02  0.92208736827E+02  0.00000000000E+00 0. -1.
         -5    1    3    3    0  503  0.12442261307E+02  0.52467548730E+02  0.81502294113E+02  0.97838476490E+02  0.47000000000E+01 0.  1.
         15    1    4    4    0    0 -0.24794947382E+02  0.22768015818E+02  0.13019657942E+03  0.13448969843E+03  0.17770000000E+01 0. -1.
        -16    1    4    4    0    0 -0.76271333741E+02 -0.62623810624E+02  0.22072515349E+03  0.24178223961E+03  0.00000000000E+00 0.  1.
<mgrwt>
<rscale>  2 0.19449659E+03</rscale>
<asrwt>0</asrwt>
<pdfrwt beam="1">  1       21 0.14598158E+00 0.19452984E+03</pdfrwt>
<pdfrwt beam="2">  1       21 0.61433236E-02 0.19452984E+03</pdfrwt>
<totfact> 0.60719780E+04</totfact>
</mgrwt>
</event>
<event>
12    2  0.4097182E-002  0.3446795E+03  0.7546771E-02  0.1064911E+00
         21   -1    0    0  501  502  0.00000000000E+00  0.00000000000E+00  0.27723397402E+03  0.27723397402E+03  0.00000000000E+00 0.  1.
         21   -1    0    0  502  503 -0.00000000000E+00 -0.00000000000E+00 -0.42994667680E+03  0.42994667680E+03  0.00000000000E+00 0. -1.
         -6    2    1    2    0  503  0.27669467344E+03  0.11102377316E+03 -0.10318195619E+03  0.35896048712E+03  0.17123053089E+03 0.  0.
        -24    2    3    3    0    0  0.28374074150E+03  0.12023868435E+03 -0.11784410143E+03  0.33968277547E+03  0.80814640396E+02 0.  0.
          6    2    1    2  501    0 -0.27669467344E+03 -0.11102377316E+03 -0.49530746598E+02  0.34822016371E+03  0.17296753174E+03 0.  0.
         24    2    5    5    0    0 -0.41276495681E+02 -0.40784050441E+02 -0.17246606467E+02  0.10039019624E+03  0.80085318263E+02 0.  0.
          5    1    5    5  501    0 -0.23541817776E+03 -0.70239722722E+02 -0.32284140131E+02  0.24782996747E+03  0.47000000000E+01 0. -1.
        -15    1    6    6    0    0 -0.29929724633E+02 -0.18994515405E+02  0.30432996931E+02  0.46753663634E+02  0.17770000000E+01 0.  1.
         16    1    6    6    0    0 -0.11346771048E+02 -0.21789535036E+02 -0.47679603397E+02  0.53636532610E+02  0.00000000000E+00 0. -1.
         -5    1    3    3    0  503 -0.70460680593E+01 -0.92149111891E+01  0.14662145244E+02  0.19277711650E+02  0.47000000000E+01 0.  1.
         15    1    4    4    0    0  0.18228233612E+03  0.56622779663E+02 -0.10850390867E+03  0.21956603828E+03  0.17770000000E+01 0. -1.
        -16    1    4    4    0    0  0.10145840538E+03  0.63615904690E+02 -0.93401927592E+01  0.12011673719E+03  0.00000000000E+00 0.  1.
<mgrwt>
<rscale>  2 0.34446224E+03</rscale>
<asrwt>0</asrwt>
<pdfrwt beam="1">  1       21 0.42651381E-01 0.34467954E+03</pdfrwt>
<pdfrwt beam="2">  1       21 0.66145643E-01 0.34467954E+03</pdfrwt>
<totfact> 0.10255042E+04</totfact>
</mgrwt>
</event>
<event>
12    2  0.4097182E-002  0.1945947E+03  0.7546771E-02  0.1154455E+00
         21   -1    0    0  501  502  0.00000000000E+00  0.00000000000E+00  0.31366175642E+03  0.31366175642E+03  0.00000000000E+00 0.  1.
         21   -1    0    0  502  503 -0.00000000000E+00 -0.00000000000E+00 -0.21243916410E+03  0.21243916410E+03  0.00000000000E+00 0.  1.
         -6    2    1    2    0  503  0.88638340199E+02 -0.64532522025E+01 -0.12244697003E+03  0.22962975282E+03  0.17273726609E+03 0.  0.
        -24    2    3    3    0    0  0.10964604661E+03 -0.50698673904E+02 -0.91618407144E+02  0.17156538027E+03  0.80300287104E+02 0.  0.
          6    2    1    2  501    0 -0.88638340199E+02  0.64532522025E+01  0.22366956234E+03  0.29647116770E+03  0.17311464508E+03 0.  0.
         24    2    5    5    0    0 -0.98775686102E+02 -0.32372359693E+02  0.97123713910E+02  0.16363240952E+03  0.80857552542E+02 0.  0.
          5    1    5    5  501    0  0.10137345902E+02  0.38825611896E+02  0.12654584843E+03  0.13283875819E+03  0.47000000000E+01 0. -1.
        -15    1    6    6    0    0 -0.99028231587E+02 -0.24108134422E+02  0.10895072107E+03  0.14920191067E+03  0.17770000000E+01 0.  1.
         16    1    6    6    0    0  0.25254548510E+00 -0.82642252707E+01 -0.11827007161E+02  0.14430498846E+02  0.00000000000E+00 0. -1.
         -5    1    3    3    0  503 -0.21007706407E+02  0.44245421702E+02 -0.30828562882E+02  0.58064372548E+02  0.47000000000E+01 0.  1.
         15    1    4    4    0    0  0.11060635093E+02 -0.90059054724E+01  0.14797469574E+02  0.20629270875E+02  0.17770000000E+01 0. -1.
        -16    1    4    4    0    0  0.98585411514E+02 -0.41692768432E+02 -0.10641587672E+03  0.15093610940E+03  0.00000000000E+00 0.  1.
<mgrwt>
<rscale>  2 0.19451069E+03</rscale>
<asrwt>0</asrwt>
<pdfrwt beam="1">  1       21 0.48255655E-01 0.19459466E+03</pdfrwt>
<pdfrwt beam="2">  1       21 0.32682949E-01 0.19459466E+03</pdfrwt>
<totfact> 0.36928717E+04</totfact>
</mgrwt>
</event>
<event>
12    2  0.4097182E-002  0.2417005E+03  0.7546771E-02  0.1118758E+00
         21   -1    0    0  501  502  0.00000000000E+00  0.00000000000E+00  0.97226053371E+02  0.97226053371E+02  0.00000000000E+00 0.  1.
         21   -1    0    0  502  503 -0.00000000000E+00 -0.00000000000E+00 -0.68651177331E+03  0.68651177331E+03  0.00000000000E+00 0.  1.
         -6    2    1    2    0  503  0.15419437463E+03  0.66686046716E+02 -0.43447871277E+03  0.49718292938E+03  0.17377047915E+03 0.  0.
        -24    2    3    3    0    0  0.41347421636E+01  0.10290440358E+02 -0.12178151053E+03  0.14575727863E+03  0.79318716031E+02 0.  0.
          6    2    1    2  501    0 -0.15419437463E+03 -0.66686046716E+02 -0.15480700717E+03  0.28655489730E+03  0.17299007400E+03 0.  0.
         24    2    5    5    0    0 -0.14837969442E+03 -0.35757445908E+02 -0.56396876150E+02  0.18312843675E+03  0.84025520255E+02 0.  0.
          5    1    5    5  501    0 -0.58146802112E+01 -0.30928600808E+02 -0.98410131015E+02  0.10342646054E+03  0.47000000000E+01 0. -1.
        -15    1    6    6    0    0 -0.14245672727E+03 -0.36047963707E+02 -0.74011424686E+02  0.16454246730E+03  0.17770000000E+01 0.  1.
         16    1    6    6    0    0 -0.59229671515E+01  0.29051779936E+00  0.17614548536E+02  0.18585969455E+02  0.00000000000E+00 0. -1.
         -5    1    3    3    0  503  0.15005963247E+03  0.56395606358E+02 -0.31269720224E+03  0.35142565075E+03  0.47000000000E+01 0.  1.
         15    1    4    4    0    0 -0.33017701154E+02  0.16811380062E+02 -0.34432464559E+02  0.50611692658E+02  0.17770000000E+01 0. -1.
        -16    1    4    4    0    0  0.37152443317E+02 -0.65209397044E+01 -0.87349045969E+02  0.95145585976E+02  0.00000000000E+00 0.  1.
<mgrwt>
<rscale>  2 0.24156022E+03</rscale>
<asrwt>0</asrwt>
<pdfrwt beam="1">  1       21 0.14957855E-01 0.24170046E+03</pdfrwt>
<pdfrwt beam="2">  1       21 0.10561719E+00 0.24170046E+03</pdfrwt>
<totfact> 0.27657715E+04</totfact>
</mgrwt>
</event>
<event>
12    2  0.4097182E-002  0.2171954E+03  0.7546771E-02  0.1136309E+00
         21   -1    0    0  501  502  0.00000000000E+00  0.00000000000E+00  0.13962739509E+04  0.13962739509E+04  0.00000000000E+00 0. -1.
         21   -1    0    0  502  503 -0.00000000000E+00 -0.00000000000E+00 -0.40646638335E+02  0.40646638335E+02  0.00000000000E+00 0.  1.
         -6    2    1    2    0  503 -0.23351661217E+02  0.12862335017E+03  0.37926487387E+03  0.43705339990E+03  0.17344902282E+03 0.  0.
        -24    2    3    3    0    0 -0.45982418199E+00  0.77667154260E+02  0.36070155238E+03  0.37800039820E+03  0.82135819601E+02 0.  0.
          6    2    1    2  501    0  0.23351661217E+02 -0.12862335017E+03  0.97636243871E+03  0.99986718935E+03  0.17135203044E+03 0.  0.
         24    2    5    5    0    0  0.24640472841E+01 -0.14237071305E+03  0.59140554987E+03  0.61407037928E+03  0.83942925992E+02 0.  0.
          5    1    5    5  501    0  0.20887613933E+02  0.13747362881E+02  0.38495688883E+03  0.38579681007E+03  0.47000000000E+01 0. -1.
        -15    1    6    6    0    0  0.33369524040E+00  0.10945272541E+02  0.26566742193E+02  0.28789926420E+02  0.17770000000E+01 0.  1.
         16    1    6    6    0    0  0.21303520437E+01 -0.15331598559E+03  0.56483880768E+03  0.58528045286E+03  0.00000000000E+00 0. -1.
         -5    1    3    3    0  503 -0.22891837035E+02  0.50956195906E+02  0.18563321486E+02  0.59053001691E+02  0.47000000000E+01 0.  1.
         15    1    4    4    0    0  0.38756854249E+02  0.51304267861E+02  0.23722370532E+03  0.24578947444E+03  0.17770000000E+01 0. -1.
        -16    1    4    4    0    0 -0.39216678431E+02  0.26362886399E+02  0.12347784706E+03  0.13221092376E+03  0.00000000000E+00 0.  1.
<mgrwt>
<rscale>  2 0.21677643E+03</rscale>
<asrwt>0</asrwt>
<pdfrwt beam="1">  1       21 0.21481134E+00 0.21719537E+03</pdfrwt>
<pdfrwt beam="2">  1       21 0.62533300E-02 0.21719537E+03</pdfrwt>
<totfact> 0.19520540E+04</totfact>
</mgrwt>
</event>
<event>
12    2  0.4097182E-002  0.1934226E+03  0.7546771E-02  0.1155625E+00
         21   -1    0    0  501  502  0.00000000000E+00  0.00000000000E+00  0.39035380788E+03  0.39035380788E+03  0.00000000000E+00 0. -1.
         21   -1    0    0  502  503 -0.00000000000E+00 -0.00000000000E+00 -0.15723057462E+03  0.15723057462E+03  0.00000000000E+00 0. -1.
         -6    2    1    2    0  503 -0.82235694208E+02  0.21748376421E+02 -0.55364532916E+02  0.20025530710E+03  0.17263040067E+03 0.  0.
        -24    2    3    3    0    0 -0.58056292992E+02 -0.44324057837E+02 -0.38984664124E+01  0.11295664724E+03  0.86074681850E+02 0.  0.
          6    2    1    2  501    0  0.82235694208E+02 -0.21748376421E+02  0.28848776617E+03  0.34732907541E+03  0.17371411605E+03 0.  0.
         24    2    5    5    0    0  0.10343937133E+02 -0.28213174018E+02  0.49932783865E+02  0.98048534798E+02  0.78849553252E+02 0.  0.
          5    1    5    5  501    0  0.71891757074E+02  0.64647975971E+01  0.23855498231E+03  0.24928054061E+03  0.47000000000E+01 0. -1.
        -15    1    6    6    0    0 -0.20875679962E+02 -0.30440786502E+02  0.55081169271E+02  0.66328941149E+02  0.17770000000E+01 0.  1.
         16    1    6    6    0    0  0.31219617096E+02  0.22276124841E+01 -0.51483854055E+01  0.31719593649E+02  0.00000000000E+00 0. -1.
         -5    1    3    3    0  503 -0.24179401216E+02  0.66072434257E+02 -0.51466066504E+02  0.87298659859E+02  0.47000000000E+01 0.  1.
         15    1    4    4    0    0 -0.30308746023E+02 -0.68950453830E+02 -0.73512123787E+01  0.75696652643E+02  0.17770000000E+01 0. -1.
        -16    1    4    4    0    0 -0.27747546969E+02  0.24626395994E+02  0.34527459663E+01  0.37259994594E+02  0.00000000000E+00 0.  1.
<mgrwt>
<rscale>  2 0.19317895E+03</rscale>
<asrwt>0</asrwt>
<pdfrwt beam="1">  1       21 0.60054432E-01 0.19342258E+03</pdfrwt>
<pdfrwt beam="2">  1       21 0.24189319E-01 0.19342258E+03</pdfrwt>
<totfact> 0.41698487E+04</totfact>
</mgrwt>
</event>
<event>
11    2  0.4097182E-002  0.1808523E+03  0.7546771E-02  0.1167182E+00
         21   -1    0    0  501  502  0.00000000000E+00  0.00000000000E+00  0.16728728379E+03  0.16728728379E+03  0.00000000000E+00 0. -1.
         21   -1    0    0  502  503 -0.00000000000E+00 -0.00000000000E+00 -0.19700442981E+03  0.19700442981E+03  0.00000000000E+00 0.  1.
         -6    2    1    2    0  503  0.18444405076E+02 -0.47281942695E+02  0.52392211795E+01  0.18009210524E+03  0.17271345851E+03 0.  0.
        -24    2    3    3    0    0  0.81927796823E+02 -0.47903767393E+02 -0.45485790704E+01  0.11568388584E+03  0.65993462160E+02 0.  0.
          6    2    1    2  501    0 -0.18444405076E+02  0.47281942695E+02 -0.34956367203E+02  0.18419960836E+03  0.17358505099E+03 0.  0.
          5    1    5    5  501    0 -0.34520514222E+01  0.10422200738E+03 -0.41749016764E+02  0.11242425843E+03  0.47000000000E+01 0. -1.
        -15    1    5    5    0    0 -0.16490231487E+02 -0.51356560676E+02 -0.92207899640E+01  0.54750385894E+02  0.17770000000E+01 0.  1.
         16    1    5    5    0    0  0.14978778332E+01 -0.55835040122E+01  0.16013439524E+02  0.17024964037E+02  0.00000000000E+00 0. -1.
         -5    1    3    3    0  503 -0.63483391747E+02  0.62182469800E+00  0.97878002498E+01  0.64408219409E+02  0.47000000000E+01 0.  1.
         15    1    4    4    0    0  0.30246948172E+02 -0.48768739234E+02  0.16707125927E+02  0.59795932854E+02  0.17770000000E+01 0. -1.
        -16    1    4    4    0    0  0.51680848651E+02  0.86497184119E+00 -0.21255704997E+02  0.55887952981E+02  0.00000000000E+00 0.  1.
<mgrwt>
<rscale>  2 0.18064282E+03</rscale>
<asrwt>0</asrwt>
<pdfrwt beam="1">  1       21 0.25736505E-01 0.18085228E+03</pdfrwt>
<pdfrwt beam="2">  1       21 0.30308374E-01 0.18085228E+03</pdfrwt>
<totfact> 0.15024180E+05</totfact>
</mgrwt>
</event>
<event>
12    2  0.4097182E-002  0.1893702E+03  0.7546771E-02  0.1159589E+00
         21   -1    0    0  503  502  0.00000000000E+00  0.00000000000E+00  0.91175599470E+03  0.91175599470E+03  0.00000000000E+00 0. -1.
         21   -1    0    0  501  503 -0.00000000000E+00 -0.00000000000E+00 -0.38919921142E+02  0.38919921142E+02  0.00000000000E+00 0.  1.
          6    2    1    2  501    0 -0.61166968480E+02  0.35391338709E+02  0.46269142743E+03  0.49994441768E+03  0.17569040630E+03 0.  0.
         24    2    3    3    0    0 -0.61346783409E+02 -0.36910663830E+02  0.19759270362E+03  0.22512259309E+03  0.80693744856E+02 0.  0.
         -6    2    1    2    0  502  0.61166968480E+02 -0.35391338709E+02  0.41014464613E+03  0.45073149816E+03  0.17305001530E+03 0.  0.
        -24    2    5    5    0    0  0.10280614664E+03 -0.19748239692E+02  0.36210440913E+03  0.38509246956E+03  0.78851190502E+02 0.  0.
          5    1    3    3  501    0  0.17981492837E+00  0.72302002538E+02  0.26509872381E+03  0.27482182459E+03  0.47000000000E+01 0. -1.
        -15    1    4    4    0    0 -0.34249074003E+02  0.35838474348E+00  0.16129699532E+02  0.37900559965E+02  0.17770000000E+01 0.  1.
         16    1    4    4    0    0 -0.27097709406E+02 -0.37269048573E+02  0.18146300408E+03  0.18722203313E+03  0.00000000000E+00 0. -1.
         -5    1    5    5    0  502 -0.41639178158E+02 -0.15643099017E+02  0.48040237004E+02  0.65639028603E+02  0.47000000000E+01 0.  1.
         15    1    6    6    0    0  0.55209115217E+02  0.22127428254E+02  0.24285649634E+03  0.25004020682E+03  0.17770000000E+01 0. -1.
        -16    1    6    6    0    0  0.47597031421E+02 -0.41875667946E+02  0.11924791279E+03  0.13505226273E+03  0.00000000000E+00 0.  1.
<mgrwt>
<rscale>  2 0.18875543E+03</rscale>
<asrwt>0</asrwt>
<pdfrwt beam="1">  1       21 0.14027014E+00 0.18937018E+03</pdfrwt>
<pdfrwt beam="2">  1       21 0.59876808E-02 0.18937018E+03</pdfrwt>
<totfact> 0.70569633E+04</totfact>
</mgrwt>
</event>
<event>
12    2  0.4097182E-002  0.4522794E+03  0.7546771E-02  0.1027056E+00
         21   -1    0    0  501  502  0.00000000000E+00  0.00000000000E+00  0.11816203924E+04  0.11816203924E+04  0.00000000000E+00 0.  1.
         21   -1    0    0  502  503 -0.00000000000E+00 -0.00000000000E+00 -0.28561672385E+03  0.28561672385E+03  0.00000000000E+00 0. -1.
         -6    2    1    2    0  503  0.33063310583E+03  0.25535780203E+03 -0.12594803539E+02  0.45229482973E+03  0.17287604286E+03 0.  0.
        -24    2    3    3    0    0  0.11987785781E+03  0.81579300351E+02 -0.57752168375E+02  0.17538686702E+03  0.79995981968E+02 0.  0.
          6    2    1    2  501    0 -0.33063310583E+03 -0.25535780203E+03  0.90859847214E+03  0.10149422866E+04  0.17329398078E+03 0.  0.
         24    2    5    5    0    0 -0.33659011438E+03 -0.26118075226E+03  0.90769882977E+03  0.10053354111E+04  0.72621159239E+02 0.  0.
          5    1    5    5  501    0  0.59570085453E+01  0.58229502328E+01  0.89964236742E+00  0.96068754864E+01  0.47000000000E+01 0. -1.
        -15    1    6    6    0    0 -0.12957240779E+03 -0.60546169631E+02  0.27172008561E+03  0.30706645889E+03  0.17770000000E+01 0.  1.
         16    1    6    6    0    0 -0.20701770658E+03 -0.20063458263E+03  0.63597874415E+03  0.69826895220E+03  0.00000000000E+00 0. -1.
         -5    1    3    3    0  503  0.21075524802E+03  0.17377850168E+03  0.45157364836E+02  0.27690796271E+03  0.47000000000E+01 0.  1.
         15    1    4    4    0    0  0.12280132183E+03  0.55767136256E+02 -0.31618782984E+02  0.13853895949E+03  0.17770000000E+01 0. -1.
        -16    1    4    4    0    0 -0.29234640227E+01  0.25812164095E+02 -0.26133385391E+02  0.36847907527E+02  0.00000000000E+00 0.  1.
<mgrwt>
<rscale>  2 0.45223941E+03</rscale>
<asrwt>0</asrwt>
<pdfrwt beam="1">  1       21 0.18178775E+00 0.45227941E+03</pdfrwt>
<pdfrwt beam="2">  1       21 0.43941035E-01 0.45227941E+03</pdfrwt>
<totfact> 0.73315140E+02</totfact>
</mgrwt>
</event>
<event>
12    2  0.4097182E-002  0.2202196E+03  0.7546771E-02  0.1133769E+00
         21   -1    0    0  503  502  0.00000000000E+00  0.00000000000E+00  0.15929064859E+04  0.15929064859E+04  0.00000000000E+00 0.  1.
         21   -1    0    0  501  503 -0.00000000000E+00 -0.00000000000E+00 -0.52222243963E+02  0.52222243963E+02  0.00000000000E+00 0. -1.
          6    2    1    2  501    0 -0.18665303008E+02  0.13449844225E+03  0.23898819781E+03  0.32498006355E+03  0.17337375380E+03 0.  0.
         24    2    3    3    0    0  0.98049471429E+01  0.10203129066E+01  0.99994396950E+02  0.13012541815E+03  0.82683535239E+02 0.  0.
         -6    2    1    2    0  502  0.18665303008E+02 -0.13449844225E+03  0.13016960442E+04  0.13201486664E+04  0.17303665908E+03 0.  0.
        -24    2    5    5    0    0  0.75742845225E+02 -0.97757353715E+02  0.74133130156E+03  0.75566794201E+03  0.78539551120E+02 0.  0.
          5    1    3    3  501    0 -0.28470250151E+02  0.13347812934E+03  0.13899380086E+03  0.19485464540E+03  0.47000000000E+01 0. -1.
        -15    1    4    4    0    0  0.33287242348E+02 -0.41983812099E+01  0.73282221474E+01  0.34387897243E+02  0.17770000000E+01 0.  1.
         16    1    4    4    0    0 -0.23482295205E+02  0.52186941165E+01  0.92666174803E+02  0.95737520905E+02  0.00000000000E+00 0. -1.
         -5    1    5    5    0  502 -0.57077542218E+02 -0.36741088531E+02  0.56036474261E+03  0.56448072436E+03  0.47000000000E+01 0.  1.
         15    1    6    6    0    0 -0.14223143745E+02 -0.17643147184E+01  0.93979451081E+02  0.95082625010E+02  0.17770000000E+01 0. -1.
        -16    1    6    6    0    0  0.89965988970E+02 -0.95993038996E+02  0.64735185048E+03  0.66058531700E+03  0.00000000000E+00 0.  1.
<mgrwt>
<rscale>  2 0.22015327E+03</rscale>
<asrwt>0</asrwt>
<pdfrwt beam="1">  1       21 0.24506250E+00 0.22021962E+03</pdfrwt>
<pdfrwt beam="2">  1       21 0.80341926E-02 0.22021962E+03</pdfrwt>
<totfact> 0.82570776E+03</totfact>
</mgrwt>
</event>
<event>
11    2  0.4097182E-002  0.1804354E+03  0.7546771E-02  0.1168437E+00
         21   -1    0    0  501  502  0.00000000000E+00  0.00000000000E+00  0.61519618788E+02  0.61519618788E+02  0.00000000000E+00 0. -1.
         21   -1    0    0  502  503 -0.00000000000E+00 -0.00000000000E+00 -0.65734932746E+03  0.65734932746E+03  0.00000000000E+00 0. -1.
         -6    2    1    2    0  503  0.47937189916E+02 -0.14811889114E+02 -0.46137286251E+03  0.49384548007E+03  0.16882261014E+03 0.  0.
          6    2    1    2  501    0 -0.47937189916E+02  0.14811889114E+02 -0.13445684616E+03  0.22502346617E+03  0.17331921593E+03 0.  0.
         24    2    4    4    0    0 -0.13573300918E+02  0.46597383783E+02 -0.91182235424E+01  0.91146452241E+02  0.76609288486E+02 0.  0.
          5    1    4    4  501    0 -0.34363888998E+02 -0.31785494669E+02 -0.12533862262E+03  0.13387701393E+03  0.47000000000E+01 0. -1.
        -15    1    5    5    0    0 -0.33028671450E+02 -0.58134938193E+01  0.37112155762E+01  0.33787877977E+02  0.17770000000E+01 0.  1.
         16    1    5    5    0    0  0.19455370532E+02  0.52410877602E+02 -0.12829439119E+02  0.57358574265E+02  0.00000000000E+00 0. -1.
         -5    1    3    3    0  503  0.97997261887E+02 -0.87392511032E+01 -0.18805259942E+03  0.21228685309E+03  0.47000000000E+01 0.  1.
         15    1    3    3    0    0 -0.32280320850E+01  0.14767549783E+02 -0.43335370419E+02  0.45930521182E+02  0.17770000000E+01 0. -1.
        -16    1    3    3    0    0 -0.46832039886E+02 -0.20840187793E+02 -0.22998489267E+03  0.23562810580E+03  0.00000000000E+00 0.  1.
<mgrwt>
<rscale>  2 0.17934684E+03</rscale>
<asrwt>0</asrwt>
<pdfrwt beam="1">  1       21 0.94645571E-02 0.18043535E+03</pdfrwt>
<pdfrwt beam="2">  1       21 0.10113066E+00 0.18043535E+03</pdfrwt>
<totfact> 0.71864791E+04</totfact>
</mgrwt>
</event>
<event>
12    2  0.4097182E-002  0.1957288E+03  0.7546771E-02  0.1154073E+00
         21   -1    0    0  503  502  0.00000000000E+00  0.00000000000E+00  0.26740314961E+02  0.26740314961E+02  0.00000000000E+00 0.  1.
         21   -1    0    0  501  503 -0.00000000000E+00 -0.00000000000E+00 -0.25597383342E+04  0.25597383342E+04  0.00000000000E+00 0.  1.
          6    2    1    2  501    0 -0.71418361214E+02 -0.41489595160E+02 -0.21387718718E+04  0.21477092178E+04  0.17744800891E+03 0.  0.
         24    2    3    3    0    0 -0.43660460484E+02 -0.34436778580E+02 -0.20790116557E+04  0.20812741615E+04  0.79501845349E+02 0.  0.
         -6    2    1    2    0  502  0.71418361214E+02  0.41489595160E+02 -0.39422614742E+03  0.43876943132E+03  0.17401836033E+03 0.  0.
        -24    2    5    5    0    0  0.39126582224E+02  0.74672942491E+02 -0.36582849570E+03  0.38424961700E+03  0.81916677923E+02 0.  0.
          5    1    3    3  501    0 -0.27757900730E+02 -0.70528165799E+01 -0.59760216106E+02  0.66435056285E+02  0.47000000000E+01 0. -1.
        -15    1    4    4    0    0 -0.43078690121E+02 -0.14234215258E+02 -0.48181212047E+03  0.48394675698E+03  0.17770000000E+01 0.  1.
         16    1    4    4    0    0 -0.58177036309E+00 -0.20202563322E+02 -0.15971995352E+04  0.15973274046E+04  0.00000000000E+00 0. -1.
         -5    1    5    5    0  502  0.32291778990E+02 -0.33183347331E+02 -0.28397651711E+02  0.54519814317E+02  0.47000000000E+01 0.  1.
         15    1    6    6    0    0 -0.31154424097E+01 -0.15079769205E+02 -0.85358944336E+02  0.86754899158E+02  0.17770000000E+01 0. -1.
        -16    1    6    6    0    0  0.42242024634E+02  0.89752711696E+02 -0.28046955137E+03  0.29749471785E+03  0.00000000000E+00 0.  1.
<mgrwt>
<rscale>  2 0.19494817E+03</rscale>
<asrwt>0</asrwt>
<pdfrwt beam="1">  1       21 0.41138928E-02 0.19572880E+03</pdfrwt>
<pdfrwt beam="2">  1       21 0.39380607E+00 0.19572880E+03</pdfrwt>
<totfact> 0.35426380E+03</totfact>
</mgrwt>
</event>
<event>
12    2  0.4097182E-002  0.2552801E+03  0.7546771E-02  0.1110048E+00
         21   -1    0    0  501  502  0.00000000000E+00  0.00000000000E+00  0.41836852242E+03  0.41836852242E+03  0.00000000000E+00 0. -1.
         21   -1    0    0  502  503 -0.00000000000E+00 -0.00000000000E+00 -0.25163377765E+03  0.25163377765E+03  0.00000000000E+00 0.  1.
         -6    2    1    2    0  503  0.28676617705E+02  0.18627347243E+03 -0.12353515816E+03  0.28359981525E+03  0.17218526351E+03 0.  0.
        -24    2    3    3    0    0  0.93999353868E+01  0.59215092656E+02  0.67411721565E+01  0.10054399154E+03  0.80429253688E+02 0.  0.
          6    2    1    2  501    0 -0.28676617705E+02 -0.18627347243E+03  0.29026990294E+03  0.38640248482E+03  0.17184326810E+03 0.  0.
         24    2    5    5    0    0 -0.42087296392E+01 -0.19622868285E+03  0.29164968859E+03  0.35953656646E+03  0.75389604025E+02 0.  0.
          5    1    5    5  501    0 -0.24467888066E+02  0.99552104139E+01 -0.13797856497E+01  0.26865918358E+02  0.47000000000E+01 0. -1.
        -15    1    6    6    0    0  0.12383392380E+02 -0.91933268010E+01  0.40110096987E+01  0.16034699633E+02  0.17770000000E+01 0.  1.
         16    1    6    6    0    0 -0.16592122019E+02 -0.18703535605E+03  0.28763867889E+03  0.34350186683E+03  0.00000000000E+00 0. -1.
         -5    1    3    3    0  503  0.19276682318E+02  0.12705837978E+03 -0.13027633032E+03  0.18305582371E+03  0.47000000000E+01 0.  1.
         15    1    4    4    0    0 -0.48787112778E+01 -0.12691912532E+02 -0.18483410691E+02  0.23014792357E+02  0.17770000000E+01 0. -1.
        -16    1    4    4    0    0  0.14278646665E+02  0.71907005189E+02  0.25224582848E+02  0.77529199181E+02  0.00000000000E+00 0.  1.
<mgrwt>
<rscale>  2 0.25522242E+03</rscale>
<asrwt>0</asrwt>
<pdfrwt beam="1">  1       21 0.64364388E-01 0.25528008E+03</pdfrwt>
<pdfrwt beam="2">  1       21 0.38712889E-01 0.25528008E+03</pdfrwt>
<totfact> 0.13813807E+04</totfact>
</mgrwt>
</event>
<event>
12    2  0.4097182E-002  0.1864947E+03  0.7546771E-02  0.1161864E+00
         21   -1    0    0  503  502  0.00000000000E+00  0.00000000000E+00  0.66076838946E+02  0.66076838946E+02  0.00000000000E+00 0. -1.
         21   -1    0    0  501  503 -0.00000000000E+00 -0.00000000000E+00 -0.65980864699E+03  0.65980864699E+03  0.00000000000E+00 0. -1.
          6    2    1    2  501    0  0.12407200966E+01 -0.70054567014E+02 -0.46103638358E+03  0.49700049368E+03  0.17188880704E+03 0.  0.
         24    2    3    3    0    0  0.63322959286E+02 -0.43368578118E+02 -0.22533626744E+03  0.25175983397E+03  0.81950898931E+02 0.  0.
         -6    2    1    2    0  502 -0.12407200966E+01  0.70054567014E+02 -0.13269542446E+03  0.22888499226E+03  0.17283252663E+03 0.  0.
        -24    2    5    5    0    0  0.43892440972E+02  0.35597066447E+01 -0.21482833307E+02  0.91593699324E+02  0.77386534636E+02 0.  0.
          5    1    3    3  501    0 -0.62082239189E+02 -0.26685988896E+02 -0.23570011615E+03  0.24524065972E+03  0.47000000000E+01 0. -1.
        -15    1    4    4    0    0 -0.76056290514E+01  0.44611982147E+01  0.16881856583E+01  0.91518076136E+01  0.17770000000E+01 0.  1.
         16    1    4    4    0    0  0.70928588337E+02 -0.47829776333E+02 -0.22702445310E+03  0.24260802635E+03  0.00000000000E+00 0. -1.
         -5    1    5    5    0  502 -0.45133161069E+02  0.66494860369E+02 -0.11121259116E+03  0.13729129293E+03  0.47000000000E+01 0.  1.
         15    1    6    6    0    0  0.17143063469E+02  0.33903066131E+02 -0.32105351891E+02  0.49771617085E+02  0.17770000000E+01 0. -1.
        -16    1    6    6    0    0  0.26749377503E+02 -0.30343359487E+02  0.10622518584E+02  0.41822082239E+02  0.00000000000E+00 0.  1.
<mgrwt>
<rscale>  2 0.18627573E+03</rscale>
<asrwt>0</asrwt>
<pdfrwt beam="1">  1       21 0.10165668E-01 0.18649468E+03</pdfrwt>
<pdfrwt beam="2">  1       21 0.10150902E+00 0.18649468E+03</pdfrwt>
<totfact> 0.62623578E+04</totfact>
</mgrwt>
</event>
<event>
12    2  0.4097182E-002  0.1997195E+03  0.7546771E-02  0.1150649E+00
         21   -1    0    0  501  502  0.00000000000E+00  0.00000000000E+00  0.16088612970E+04  0.16088612970E+04  0.00000000000E+00 0. -1.
         21   -1    0    0  502  503 -0.00000000000E+00 -0.00000000000E+00 -0.37350302540E+02  0.37350302540E+02  0.00000000000E+00 0.  1.
         -6    2    1    2    0  503 -0.85542268771E+02  0.37275050897E+02  0.30522574646E+03  0.36476104410E+03  0.17658129524E+03 0.  0.
        -24    2    3    3    0    0 -0.98048668923E+02 -0.30299364982E+02  0.21405160472E+03  0.25049151252E+03  0.79976967726E+02 0.  0.
          6    2    1    2  501    0  0.85542268771E+02 -0.37275050897E+02  0.12662852480E+04  0.12814505554E+04  0.17300372122E+03 0.  0.
         24    2    5    5    0    0  0.25301172884E+02 -0.85536482972E+02  0.76515182767E+03  0.77438551973E+03  0.79113680971E+02 0.  0.
          5    1    5    5  501    0  0.60241095887E+02  0.48261432075E+02  0.50113342033E+03  0.50706503570E+03  0.47000000000E+01 0. -1.
        -15    1    6    6    0    0  0.41588853803E+02 -0.13927836240E+02  0.22264816210E+03  0.22693386525E+03  0.17770000000E+01 0.  1.
         16    1    6    6    0    0 -0.16287680918E+02 -0.71608646732E+02  0.54250366557E+03  0.54745165448E+03  0.00000000000E+00 0. -1.
         -5    1    3    3    0  503  0.12506400153E+02  0.67574415879E+02  0.91174141738E+02  0.11426953158E+03  0.47000000000E+01 0.  1.
         15    1    4    4    0    0 -0.10955954057E+03 -0.15203378532E+02  0.18990364413E+03  0.21977485623E+03  0.17770000000E+01 0. -1.
        -16    1    4    4    0    0  0.11510871649E+02 -0.15095986449E+02  0.24147960590E+02  0.30716656290E+02  0.00000000000E+00 0.  1.
<mgrwt>
<rscale>  2 0.19892574E+03</rscale>
<asrwt>0</asrwt>
<pdfrwt beam="1">  1       21 0.24751707E+00 0.19971946E+03</pdfrwt>
<pdfrwt beam="2">  1       21 0.57462016E-02 0.19971946E+03</pdfrwt>
<totfact> 0.14507621E+04</totfact>
</mgrwt>
</event>
<event>
12    2  0.4097182E-002  0.1914084E+03  0.7546771E-02  0.1157321E+00
         21   -1    0    0  501  502  0.00000000000E+00  0.00000000000E+00  0.10005302467E+03  0.10005302467E+03  0.00000000000E+00 0. -1.
         21   -1    0    0  502  503 -0.00000000000E+00 -0.00000000000E+00 -0.46684190996E+03  0.46684190996E+03  0.00000000000E+00 0. -1.
         -6    2    1    2    0  503 -0.70547949298E+02 -0.37397698473E+02 -0.31549689635E+03  0.36873324528E+03  0.17335026267E+03 0.  0.
        -24    2    3    3    0    0 -0.29300072823E+02 -0.81104947507E+02 -0.26468934577E+03  0.28989665398E+03  0.80889513826E+02 0.  0.
          6    2    1    2  501    0  0.70547949298E+02  0.37397698473E+02 -0.51291988950E+02  0.19816168935E+03  0.17395857551E+03 0.  0.
         24    2    5    5    0    0  0.49872320490E+02  0.91195603933E+02 -0.22963077678E+02  0.13376981508E+03  0.81013418404E+02 0.  0.
          5    1    5    5  501    0  0.20675628808E+02 -0.53797905460E+02 -0.28328911272E+02  0.64391874273E+02  0.47000000000E+01 0. -1.
        -15    1    6    6    0    0  0.20217134477E+01  0.34141592097E+02 -0.44594551302E+02  0.56227816701E+02  0.17770000000E+01 0.  1.
         16    1    6    6    0    0  0.47850607043E+02  0.57054011836E+02  0.21631473624E+02  0.77541998376E+02  0.00000000000E+00 0. -1.
         -5    1    3    3    0  503 -0.41247876475E+02  0.43707249035E+02 -0.50807550572E+02  0.78836591295E+02  0.47000000000E+01 0.  1.
         15    1    4    4    0    0 -0.20246047015E+02 -0.80338911053E+02 -0.26777164420E+03  0.28030171997E+03  0.17770000000E+01 0. -1.
        -16    1    4    4    0    0 -0.90540258081E+01 -0.76603645438E+00  0.30822984278E+01  0.95949340165E+01  0.00000000000E+00 0.  1.
<mgrwt>
<rscale>  2 0.19127011E+03</rscale>
<asrwt>0</asrwt>
<pdfrwt beam="1">  1       21 0.15392773E-01 0.19140843E+03</pdfrwt>
<pdfrwt beam="2">  1       21 0.71821834E-01 0.19140843E+03</pdfrwt>
<totfact> 0.65552541E+04</totfact>
</mgrwt>
</event>
<event>
12    2  0.4097182E-002  0.1913196E+03  0.7546771E-02  0.1158057E+00
         21   -1    0    0  503  502  0.00000000000E+00  0.00000000000E+00  0.88867822230E+03  0.88867822230E+03  0.00000000000E+00 0.  1.
         21   -1    0    0  501  503 -0.00000000000E+00 -0.00000000000E+00 -0.51216749127E+02  0.51216749127E+02  0.00000000000E+00 0.  1.
          6    2    1    2  501    0  0.63415469712E+02  0.36016320810E+02  0.63120436217E+03  0.65856741496E+03  0.17312826476E+03 0.  0.
         24    2    3    3    0    0  0.45067735126E+01  0.72735170192E+02  0.27710976153E+03  0.29770236457E+03  0.80784664053E+02 0.  0.
         -6    2    1    2    0  502 -0.63415469712E+02 -0.36016320810E+02  0.20625711100E+03  0.28132755646E+03  0.17687425201E+03 0.  0.
        -24    2    5    5    0    0 -0.92817162262E+01 -0.55145025742E+02  0.19985054483E+03  0.22336632193E+03  0.82614462319E+02 0.  0.
          5    1    3    3  501    0  0.58908696199E+02 -0.36718849382E+02  0.35409460064E+03  0.36086505039E+03  0.47000000000E+01 0. -1.
        -15    1    4    4    0    0  0.33708713298E+01  0.65684909249E+02  0.28165466360E+03  0.28923757940E+03  0.17770000000E+01 0.  1.
         16    1    4    4    0    0  0.11359021828E+01  0.70502609427E+01 -0.45449020765E+01  0.84647851724E+01  0.00000000000E+00 0. -1.
         -5    1    5    5    0  502 -0.54133753486E+02  0.19128704932E+02  0.64065661721E+01  0.57961234536E+02  0.47000000000E+01 0.  1.
         15    1    6    6    0    0 -0.35489757768E+02  0.19213528828E+01  0.90844961191E+02  0.97566281092E+02  0.17770000000E+01 0. -1.
        -16    1    6    6    0    0  0.26208041542E+02 -0.57066378625E+02  0.10900558363E+03  0.12580004084E+03  0.00000000000E+00 0.  1.
<mgrwt>
<rscale>  2 0.19044927E+03</rscale>
<asrwt>0</asrwt>
<pdfrwt beam="1">  1       21 0.13671971E+00 0.19131962E+03</pdfrwt>
<pdfrwt beam="2">  1       21 0.78795006E-02 0.19131962E+03</pdfrwt>
<totfact> 0.46901831E+04</totfact>
</mgrwt>
</event>
<event>
12    2  0.4097182E-002  0.2483937E+03  0.7546771E-02  0.1114324E+00
         21   -1    0    0  503  502  0.00000000000E+00  0.00000000000E+00  0.79120199125E+03  0.79120199125E+03  0.00000000000E+00 0. -1.
         21   -1    0    0  501  503 -0.00000000000E+00 -0.00000000000E+00 -0.94060117086E+02  0.94060117086E+02  0.00000000000E+00 0.  1.
          6    2    1    2  501    0 -0.16501552904E+03 -0.66972720875E+02  0.16556463915E+03  0.29851363095E+03  0.17315677278E+03 0.  0.
         24    2    3    3    0    0 -0.16792632129E+02 -0.37887649143E+02  0.76540693048E+02  0.12311887178E+03  0.87076474688E+02 0.  0.
         -6    2    1    2    0  502  0.16501552904E+03  0.66972720875E+02  0.53157723502E+03  0.58674847739E+03  0.17315873863E+03 0.  0.
        -24    2    5    5    0    0  0.39836739210E+02  0.23086625431E+02  0.34883672004E+03  0.36089032587E+03  0.80217279866E+02 0.  0.
          5    1    3    3  501    0 -0.14822289691E+03 -0.29085071731E+02  0.89023946099E+02  0.17539475917E+03  0.47000000000E+01 0. -1.
        -15    1    4    4    0    0 -0.30540135170E+02  0.19959101149E+02  0.34985320242E+02  0.50578611451E+02  0.17770000000E+01 0.  1.
         16    1    4    4    0    0  0.13747503041E+02 -0.57846750292E+02  0.41555372806E+02  0.72540260327E+02  0.00000000000E+00 0. -1.
         -5    1    5    5    0  502  0.12517878983E+03  0.43886095444E+02  0.18274051497E+03  0.22585815152E+03  0.47000000000E+01 0.  1.
         15    1    6    6    0    0 -0.19643157537E+02  0.11490692374E+02  0.18128661531E+03  0.18271804582E+03  0.17770000000E+01 0. -1.
        -16    1    6    6    0    0  0.59479896747E+02  0.11595933056E+02  0.16755010473E+03  0.17817228005E+03  0.00000000000E+00 0.  1.
<mgrwt>
<rscale>  2 0.24839333E+03</rscale>
<asrwt>0</asrwt>
<pdfrwt beam="1">  1       21 0.12172338E+00 0.24839368E+03</pdfrwt>
<pdfrwt beam="2">  1       21 0.14470788E-01 0.24839368E+03</pdfrwt>
<totfact> 0.20666641E+04</totfact>
</mgrwt>
</event>
<event>
12    2  0.4097182E-002  0.2298093E+03  0.7546771E-02  0.1127099E+00
         21   -1    0    0  501  502  0.00000000000E+00  0.00000000000E+00  0.21708419678E+03  0.21708419678E+03  0.00000000000E+00 0. -1.
         21   -1    0    0  502  503 -0.00000000000E+00 -0.00000000000E+00 -0.40159625163E+03  0.40159625163E+03  0.00000000000E+00 0. -1.
         -6    2    1    2    0  503  0.47678690624E+02 -0.14373222676E+03 -0.28788759361E+03  0.36836336924E+03  0.17285859739E+03 0.  0.
        -24    2    3    3    0    0  0.17102460623E+02 -0.40277212596E+02 -0.23257910929E+03  0.24704163073E+03  0.70864499021E+02 0.  0.
          6    2    1    2  501    0 -0.47678690624E+02  0.14373222676E+03  0.10337553876E+03  0.25031707917E+03  0.17041105469E+03 0.  0.
         24    2    5    5    0    0 -0.94431743271E+02  0.12382340655E+03  0.74137448464E+02  0.19150241282E+03  0.83229938743E+02 0.  0.
          5    1    5    5  501    0  0.46753052646E+02  0.19908820211E+02  0.29238090297E+02  0.58814666353E+02  0.47000000000E+01 0. -1.
        -15    1    6    6    0    0 -0.28918263779E+02 -0.58283556682E+01  0.23182329269E+02  0.37560801763E+02  0.17770000000E+01 0.  1.
         16    1    6    6    0    0 -0.65513479492E+02  0.12965176222E+03  0.50955119196E+02  0.15394161106E+03  0.00000000000E+00 0. -1.
         -5    1    3    3    0  503  0.30576230001E+02 -0.10345501417E+03 -0.55308484320E+02  0.12132173851E+03  0.47000000000E+01 0.  1.
         15    1    4    4    0    0  0.14527928001E+02 -0.60833216824E+02 -0.17460659021E+03  0.18547873203E+03  0.17770000000E+01 0. -1.
        -16    1    4    4    0    0  0.25745326225E+01  0.20556004227E+02 -0.57972519077E+02  0.61562898698E+02  0.00000000000E+00 0.  1.
<mgrwt>
<rscale>  2 0.22934908E+03</rscale>
<asrwt>0</asrwt>
<pdfrwt beam="1">  1       21 0.33397569E-01 0.22980928E+03</pdfrwt>
<pdfrwt beam="2">  1       21 0.61784038E-01 0.22980928E+03</pdfrwt>
<totfact> 0.20566137E+04</totfact>
</mgrwt>
</event>
<event>
12    2  0.4097182E-002  0.1780414E+03  0.7546771E-02  0.1170066E+00
         21   -1    0    0  501  502  0.00000000000E+00  0.00000000000E+00  0.26140068910E+03  0.26140068910E+03  0.00000000000E+00 0.  1.
         21   -1    0    0  502  503 -0.00000000000E+00 -0.00000000000E+00 -0.22718166358E+03  0.22718166358E+03  0.00000000000E+00 0.  1.
         -6    2    1    2    0  503 -0.33106764299E+02 -0.13747367291E+02 -0.15042269182E+03  0.23307878332E+03  0.17439519796E+03 0.  0.
        -24    2    3    3    0    0 -0.79981361349E+02 -0.32472917346E+02 -0.13440396005E+03  0.17991334492E+03  0.82782115684E+02 0.  0.
          6    2    1    2  501    0  0.33106764299E+02  0.13747367291E+02  0.18464171734E+03  0.25550356936E+03  0.17292906703E+03 0.  0.
         24    2    5    5    0    0  0.58500299678E+02  0.65129964704E+02  0.12850539204E+03  0.17513952284E+03  0.80597886521E+02 0.  0.
          5    1    5    5  501    0 -0.25393535379E+02 -0.51382597412E+02  0.56136325295E+02  0.80364046523E+02  0.47000000000E+01 0. -1.
        -15    1    6    6    0    0 -0.11583151533E+02  0.43662033003E+02  0.41420545162E+02  0.61313634829E+02  0.17770000000E+01 0.  1.
         16    1    6    6    0    0  0.70083451211E+02  0.21467931700E+02  0.87084846881E+02  0.11382588801E+03  0.00000000000E+00 0. -1.
         -5    1    3    3    0  503  0.46874597049E+02  0.18725550055E+02 -0.16018731763E+02  0.53165438404E+02  0.47000000000E+01 0.  1.
         15    1    4    4    0    0 -0.95599102986E+01  0.26195711639E+02 -0.31126351753E+02  0.41828395806E+02  0.17770000000E+01 0. -1.
        -16    1    4    4    0    0 -0.70421451050E+02 -0.58668628985E+02 -0.10327760830E+03  0.13808494911E+03  0.00000000000E+00 0.  1.
<mgrwt>
<rscale>  2 0.17768132E+03</rscale>
<asrwt>0</asrwt>
<pdfrwt beam="1">  1       21 0.40215490E-01 0.17804138E+03</pdfrwt>
<pdfrwt beam="2">  1       21 0.34951025E-01 0.17804138E+03</pdfrwt>
<totfact> 0.47350147E+04</totfact>
</mgrwt>
</event>
<event>
12    2  0.4097182E-002  0.1892910E+03  0.7546771E-02  0.1159505E+00
         21   -1    0    0  503  502  0.00000000000E+00  0.00000000000E+00  0.10527093250E+03  0.10527093250E+03  0.00000000000E+00 0. -1.
         21   -1    0    0  501  503 -0.00000000000E+00 -0.00000000000E+00 -0.34331311741E+03  0.34331311741E+03  0.00000000000E+00 0. -1.
          6    2    1    2  501    0 -0.65748912354E+02  0.34485801825E+02 -0.14839728042E+03  0.23913882213E+03  0.17220172301E+03 0.  0.
         24    2    3    3    0    0 -0.66723317161E+02  0.63587014909E+02 -0.36706060933E+02  0.12361891657E+03  0.73749522763E+02 0.  0.
         -6    2    1    2    0  502  0.65748912354E+02 -0.34485801825E+02 -0.89644904494E+02  0.20944522778E+03  0.17412324525E+03 0.  0.
        -24    2    5    5    0    0  0.75556387564E+02 -0.23674479886E+02  0.54439266815E+01  0.11312779911E+03  0.80616461680E+02 0.  0.
          5    1    3    3  501    0  0.97440480704E+00 -0.29101213084E+02 -0.11169121949E+03  0.11551990555E+03  0.47000000000E+01 0. -1.
        -15    1    4    4    0    0  0.10368896609E+02  0.90919900847E+00 -0.20348215742E+02  0.22924839642E+02  0.17770000000E+01 0.  1.
         16    1    4    4    0    0 -0.77092213770E+02  0.62677815901E+02 -0.16357845191E+02  0.10069407693E+03  0.00000000000E+00 0. -1.
         -5    1    5    5    0  502 -0.98074752101E+01 -0.10811321939E+02 -0.95088831175E+02  0.96317428674E+02  0.47000000000E+01 0.  1.
         15    1    6    6    0    0  0.33024567411E+02 -0.51772654894E+02  0.87069002967E+01  0.62048349609E+02  0.17770000000E+01 0. -1.
        -16    1    6    6    0    0  0.42531820153E+02  0.28098175008E+02 -0.32629736152E+01  0.51079449499E+02  0.00000000000E+00 0.  1.
<mgrwt>
<rscale>  2 0.18884797E+03</rscale>
<asrwt>0</asrwt>
<pdfrwt beam="1">  1       21 0.16195528E-01 0.18929103E+03</pdfrwt>
<pdfrwt beam="2">  1       21 0.52817402E-01 0.18929103E+03</pdfrwt>
<totfact> 0.11599244E+05</totfact>
</mgrwt>
</event>
<event>
12    2  0.4097182E-002  0.2245745E+03  0.7546771E-02  0.1130542E+00
         21   -1    0    0  503  502  0.00000000000E+00  0.00000000000E+00  0.64536023699E+03  0.64536023699E+03  0.00000000000E+00 0. -1.
         21   -1    0    0  501  503 -0.00000000000E+00 -0.00000000000E+00 -0.68384990669E+03  0.68384990669E+03  0.00000000000E+00 0. -1.
          6    2    1    2  501    0 -0.15288362525E+02  0.14264050670E+03 -0.64474799214E+03  0.68273982323E+03  0.17278207276E+03 0.  0.
         24    2    3    3    0    0 -0.61756236566E+02  0.11642732118E+03 -0.34057913463E+03  0.37389167560E+03  0.80197782165E+02 0.  0.
         -6    2    1    2    0  502  0.15288362525E+02 -0.14264050670E+03  0.60625832245E+03  0.64647032044E+03  0.17261133653E+03 0.  0.
        -24    2    5    5    0    0  0.50077690769E+02 -0.14680039793E+03  0.39330415282E+03  0.43060191049E+03  0.81680577548E+02 0.  0.
          5    1    3    3  501    0  0.46467874042E+02  0.26213185524E+02 -0.30416885751E+03  0.30884814763E+03  0.47000000000E+01 0. -1.
        -15    1    4    4    0    0 -0.46884051571E+02  0.12618075659E+03 -0.27874619501E+03  0.30955176722E+03  0.17770000000E+01 0.  1.
         16    1    4    4    0    0 -0.14872184996E+02 -0.97534354057E+01 -0.61832939616E+02  0.64339908379E+02  0.00000000000E+00 0. -1.
         -5    1    5    5    0  502 -0.34789328244E+02  0.41598912252E+01  0.21295416963E+03  0.21586840996E+03  0.47000000000E+01 0.  1.
         15    1    6    6    0    0  0.26150561316E+02 -0.76963092252E+01  0.11921126260E+03  0.12230113611E+03  0.17770000000E+01 0. -1.
        -16    1    6    6    0    0  0.23927129453E+02 -0.13910408870E+03  0.27409289021E+03  0.30830077438E+03  0.00000000000E+00 0.  1.
<mgrwt>
<rscale>  2 0.22454163E+03</rscale>
<asrwt>0</asrwt>
<pdfrwt beam="1">  1       21 0.99286191E-01 0.22457447E+03</pdfrwt>
<pdfrwt beam="2">  1       21 0.10520768E+00 0.22457447E+03</pdfrwt>
<totfact> 0.58755987E+02</totfact>
</mgrwt>
</event>
<event>
12    2  0.4097182E-002  0.1981559E+03  0.7546771E-02  0.1151313E+00
         21   -1    0    0  501  502  0.00000000000E+00  0.00000000000E+00  0.24941205486E+03  0.24941205486E+03  0.00000000000E+00 0. -1.
         21   -1    0    0  502  503 -0.00000000000E+00 -0.00000000000E+00 -0.15828935522E+03  0.15828935522E+03  0.00000000000E+00 0.  1.
         -6    2    1    2    0  503 -0.96736065185E+02  0.38388798177E+01  0.60829323659E+02  0.20724326934E+03  0.17284953794E+03 0.  0.
        -24    2    3    3    0    0 -0.11312352031E+03  0.49036731592E+02  0.43719710004E+02  0.15599657804E+03  0.84982277117E+02 0.  0.
          6    2    1    2  501    0  0.96736065185E+02 -0.38388798177E+01  0.30293375972E+02  0.20045814074E+03  0.17289642638E+03 0.  0.
         24    2    5    5    0    0  0.62872345089E+02 -0.10687004845E+02 -0.49888264484E+02  0.11302340038E+03  0.78856237868E+02 0.  0.
          5    1    5    5  501    0  0.33863720096E+02  0.68481250273E+01  0.80181640456E+02  0.87434740357E+02  0.47000000000E+01 0. -1.
        -15    1    6    6    0    0  0.49062889177E+02 -0.39762056324E+02 -0.13801066005E+02  0.64666957323E+02  0.17770000000E+01 0.  1.
         16    1    6    6    0    0  0.13809455912E+02  0.29075051479E+02 -0.36087198479E+02  0.48356443057E+02  0.00000000000E+00 0. -1.
         -5    1    3    3    0  503  0.16387455123E+02 -0.45197851775E+02  0.17109613655E+02  0.51246691307E+02  0.47000000000E+01 0.  1.
         15    1    4    4    0    0 -0.28181325505E+02  0.31981822588E+02 -0.21290123580E+02  0.47680721202E+02  0.17770000000E+01 0. -1.
        -16    1    4    4    0    0 -0.84942194803E+02  0.17054909004E+02  0.65009833584E+02  0.10831585683E+03  0.00000000000E+00 0.  1.
<mgrwt>
<rscale>  2 0.19814571E+03</rscale>
<asrwt>0</asrwt>
<pdfrwt beam="1">  1       21 0.38371085E-01 0.19815594E+03</pdfrwt>
<pdfrwt beam="2">  1       21 0.24352209E-01 0.19815594E+03</pdfrwt>
<totfact> 0.10407068E+05</totfact>
</mgrwt>
</event>
<event>
12    2  0.4097182E-002  0.1789167E+03  0.7546771E-02  0.1171624E+00
         21   -1    0    0  501  502  0.00000000000E+00  0.00000000000E+00  0.65519633166E+02  0.65519633166E+02  0.00000000000E+00 0. -1.
         21   -1    0    0  502  503 -0.00000000000E+00 -0.00000000000E+00 -0.51041994863E+03  0.51041994863E+03  0.00000000000E+00 0. -1.
         -6    2    1    2    0  503  0.27734942351E+02 -0.33645900590E+02 -0.30742010686E+03  0.35030270103E+03  0.16218380496E+03 0.  0.
        -24    2    3    3    0    0  0.76490505309E+02 -0.24441806428E+02 -0.17787468903E+03  0.21150095194E+03  0.81517166113E+02 0.  0.
          6    2    1    2  501    0 -0.27734942351E+02  0.33645900590E+02 -0.13748020860E+03  0.22563688076E+03  0.17352210392E+03 0.  0.
         24    2    5    5    0    0 -0.77977939682E+02  0.19227012267E+02 -0.12573589101E+03  0.17185693918E+03  0.85293939868E+02 0.  0.
          5    1    5    5  501    0  0.50242997331E+02  0.14418888323E+02 -0.11744317593E+02  0.53779941586E+02  0.47000000000E+01 0. -1.
        -15    1    6    6    0    0 -0.17680775171E+02 -0.31000375711E+02 -0.58337405488E+02  0.68410844995E+02  0.17770000000E+01 0.  1.
         16    1    6    6    0    0 -0.60297164511E+02  0.50227387979E+02 -0.67398485521E+02  0.10344609418E+03  0.00000000000E+00 0. -1.
         -5    1    3    3    0  503 -0.48755562958E+02 -0.92040941628E+01 -0.12954541783E+03  0.13880174909E+03  0.47000000000E+01 0.  1.
         15    1    4    4    0    0  0.34926148360E+02 -0.42986634146E+02 -0.14536388797E+03  0.15556832649E+03  0.17770000000E+01 0. -1.
        -16    1    4    4    0    0  0.41564356949E+02  0.18544827718E+02 -0.32510801060E+02  0.55932625446E+02  0.00000000000E+00 0.  1.
<mgrwt>
<rscale>  2 0.17610784E+03</rscale>
<asrwt>0</asrwt>
<pdfrwt beam="1">  1       21 0.10079943E-01 0.17891672E+03</pdfrwt>
<pdfrwt beam="2">  1       21 0.78526148E-01 0.17891672E+03</pdfrwt>
<totfact> 0.11535234E+05</totfact>
</mgrwt>
</event>
<event>
12    2  0.4097182E-002  0.2020636E+03  0.7546771E-02  0.1148463E+00
         21   -1    0    0  503  502  0.00000000000E+00  0.00000000000E+00  0.24343316219E+03  0.24343316219E+03  0.00000000000E+00 0. -1.
         21   -1    0    0  501  503 -0.00000000000E+00 -0.00000000000E+00 -0.17270119795E+03  0.17270119795E+03  0.00000000000E+00 0. -1.
          6    2    1    2  501    0 -0.55859685193E+02 -0.77724130399E+02 -0.56471499607E+01  0.20214253708E+03  0.17795609042E+03 0.  0.
         24    2    3    3    0    0 -0.10600049390E+02 -0.10994521662E+03  0.24958156290E+02  0.13853901673E+03  0.79811264159E+02 0.  0.
         -6    2    1    2    0  502  0.55859685193E+02  0.77724130399E+02  0.76379114204E+02  0.21399182307E+03  0.17549184134E+03 0.  0.
        -24    2    5    5    0    0  0.69823616802E+02  0.30224297538E+02  0.10779100576E+03  0.15516986765E+03  0.81669708454E+02 0.  0.
          5    1    3    3  501    0 -0.45259635802E+02  0.32221086220E+02 -0.30605306251E+02  0.63603520350E+02  0.47000000000E+01 0. -1.
        -15    1    4    4    0    0 -0.13719787888E+02  0.64812592620E+01  0.15379100788E+02  0.21677494582E+02  0.17770000000E+01 0.  1.
         16    1    4    4    0    0  0.31197384979E+01 -0.11642647588E+03  0.95790555018E+01  0.11686152215E+03  0.00000000000E+00 0. -1.
         -5    1    5    5    0  502 -0.13963931609E+02  0.47499832861E+02 -0.31411891555E+02  0.58821955415E+02  0.47000000000E+01 0.  1.
         15    1    6    6    0    0 -0.16841098104E+02  0.16713906941E+02  0.25936299067E+02  0.35196968746E+02  0.17770000000E+01 0. -1.
        -16    1    6    6    0    0  0.86664714906E+02  0.13510390597E+02  0.81854706692E+02  0.11997289890E+03  0.00000000000E+00 0.  1.
<mgrwt>
<rscale>  2 0.20151974E+03</rscale>
<asrwt>0</asrwt>
<pdfrwt beam="1">  1       21 0.37451256E-01 0.20206364E+03</pdfrwt>
<pdfrwt beam="2">  1       21 0.26569415E-01 0.20206364E+03</pdfrwt>
<totfact> 0.92328126E+04</totfact>
</mgrwt>
</event>
<event>
12    2  0.4097182E-002  0.1979446E+03  0.7546771E-02  0.1151560E+00
         21   -1    0    0  501  502  0.00000000000E+00  0.00000000000E+00  0.67012360497E+02  0.67012360497E+02  0.00000000000E+00 0.  1.
         21   -1    0    0  502  503 -0.00000000000E+00 -0.00000000000E+00 -0.10401298412E+04  0.10401298412E+04  0.00000000000E+00 0.  1.
         -6    2    1    2    0  503  0.82138589195E+02 -0.49712132396E+02 -0.85303694428E+03  0.87562241707E+03  0.17269784316E+03 0.  0.
        -24    2    3    3    0    0  0.62176402234E+02  0.58264568600E+01 -0.74933509222E+03  0.75621057542E+03  0.80321238537E+02 0.  0.
          6    2    1    2  501    0 -0.82138589195E+02  0.49712132396E+02 -0.12008053645E+03  0.23151978465E+03  0.17310121753E+03 0.  0.
         24    2    5    5    0    0 -0.90535936533E+02  0.78772639643E+02 -0.46280270686E+02  0.15162236448E+03  0.80284453006E+02 0.  0.
          5    1    5    5  501    0  0.83973473380E+01 -0.29060507246E+02 -0.73800265766E+02  0.79897420176E+02  0.47000000000E+01 0. -1.
        -15    1    6    6    0    0 -0.45966630255E+02  0.87023980248E+02 -0.38171100723E+02  0.10557601477E+03  0.17770000000E+01 0.  1.
         16    1    6    6    0    0 -0.44569306278E+02 -0.82513406051E+01 -0.81091699632E+01  0.46046349708E+02  0.00000000000E+00 0. -1.
         -5    1    3    3    0  503  0.19962186961E+02 -0.55538589256E+02 -0.10370185206E+03  0.11941184165E+03  0.47000000000E+01 0. -1.
         15    1    4    4    0    0  0.34993339560E+02  0.25952600014E+02 -0.15791784551E+03  0.16382696640E+03  0.17770000000E+01 0. -1.
        -16    1    4    4    0    0  0.27183062674E+02 -0.20126143154E+02 -0.59141724670E+03  0.59238360902E+03  0.00000000000E+00 0.  1.
<mgrwt>
<rscale>  2 0.19785641E+03</rscale>
<asrwt>0</asrwt>
<pdfrwt beam="1">  1       21 0.10309594E-01 0.19794463E+03</pdfrwt>
<pdfrwt beam="2">  1       21 0.16001997E+00 0.19794463E+03</pdfrwt>
<totfact> 0.19274206E+04</totfact>
</mgrwt>
</event>
<event>
12    2  0.4097182E-002  0.2192376E+03  0.7546771E-02  0.1134529E+00
         21   -1    0    0  501  502  0.00000000000E+00  0.00000000000E+00  0.60784948672E+03  0.60784948672E+03  0.00000000000E+00 0. -1.
         21   -1    0    0  502  503 -0.00000000000E+00 -0.00000000000E+00 -0.32788585545E+03  0.32788585545E+03  0.00000000000E+00 0. -1.
         -6    2    1    2    0  503 -0.68504262801E+02 -0.11586835976E+03 -0.26767224835E+03  0.34599647178E+03  0.17305148116E+03 0.  0.
        -24    2    3    3    0    0 -0.73305043540E+02 -0.71533599462E+01 -0.12401415284E+03  0.16571409026E+03  0.81589519175E+02 0.  0.
          6    2    1    2  501    0  0.68504262801E+02  0.11586835976E+03  0.54763587962E+03  0.58973887039E+03  0.17253570005E+03 0.  0.
         24    2    5    5    0    0  0.11065707110E+03  0.86088564479E+02  0.34155552316E+03  0.37724204978E+03  0.77428421146E+02 0.  0.
          5    1    5    5  501    0 -0.42152808297E+02  0.29779795285E+02  0.20608035646E+03  0.21249682062E+03  0.47000000000E+01 0. -1.
        -15    1    6    6    0    0  0.19695332463E+02  0.11600998071E+01  0.13232443933E+03  0.13379897954E+03  0.17770000000E+01 0.  1.
         16    1    6    6    0    0  0.90961738636E+02  0.84928464672E+02  0.20923108383E+03  0.24344307024E+03  0.00000000000E+00 0. -1.
         -5    1    3    3    0  503  0.48007807386E+01 -0.10871499982E+03 -0.14365809550E+03  0.18028238152E+03  0.47000000000E+01 0.  1.
         15    1    4    4    0    0 -0.49454289864E+02  0.21089849975E+02 -0.11603282058E+03  0.12789558920E+03  0.17770000000E+01 0. -1.
        -16    1    4    4    0    0 -0.23850753675E+02 -0.28243209921E+02 -0.79813322669E+01  0.37818501058E+02  0.00000000000E+00 0.  1.
<mgrwt>
<rscale>  2 0.21913581E+03</rscale>
<asrwt>0</asrwt>
<pdfrwt beam="1">  1       21 0.93515306E-01 0.21923760E+03</pdfrwt>
<pdfrwt beam="2">  1       21 0.50443978E-01 0.21923760E+03</pdfrwt>
<totfact> 0.35192042E+03</totfact>
</mgrwt>
</event>
<event>
12    2  0.4097182E-002  0.2131935E+03  0.7546771E-02  0.1139248E+00
         21   -1    0    0  501  502  0.00000000000E+00  0.00000000000E+00  0.16664149805E+03  0.16664149805E+03  0.00000000000E+00 0.  1.
         21   -1    0    0  502  503 -0.00000000000E+00 -0.00000000000E+00 -0.27200350457E+03  0.27200350457E+03  0.00000000000E+00 0.  1.
         -6    2    1    2    0  503 -0.41373536011E+02  0.11865943362E+03 -0.43622878348E+02  0.21761071326E+03  0.17221973273E+03 0.  0.
        -24    2    3    3    0    0  0.27109675832E+02  0.38623476945E+02  0.20147532811E+02  0.94385472320E+02  0.79221126044E+02 0.  0.
          6    2    1    2  501    0  0.41373536011E+02 -0.11865943362E+03 -0.61739128171E+02  0.22103428936E+03  0.17103393364E+03 0.  0.
         24    2    5    5    0    0  0.60803262936E+02 -0.13592796946E+03 -0.18983273290E+02  0.17077625771E+03  0.81429207702E+02 0.  0.
          5    1    5    5  501    0 -0.19429726925E+02  0.17268535844E+02 -0.42755854881E+02  0.50258031649E+02  0.47000000000E+01 0. -1.
        -15    1    6    6    0    0  0.76956843878E+02 -0.78065989044E+02 -0.13079776577E+02  0.11041237589E+03  0.17770000000E+01 0.  1.
         16    1    6    6    0    0 -0.16153580942E+02 -0.57861980417E+02 -0.59034967134E+01  0.60363881821E+02  0.00000000000E+00 0. -1.
         -5    1    3    3    0  503 -0.68483211842E+02  0.80035956672E+02 -0.63770411159E+02  0.12322524094E+03  0.47000000000E+01 0.  1.
         15    1    4    4    0    0  0.44770307597E+00  0.25638005845E+02  0.47521164197E+02  0.54027090958E+02  0.17770000000E+01 0. -1.
        -16    1    4    4    0    0  0.26661972756E+02  0.12985471100E+02 -0.27373631386E+02  0.40358381362E+02  0.00000000000E+00 0.  1.
<mgrwt>
<rscale>  2 0.21295391E+03</rscale>
<asrwt>0</asrwt>
<pdfrwt beam="1">  1       21 0.25637154E-01 0.21319350E+03</pdfrwt>
<pdfrwt beam="2">  1       21 0.41846692E-01 0.21319350E+03</pdfrwt>
<totfact> 0.78658893E+04</totfact>
</mgrwt>
</event>
<event>
12    2  0.4097182E-002  0.1779808E+03  0.7546771E-02  0.1170286E+00
         21   -1    0    0  503  502  0.00000000000E+00  0.00000000000E+00  0.10678490279E+04  0.10678490279E+04  0.00000000000E+00 0.  1.
         21   -1    0    0  501  503 -0.00000000000E+00 -0.00000000000E+00 -0.58648057153E+02  0.58648057153E+02  0.00000000000E+00 0.  1.
          6    2    1    2  501    0  0.34354491377E+02  0.88038618169E+01  0.10777302447E+03  0.20806775557E+03  0.17441165972E+03 0.  0.
         24    2    3    3    0    0  0.56439258200E+02  0.63097426221E+02  0.87129917355E+02  0.14574796792E+03  0.80524360250E+02 0.  0.
         -6    2    1    2    0  502 -0.34354491377E+02 -0.88038618169E+01  0.90142794632E+03  0.91842932952E+03  0.17228566933E+03 0.  0.
        -24    2    5    5    0    0 -0.72274054882E+02 -0.44375902448E+02  0.47912250296E+03  0.49290936423E+03  0.78794090985E+02 0.  0.
          5    1    3    3  501    0 -0.22084766822E+02 -0.54293564404E+02  0.20643107111E+02  0.62319787648E+02  0.47000000000E+01 0. -1.
        -15    1    4    4    0    0  0.11387421692E+02  0.37804244909E+02 -0.52821845845E+01  0.39873468734E+02  0.17770000000E+01 0.  1.
         16    1    4    4    0    0  0.45051836508E+02  0.25293181312E+02  0.92412101940E+02  0.10587449919E+03  0.00000000000E+00 0. -1.
         -5    1    5    5    0  502  0.37919563504E+02  0.35572040631E+02  0.42230544336E+03  0.42551996529E+03  0.47000000000E+01 0.  1.
         15    1    6    6    0    0  0.70917200996E+01 -0.30247272308E+02  0.82415909483E+02  0.88095004631E+02  0.17770000000E+01 0. -1.
        -16    1    6    6    0    0 -0.79365774981E+02 -0.14128630140E+02  0.39670659348E+03  0.40481435960E+03  0.00000000000E+00 0.  1.
<mgrwt>
<rscale>  2 0.17745779E+03</rscale>
<asrwt>0</asrwt>
<pdfrwt beam="1">  1       21 0.16428445E+00 0.17798080E+03</pdfrwt>
<pdfrwt beam="2">  1       21 0.90227789E-02 0.17798080E+03</pdfrwt>
<totfact> 0.23017272E+04</totfact>
</mgrwt>
</event>
<event>
12    2  0.4097182E-002  0.2657948E+03  0.7546771E-02  0.1103914E+00
         21   -1    0    0  503  502  0.00000000000E+00  0.00000000000E+00  0.17469939162E+03  0.17469939162E+03  0.00000000000E+00 0.  1.
         21   -1    0    0  501  503 -0.00000000000E+00 -0.00000000000E+00 -0.88049284802E+03  0.88049284802E+03  0.00000000000E+00 0.  1.
          6    2    1    2  501    0  0.14434173554E+03  0.14004638083E+03 -0.74213555891E+03  0.78829695322E+03  0.17377966870E+03 0.  0.
         24    2    3    3    0    0  0.37693586905E+02  0.63254115963E+02 -0.17944841351E+03  0.21044767084E+03  0.81636997553E+02 0.  0.
         -6    2    1    2    0  502 -0.14434173554E+03 -0.14004638083E+03  0.36342102515E+02  0.26689528642E+03  0.17165319716E+03 0.  0.
        -24    2    5    5    0    0 -0.44594695125E+02 -0.55717221763E+01 -0.17668981352E+02  0.90906101890E+02  0.77019449086E+02 0.  0.
          5    1    3    3  501    0  0.10664814863E+03  0.76792264864E+02 -0.56268714540E+03  0.57784928238E+03  0.47000000000E+01 0. -1.
        -15    1    4    4    0    0  0.56597886483E+01  0.74252043302E+02 -0.13891998111E+03  0.15763032076E+03  0.17770000000E+01 0.  1.
         16    1    4    4    0    0  0.32033798257E+02 -0.10997927339E+02 -0.40528432404E+02  0.52817350082E+02  0.00000000000E+00 0. -1.
         -5    1    5    5    0  502 -0.99747040413E+02 -0.13447465865E+03  0.54011083867E+02  0.17598918453E+03  0.47000000000E+01 0.  1.
         15    1    6    6    0    0 -0.54221840838E+02 -0.22674534645E+02  0.71863192179E+01  0.59236335624E+02  0.17770000000E+01 0. -1.
        -16    1    6    6    0    0  0.96271457132E+01  0.17102812469E+02 -0.24855300570E+02  0.31669766266E+02  0.00000000000E+00 0.  1.
<mgrwt>
<rscale>  2 0.26544781E+03</rscale>
<asrwt>0</asrwt>
<pdfrwt beam="1">  1       21 0.26876829E-01 0.26579484E+03</pdfrwt>
<pdfrwt beam="2">  1       21 0.13546044E+00 0.26579484E+03</pdfrwt>
<totfact> 0.48717592E+03</totfact>
</mgrwt>
</event>
<event>
12    2  0.4097182E-002  0.1787610E+03  0.7546771E-02  0.1169285E+00
         21   -1    0    0  503  502  0.00000000000E+00  0.00000000000E+00  0.85998458874E+03  0.85998458874E+03  0.00000000000E+00 0. -1.
         21   -1    0    0  501  503 -0.00000000000E+00 -0.00000000000E+00 -0.15512442551E+03  0.15512442551E+03  0.00000000000E+00 0. -1.
          6    2    1    2  501    0 -0.12686264242E+01 -0.39139999129E+02 -0.90887405050E+02  0.19952965637E+03  0.17325707614E+03 0.  0.
         24    2    3    3    0    0 -0.42058147479E+02  0.23997036990E+02 -0.79942712722E+02  0.12342481653E+03  0.80610808606E+02 0.  0.
         -6    2    1    2    0  502  0.12686264242E+01  0.39139999129E+02  0.79574756828E+03  0.81557935787E+03  0.17441888548E+03 0.  0.
        -24    2    5    5    0    0  0.43953792663E+02  0.71467950041E+02  0.63671619495E+03  0.64770980276E+03  0.84147916885E+02 0.  0.
          5    1    3    3  501    0  0.40789521055E+02 -0.63137036119E+02 -0.10944692328E+02  0.76104839845E+02  0.47000000000E+01 0. -1.
        -15    1    4    4    0    0 -0.14951982192E+02  0.36672090502E+02 -0.17269525665E+01  0.39680525291E+02  0.17770000000E+01 0.  1.
         16    1    4    4    0    0 -0.27106165287E+02 -0.12675053511E+02 -0.78215760155E+02  0.83744291237E+02  0.00000000000E+00 0. -1.
         -5    1    5    5    0  502 -0.42685166239E+02 -0.32327950913E+02  0.15903137333E+03  0.16786955511E+03  0.47000000000E+01 0.  1.
         15    1    6    6    0    0  0.42498195735E+02  0.50508735205E+02  0.61074592958E+03  0.61430528013E+03  0.17770000000E+01 0. -1.
        -16    1    6    6    0    0  0.14555969283E+01  0.20959214836E+02  0.25970265370E+02  0.33404522633E+02  0.00000000000E+00 0.  1.
<mgrwt>
<rscale>  2 0.17847698E+03</rscale>
<asrwt>0</asrwt>
<pdfrwt beam="1">  1       21 0.13230532E+00 0.17876100E+03</pdfrwt>
<pdfrwt beam="2">  1       21 0.23865297E-01 0.17876100E+03</pdfrwt>
<totfact> 0.69179365E+03</totfact>
</mgrwt>
</event>
<event>
12    2  0.4097182E-002  0.2005538E+03  0.7546771E-02  0.1149390E+00
         21   -1    0    0  501  502  0.00000000000E+00  0.00000000000E+00  0.37368227746E+02  0.37368227746E+02  0.00000000000E+00 0. -1.
         21   -1    0    0  502  503 -0.00000000000E+00 -0.00000000000E+00 -0.21338581973E+04  0.21338581973E+04  0.00000000000E+00 0. -1.
         -6    2    1    2    0  503  0.46872690396E+02  0.89693853706E+02 -0.28365623684E+03  0.34739414504E+03  0.17314674357E+03 0.  0.
        -24    2    3    3    0    0  0.86730937800E+02  0.22950303604E+02 -0.19605526169E+03  0.23017894886E+03  0.80595972957E+02 0.  0.
          6    2    1    2  501    0 -0.46872690396E+02 -0.89693853706E+02 -0.18128337327E+04  0.18238322800E+04  0.17249929461E+03 0.  0.
         24    2    5    5    0    0 -0.30173685582E+02 -0.89363113476E+02 -0.71888184768E+03  0.72974280336E+03  0.82687549106E+02 0.  0.
          5    1    5    5  501    0 -0.16699004813E+02 -0.33074023042E+00 -0.10939518850E+04  0.10940894766E+04  0.47000000000E+01 0. -1.
        -15    1    6    6    0    0 -0.21543377772E+02  0.11189303444E+02 -0.15533258566E+03  0.15722813849E+03  0.17770000000E+01 0.  1.
         16    1    6    6    0    0 -0.86303078103E+01 -0.10055241692E+03 -0.56354926202E+03  0.57251466487E+03  0.00000000000E+00 0. -1.
         -5    1    3    3    0  503 -0.39858247404E+02  0.66743550103E+02 -0.87600975148E+02  0.11721519617E+03  0.47000000000E+01 0.  1.
         15    1    4    4    0    0  0.14643409911E+02  0.28596084134E+02 -0.15565251337E+02  0.35743534517E+02  0.17770000000E+01 0. -1.
        -16    1    4    4    0    0  0.72087527889E+02 -0.56457805302E+01 -0.18049001035E+03  0.19443541435E+03  0.00000000000E+00 0.  1.
<mgrwt>
<rscale>  2 0.20041399E+03</rscale>
<asrwt>0</asrwt>
<pdfrwt beam="1">  1       21 0.57489607E-02 0.20055381E+03</pdfrwt>
<pdfrwt beam="2">  1       21 0.32828573E+00 0.20055381E+03</pdfrwt>
<totfact> 0.49234278E+03</totfact>
</mgrwt>
</event>
<event>
12    2  0.4097182E-002  0.2765395E+03  0.7546771E-02  0.1097619E+00
         21   -1    0    0  503  502  0.00000000000E+00  0.00000000000E+00  0.90540832861E+02  0.90540832861E+02  0.00000000000E+00 0. -1.
         21   -1    0    0  501  503 -0.00000000000E+00 -0.00000000000E+00 -0.12860333941E+04  0.12860333941E+04  0.00000000000E+00 0.  1.
          6    2    1    2  501    0 -0.21532064964E+03 -0.96698317073E+01 -0.10013613924E+04  0.10388449001E+04  0.17325588153E+03 0.  0.
         24    2    3    3    0    0 -0.21425147585E+03 -0.50762314025E+02 -0.85689606850E+03  0.88857163221E+03  0.82511610858E+02 0.  0.
         -6    2    1    2    0  502  0.21532064964E+03  0.96698317073E+01 -0.19413116883E+03  0.33772932684E+03  0.17296733706E+03 0.  0.
        -24    2    5    5    0    0  0.14655138170E+03 -0.15706731992E+02 -0.49306811052E+02  0.17534285326E+03  0.81178480298E+02 0.  0.
          5    1    3    3  501    0 -0.10691737902E+01  0.41092482318E+02 -0.14446532389E+03  0.15027326789E+03  0.47000000000E+01 0. -1.
        -15    1    4    4    0    0 -0.19108310317E+02 -0.15360937297E+02 -0.22359012656E+03  0.22493729869E+03  0.17770000000E+01 0.  1.
         16    1    4    4    0    0 -0.19514316554E+03 -0.35401376728E+02 -0.63330594195E+03  0.66363433352E+03  0.00000000000E+00 0. -1.
         -5    1    5    5    0  502  0.68769267942E+02  0.25376563699E+02 -0.14482435778E+03  0.16238647359E+03  0.47000000000E+01 0.  1.
         15    1    6    6    0    0  0.10554785256E+03  0.25929506607E+02 -0.41648245303E+02  0.11640628230E+03  0.17770000000E+01 0. -1.
        -16    1    6    6    0    0  0.41003529139E+02 -0.41636238599E+02 -0.76585657484E+01  0.58936570955E+02  0.00000000000E+00 0.  1.
<mgrwt>
<rscale>  2 0.27649431E+03</rscale>
<asrwt>0</asrwt>
<pdfrwt beam="1">  1       21 0.13929359E-01 0.27653949E+03</pdfrwt>
<pdfrwt beam="2">  1       21 0.19785129E+00 0.27653949E+03</pdfrwt>
<totfact> 0.58332401E+03</totfact>
</mgrwt>
</event>
<event>
12    2  0.4097182E-002  0.2280706E+03  0.7546771E-02  0.1128414E+00
         21   -1    0    0  503  502  0.00000000000E+00  0.00000000000E+00  0.47970689780E+03  0.47970689780E+03  0.00000000000E+00 0.  1.
         21   -1    0    0  501  503 -0.00000000000E+00 -0.00000000000E+00 -0.70337093108E+03  0.70337093108E+03  0.00000000000E+00 0.  1.
          6    2    1    2  501    0  0.35536053000E+02 -0.14343461289E+03 -0.65644742784E+03  0.69493844080E+03  0.17372366491E+03 0.  0.
         24    2    3    3    0    0  0.46381812177E+02 -0.71637434777E+02 -0.19685398899E+03  0.22962060930E+03  0.81798145901E+02 0.  0.
         -6    2    1    2    0  502 -0.35536053000E+02  0.14343461289E+03  0.43278339457E+03  0.48813938808E+03  0.17071114884E+03 0.  0.
        -24    2    5    5    0    0  0.71969021807E+01  0.79274395273E+01  0.19263432732E+03  0.20906598556E+03  0.80535473913E+02 0.  0.
          5    1    3    3  501    0 -0.10845759178E+02 -0.71797178109E+02 -0.45959343885E+03  0.46531783150E+03  0.47000000000E+01 0. -1.
        -15    1    4    4    0    0  0.27824556751E+02  0.10605987231E+02 -0.28118321120E+02  0.40993787763E+02  0.17770000000E+01 0.  1.
         16    1    4    4    0    0  0.18557255426E+02 -0.82243422008E+02 -0.16873566787E+03  0.18862682154E+03  0.00000000000E+00 0. -1.
         -5    1    5    5    0  502 -0.42732955180E+02  0.13550717336E+03  0.24014906725E+03  0.27907340251E+03  0.47000000000E+01 0.  1.
         15    1    6    6    0    0 -0.14452917605E+02 -0.14623363154E+02  0.85366071944E+01  0.22332957005E+02  0.17770000000E+01 0. -1.
        -16    1    6    6    0    0  0.21649819786E+02  0.22550802681E+02  0.18409772013E+03  0.18673302856E+03  0.00000000000E+00 0.  1.
<mgrwt>
<rscale>  2 0.22749691E+03</rscale>
<asrwt>0</asrwt>
<pdfrwt beam="1">  1       21 0.73801061E-01 0.22807063E+03</pdfrwt>
<pdfrwt beam="2">  1       21 0.10821091E+00 0.22807063E+03</pdfrwt>
<totfact> 0.10832012E+03</totfact>
</mgrwt>
</event>
<event>
12    2  0.4097182E-002  0.2179034E+03  0.7546771E-02  0.1135470E+00
         21   -1    0    0  503  502  0.00000000000E+00  0.00000000000E+00  0.73375713794E+03  0.73375713794E+03  0.00000000000E+00 0.  1.
         21   -1    0    0  501  503 -0.00000000000E+00 -0.00000000000E+00 -0.70306375587E+02  0.70306375587E+02  0.00000000000E+00 0.  1.
          6    2    1    2  501    0 -0.13197188162E+03  0.60864188719E+01  0.21802479194E+03  0.30819440646E+03  0.17319168640E+03 0.  0.
         24    2    3    3    0    0 -0.11799674753E+03 -0.53342531348E+02  0.12478263629E+03  0.19664489239E+03  0.79560350099E+02 0.  0.
         -6    2    1    2    0  502  0.13197188162E+03 -0.60864188719E+01  0.44542597041E+03  0.49586910706E+03  0.17328662439E+03 0.  0.
        -24    2    5    5    0    0  0.16759712528E+02  0.16226063036E+02  0.90410918093E+02  0.12193132063E+03  0.78415175530E+02 0.  0.
          5    1    3    3  501    0 -0.13975134097E+02  0.59428950220E+02  0.93242155653E+02  0.11154951406E+03  0.47000000000E+01 0. -1.
        -15    1    4    4    0    0 -0.43464046217E+02  0.19558103915E+02  0.40975774207E+02  0.62879365003E+02  0.17770000000E+01 0.  1.
         16    1    4    4    0    0 -0.74532701310E+02 -0.72900635263E+02  0.83806862082E+02  0.13376552739E+03  0.00000000000E+00 0. -1.
         -5    1    5    5    0  502  0.11521216910E+03 -0.22312481908E+02  0.35501505231E+03  0.37393778644E+03  0.47000000000E+01 0.  1.
         15    1    6    6    0    0  0.32279217495E+02  0.15959949744E+01  0.94785045303E+02  0.10015916146E+03  0.17770000000E+01 0. -1.
        -16    1    6    6    0    0 -0.15519504967E+02  0.14630068062E+02 -0.43741272105E+01  0.21772159166E+02  0.00000000000E+00 0.  1.
<mgrwt>
<rscale>  2 0.21788449E+03</rscale>
<asrwt>0</asrwt>
<pdfrwt beam="1">  1       21 0.11288571E+00 0.21790336E+03</pdfrwt>
<pdfrwt beam="2">  1       21 0.10816366E-01 0.21790336E+03</pdfrwt>
<totfact> 0.42736481E+04</totfact>
</mgrwt>
</event>
<event>
12    2  0.4097182E-002  0.1779705E+03  0.7546771E-02  0.1170527E+00
         21   -1    0    0  503  502  0.00000000000E+00  0.00000000000E+00  0.87045941933E+03  0.87045941933E+03  0.00000000000E+00 0. -1.
         21   -1    0    0  501  503 -0.00000000000E+00 -0.00000000000E+00 -0.49141195029E+02  0.49141195029E+02  0.00000000000E+00 0. -1.
          6    2    1    2  501    0  0.14975284166E+02  0.12115055522E+02  0.17341163022E+03  0.24848562573E+03  0.17692506604E+03 0.  0.
         24    2    3    3    0    0 -0.65138238456E+00  0.70794152012E+00  0.20061626551E+03  0.21477365251E+03  0.76680573467E+02 0.  0.
         -6    2    1    2    0  502 -0.14975284166E+02 -0.12115055522E+02  0.64790659408E+03  0.67111498862E+03  0.17390037263E+03 0.  0.
        -24    2    5    5    0    0 -0.25937078484E+02 -0.72300241458E+02  0.46830600830E+03  0.48132331875E+03  0.80383846706E+02 0.  0.
          5    1    3    3  501    0  0.15626666551E+02  0.11407114002E+02 -0.27204635286E+02  0.33711973220E+02  0.47000000000E+01 0. -1.
        -15    1    4    4    0    0 -0.56381742334E+01  0.33277618012E+02  0.15414373917E+03  0.15780569991E+03  0.17770000000E+01 0.  1.
         16    1    4    4    0    0  0.49867918489E+01 -0.32569676492E+02  0.46472526339E+02  0.56967952605E+02  0.00000000000E+00 0. -1.
         -5    1    5    5    0  502  0.10961794318E+02  0.60185185937E+02  0.17960058578E+03  0.18979166987E+03  0.47000000000E+01 0.  1.
         15    1    6    6    0    0 -0.12127470276E+02  0.16920603426E+02  0.89984014973E+02  0.92377827617E+02  0.17770000000E+01 0. -1.
        -16    1    6    6    0    0 -0.13809608208E+02 -0.89220844885E+02  0.37832199333E+03  0.38894549114E+03  0.00000000000E+00 0.  1.
<mgrwt>
<rscale>  2 0.17721407E+03</rscale>
<asrwt>0</asrwt>
<pdfrwt beam="1">  1       21 0.13391682E+00 0.17797054E+03</pdfrwt>
<pdfrwt beam="2">  1       21 0.75601844E-02 0.17797054E+03</pdfrwt>
<totfact> 0.53500676E+04</totfact>
</mgrwt>
</event>
<event>
12    2  0.4097182E-002  0.1838498E+03  0.7546771E-02  0.1164255E+00
         21   -1    0    0  501  502  0.00000000000E+00  0.00000000000E+00  0.27008419720E+03  0.27008419720E+03  0.00000000000E+00 0. -1.
         21   -1    0    0  502  503 -0.00000000000E+00 -0.00000000000E+00 -0.17770541670E+03  0.17770541670E+03  0.00000000000E+00 0. -1.
         -6    2    1    2    0  503  0.54904686853E+02  0.27529323800E+02 -0.76040453695E+02  0.19845892410E+03  0.17271770508E+03 0.  0.
        -24    2    3    3    0    0  0.35886053952E+02  0.49090565289E+02 -0.11296201282E+03  0.15142822072E+03  0.80451210197E+02 0.  0.
          6    2    1    2  501    0 -0.54904686853E+02 -0.27529323800E+02  0.16841923419E+03  0.24933068980E+03  0.17328694735E+03 0.  0.
         24    2    5    5    0    0 -0.40488119582E+01 -0.69892221566E+02  0.62090197991E+02  0.12399558275E+03  0.81353526920E+02 0.  0.
          5    1    5    5  501    0 -0.50855874895E+02  0.42362897766E+02  0.10632903620E+03  0.12533510705E+03  0.47000000000E+01 0. -1.
        -15    1    6    6    0    0  0.33411725076E+02 -0.72838973067E+01  0.22680255133E+02  0.41072499734E+02  0.17770000000E+01 0.  1.
         16    1    6    6    0    0 -0.37460537034E+02 -0.62608324259E+02  0.39409942858E+02  0.82923083020E+02  0.00000000000E+00 0. -1.
         -5    1    3    3    0  503  0.19018632902E+02 -0.21561241489E+02  0.36921559125E+02  0.47030703378E+02  0.47000000000E+01 0.  1.
         15    1    4    4    0    0 -0.76369770090E+01  0.37217327790E+02 -0.95950521458E+02  0.10321391962E+03  0.17770000000E+01 0. -1.
        -16    1    4    4    0    0  0.43523030961E+02  0.11873237499E+02 -0.17011491362E+02  0.48214301105E+02  0.00000000000E+00 0.  1.
<mgrwt>
<rscale>  2 0.18371556E+03</rscale>
<asrwt>0</asrwt>
<pdfrwt beam="1">  1       21 0.41551415E-01 0.18384981E+03</pdfrwt>
<pdfrwt beam="2">  1       21 0.27339295E-01 0.18384981E+03</pdfrwt>
<totfact> 0.71412980E+04</totfact>
</mgrwt>
</event>
<event>
12    2  0.4097182E-002  0.1857938E+03  0.7546771E-02  0.1162344E+00
         21   -1    0    0  503  502  0.00000000000E+00  0.00000000000E+00  0.95733951684E+03  0.95733951684E+03  0.00000000000E+00 0.  1.
         21   -1    0    0  501  503 -0.00000000000E+00 -0.00000000000E+00 -0.36481710443E+02  0.36481710443E+02  0.00000000000E+00 0.  1.
          6    2    1    2  501    0  0.19823443764E+02  0.64070494981E+02  0.40529553828E+03  0.44585177767E+03  0.17326666457E+03 0.  0.
         24    2    3    3    0    0  0.66548985553E+02 -0.19961042740E+01  0.23971163039E+03  0.26149290931E+03  0.80524058274E+02 0.  0.
         -6    2    1    2    0  502 -0.19823443764E+02 -0.64070494981E+02  0.51556226811E+03  0.54796944961E+03  0.17311287692E+03 0.  0.
        -24    2    5    5    0    0  0.33209393924E+02  0.13982577153E+02  0.28732606107E+03  0.30094997639E+03  0.81952709615E+02 0.  0.
          5    1    3    3  501    0 -0.46725541788E+02  0.66066599255E+02  0.16558390789E+03  0.18435886836E+03  0.47000000000E+01 0. -1.
        -15    1    4    4    0    0  0.55142719923E+02 -0.50445987925E+01  0.24300114658E+03  0.24923659945E+03  0.17770000000E+01 0.  1.
         16    1    4    4    0    0  0.11406265630E+02  0.30484945185E+01 -0.32895161888E+01  0.12256309853E+02  0.00000000000E+00 0. -1.
         -5    1    5    5    0  502 -0.53032837688E+02 -0.78053072134E+02  0.22823620705E+03  0.24701947322E+03  0.47000000000E+01 0.  1.
         15    1    6    6    0    0  0.31868926054E+02 -0.30203033394E+02  0.11697428362E+03  0.12495596197E+03  0.17770000000E+01 0. -1.
        -16    1    6    6    0    0  0.13404678700E+01  0.44185610547E+02  0.17035177745E+03  0.17599401442E+03  0.00000000000E+00 0.  1.
<mgrwt>
<rscale>  2 0.18575793E+03</rscale>
<asrwt>0</asrwt>
<pdfrwt beam="1">  1       21 0.14728298E+00 0.18579380E+03</pdfrwt>
<pdfrwt beam="2">  1       21 0.56125716E-02 0.18579380E+03</pdfrwt>
<totfact> 0.69548747E+04</totfact>
</mgrwt>
</event>
<event>
12    2  0.4097182E-002  0.1796763E+03  0.7546771E-02  0.1168913E+00
         21   -1    0    0  503  502  0.00000000000E+00  0.00000000000E+00  0.43016948488E+03  0.43016948488E+03  0.00000000000E+00 0. -1.
         21   -1    0    0  501  503 -0.00000000000E+00 -0.00000000000E+00 -0.11649589841E+03  0.11649589841E+03  0.00000000000E+00 0. -1.
          6    2    1    2  501    0 -0.20966774409E+02  0.25440293681E+02 -0.79269044172E+01  0.17985107230E+03  0.17662604062E+03 0.  0.
         24    2    3    3    0    0 -0.49191765755E+02  0.12708842032E+02 -0.65086371013E+02  0.11467412378E+03  0.79577474759E+02 0.  0.
         -6    2    1    2    0  502  0.20966774409E+02 -0.25440293681E+02  0.32160049089E+03  0.36681431099E+03  0.17331776839E+03 0.  0.
        -24    2    5    5    0    0  0.12895432151E+02 -0.73489996654E+02  0.28547919132E+03  0.30598044868E+03  0.80985149989E+02 0.  0.
          5    1    3    3  501    0  0.28224991346E+02  0.12731451649E+02  0.57159466595E+02  0.65176948525E+02  0.47000000000E+01 0. -1.
        -15    1    4    4    0    0  0.46170777475E+01 -0.26694990178E+02 -0.13281187670E+02  0.30223957094E+02  0.17770000000E+01 0.  1.
         16    1    4    4    0    0 -0.53808843502E+02  0.39403832210E+02 -0.51805183343E+02  0.84450166685E+02  0.00000000000E+00 0. -1.
         -5    1    5    5    0  502  0.80713422577E+01  0.48049702973E+02  0.36121299571E+02  0.60833862317E+02  0.47000000000E+01 0.  1.
         15    1    6    6    0    0  0.45878068693E+02 -0.50658394567E+02  0.20420162461E+03  0.21534282284E+03  0.17770000000E+01 0. -1.
        -16    1    6    6    0    0 -0.32982636542E+02 -0.22831602087E+02  0.81277566706E+02  0.90637625834E+02  0.00000000000E+00 0.  1.
<mgrwt>
<rscale>  2 0.17885796E+03</rscale>
<asrwt>0</asrwt>
<pdfrwt beam="1">  1       21 0.66179920E-01 0.17967630E+03</pdfrwt>
<pdfrwt beam="2">  1       21 0.17922446E-01 0.17967630E+03</pdfrwt>
<totfact> 0.59659408E+04</totfact>
</mgrwt>
</event>
<event>
12    2  0.4097182E-002  0.2516962E+03  0.7546771E-02  0.1112308E+00
         21   -1    0    0  503  502  0.00000000000E+00  0.00000000000E+00  0.46341600720E+03  0.46341600720E+03  0.00000000000E+00 0.  1.
         21   -1    0    0  501  503 -0.00000000000E+00 -0.00000000000E+00 -0.13791993192E+03  0.13791993192E+03  0.00000000000E+00 0. -1.
          6    2    1    2  501    0 -0.13053075426E+03 -0.12667141584E+03  0.13168300829E+03  0.28366554726E+03  0.17332571256E+03 0.  0.
         24    2    3    3    0    0 -0.15512603350E+03 -0.13902322107E+03  0.11345522789E+03  0.25032132990E+03  0.79982105513E+02 0.  0.
         -6    2    1    2    0  502  0.13053075426E+03  0.12667141584E+03  0.19381306699E+03  0.31767039186E+03  0.17397427261E+03 0.  0.
        -24    2    5    5    0    0  0.13363248850E+03  0.35579902080E+02  0.13249316297E+03  0.20771810556E+03  0.80428861292E+02 0.  0.
          5    1    3    3  501    0  0.24595279237E+02  0.12351805232E+02  0.18227780392E+02  0.33344217359E+02  0.47000000000E+01 0. -1.
        -15    1    4    4    0    0 -0.32126028335E+02 -0.40724523597E+02 -0.65999916874E+01  0.52319080057E+02  0.17770000000E+01 0.  1.
         16    1    4    4    0    0 -0.12300000516E+03 -0.98298697473E+02  0.12005521958E+03  0.19800224985E+03  0.00000000000E+00 0. -1.
         -5    1    5    5    0  502 -0.31017342395E+01  0.91091513759E+02  0.61319904018E+02  0.10995228630E+03  0.47000000000E+01 0.  1.
         15    1    6    6    0    0  0.99694130619E+02  0.61186333367E+02  0.89916420812E+02  0.14754933931E+03  0.17770000000E+01 0. -1.
        -16    1    6    6    0    0  0.33938357883E+02 -0.25606431288E+02  0.42576742157E+02  0.60168766248E+02  0.00000000000E+00 0.  1.
<mgrwt>
<rscale>  2 0.25158415E+03</rscale>
<asrwt>0</asrwt>
<pdfrwt beam="1">  1       21 0.71294769E-01 0.25169619E+03</pdfrwt>
<pdfrwt beam="2">  1       21 0.21218451E-01 0.25169619E+03</pdfrwt>
<totfact> 0.35728719E+04</totfact>
</mgrwt>
</event>
<event>
12    2  0.4097182E-002  0.1813766E+03  0.7546771E-02  0.1166954E+00
         21   -1    0    0  503  502  0.00000000000E+00  0.00000000000E+00  0.40702588932E+03  0.40702588932E+03  0.00000000000E+00 0. -1.
         21   -1    0    0  501  503 -0.00000000000E+00 -0.00000000000E+00 -0.18808735661E+03  0.18808735661E+03  0.00000000000E+00 0. -1.
          6    2    1    2  501    0 -0.39555413328E+02  0.24847050770E+02 -0.11589966141E+03  0.21524453742E+03  0.17525830285E+03 0.  0.
         24    2    3    3    0    0 -0.27298104548E+02 -0.36125876567E+02 -0.10275633162E+02  0.92580505079E+02  0.80095541786E+02 0.  0.
         -6    2    1    2    0  502  0.39555413328E+02 -0.24847050770E+02  0.33483819412E+03  0.37986870850E+03  0.17320973645E+03 0.  0.
        -24    2    5    5    0    0  0.62280073133E+02  0.25679394489E+02  0.28873583989E+03  0.30764095138E+03  0.82075154071E+02 0.  0.
          5    1    3    3  501    0 -0.12257308779E+02  0.60972927337E+02 -0.10562402825E+03  0.12266403234E+03  0.47000000000E+01 0. -1.
        -15    1    4    4    0    0 -0.35083155105E+02 -0.24655377410E+02  0.28421758177E+02  0.51474940255E+02  0.17770000000E+01 0.  1.
         16    1    4    4    0    0  0.77850505572E+01 -0.11470499158E+02 -0.38697391339E+02  0.41105564824E+02  0.00000000000E+00 0. -1.
         -5    1    5    5    0  502 -0.22724659805E+02 -0.50526445259E+02  0.46102354232E+02  0.72227757126E+02  0.47000000000E+01 0.  1.
         15    1    6    6    0    0  0.41488284423E+02 -0.26641044350E+02  0.11943186439E+03  0.12922132544E+03  0.17770000000E+01 0. -1.
        -16    1    6    6    0    0  0.20791788710E+02  0.52320438839E+02  0.16930397550E+03  0.17841962594E+03  0.00000000000E+00 0.  1.
<mgrwt>
<rscale>  2 0.18087991E+03</rscale>
<asrwt>0</asrwt>
<pdfrwt beam="1">  1       21 0.62619367E-01 0.18137662E+03</pdfrwt>
<pdfrwt beam="2">  1       21 0.28936517E-01 0.18137662E+03</pdfrwt>
<totfact> 0.27184538E+04</totfact>
</mgrwt>
</event>
<event>
12    2  0.4097182E-002  0.2061199E+03  0.7546771E-02  0.1144771E+00
         21   -1    0    0  501  502  0.00000000000E+00  0.00000000000E+00  0.16981748860E+03  0.16981748860E+03  0.00000000000E+00 0. -1.
         21   -1    0    0  502  503 -0.00000000000E+00 -0.00000000000E+00 -0.38142343161E+03  0.38142343161E+03  0.00000000000E+00 0. -1.
         -6    2    1    2    0  503 -0.73772639812E+02  0.84327748711E+02 -0.26774927983E+03  0.33761161439E+03  0.17244811895E+03 0.  0.
        -24    2    3    3    0    0 -0.11254931041E+03  0.35193837975E+02 -0.19792205035E+03  0.24371963739E+03  0.79499497663E+02 0.  0.
          6    2    1    2  501    0  0.73772639812E+02 -0.84327748711E+02  0.56143336828E+02  0.21362930583E+03  0.17300819186E+03 0.  0.
         24    2    5    5    0    0  0.54561714689E+02 -0.23687982311E+02 -0.30503100868E+02  0.10603778163E+03  0.82313247752E+02 0.  0.
          5    1    5    5  501    0  0.19210925123E+02 -0.60639766399E+02  0.86646437696E+02  0.10759152419E+03  0.47000000000E+01 0. -1.
        -15    1    6    6    0    0  0.27468100522E+02  0.24927447743E+02  0.84756271470E+01  0.38090263609E+02  0.17770000000E+01 0.  1.
         16    1    6    6    0    0  0.27093614167E+02 -0.48615430055E+02 -0.38978728015E+02  0.67947518025E+02  0.00000000000E+00 0. -1.
         -5    1    3    3    0  503  0.38776670599E+02  0.49133910736E+02 -0.69827229484E+02  0.93891976997E+02  0.47000000000E+01 0.  1.
         15    1    4    4    0    0 -0.12286645499E+03  0.41428826597E+02 -0.18619754453E+03  0.22690349656E+03  0.17770000000E+01 0. -1.
        -16    1    4    4    0    0  0.10317144583E+02 -0.62349886217E+01 -0.11724505823E+02  0.16816140825E+02  0.00000000000E+00 0.  1.
<mgrwt>
<rscale>  2 0.20600231E+03</rscale>
<asrwt>0</asrwt>
<pdfrwt beam="1">  1       21 0.26125768E-01 0.20611988E+03</pdfrwt>
<pdfrwt beam="2">  1       21 0.58680528E-01 0.20611988E+03</pdfrwt>
<totfact> 0.37571178E+04</totfact>
</mgrwt>
</event>
<event>
12    2  0.4097182E-002  0.2283586E+03  0.7546771E-02  0.1128123E+00
         21   -1    0    0  503  502  0.00000000000E+00  0.00000000000E+00  0.89892549450E+02  0.89892549450E+02  0.00000000000E+00 0. -1.
         21   -1    0    0  501  503 -0.00000000000E+00 -0.00000000000E+00 -0.78984443165E+03  0.78984443165E+03  0.00000000000E+00 0. -1.
          6    2    1    2  501    0 -0.80768789653E+02  0.12367877413E+03 -0.57808939536E+03  0.62089700047E+03  0.17177223179E+03 0.  0.
         24    2    3    3    0    0 -0.99812467308E+01  0.23742496298E+02 -0.11970369812E+03  0.14641025325E+03  0.80272383138E+02 0.  0.
         -6    2    1    2    0  502  0.80768789653E+02 -0.12367877413E+03 -0.12186248684E+03  0.25883998063E+03  0.17414830841E+03 0.  0.
        -24    2    5    5    0    0  0.28959491027E+02 -0.40471935118E+02  0.12457469914E+02  0.92492385920E+02  0.76961180109E+02 0.  0.
          5    1    3    3  501    0 -0.70787542922E+02  0.99936277836E+02 -0.45838569724E+03  0.47448674723E+03  0.47000000000E+01 0. -1.
        -15    1    4    4    0    0 -0.40460134241E+02  0.45143000671E+01 -0.93066816355E+02  0.10159720175E+03  0.17770000000E+01 0.  1.
         16    1    4    4    0    0  0.30478887510E+02  0.19228196231E+02 -0.26636881769E+02  0.44813051498E+02  0.00000000000E+00 0. -1.
         -5    1    5    5    0  502  0.51809298625E+02 -0.83206839016E+02 -0.13431995676E+03  0.16634759471E+03  0.47000000000E+01 0.  1.
         15    1    6    6    0    0  0.39015432767E+02 -0.26388016303E+01  0.30270300210E+02  0.49483492923E+02  0.17770000000E+01 0. -1.
        -16    1    6    6    0    0 -0.10055941740E+02 -0.37833133488E+02 -0.17812830295E+02  0.43008892998E+02  0.00000000000E+00 0.  1.
<mgrwt>
<rscale>  2 0.22790560E+03</rscale>
<asrwt>0</asrwt>
<pdfrwt beam="1">  1       21 0.13829623E-01 0.22835864E+03</pdfrwt>
<pdfrwt beam="2">  1       21 0.12151453E+00 0.22835864E+03</pdfrwt>
<totfact> 0.22781910E+04</totfact>
</mgrwt>
</event>
<event>
12    2  0.4097182E-002  0.2744942E+03  0.7546771E-02  0.1098740E+00
         21   -1    0    0  501  502  0.00000000000E+00  0.00000000000E+00  0.44659058054E+03  0.44659058054E+03  0.00000000000E+00 0.  1.
         21   -1    0    0  502  503 -0.00000000000E+00 -0.00000000000E+00 -0.23021644964E+03  0.23021644964E+03  0.00000000000E+00 0.  1.
         -6    2    1    2    0  503  0.10260528724E+03  0.18710529931E+03 -0.66746590355E+02  0.28249276615E+03  0.17265809453E+03 0.  0.
        -24    2    3    3    0    0  0.24721644544E+02  0.16193070726E+03 -0.96789080173E+01  0.18260066310E+03  0.80103728025E+02 0.  0.
          6    2    1    2  501    0 -0.10260528724E+03 -0.18710529931E+03  0.28312072125E+03  0.39431426402E+03  0.17259825609E+03 0.  0.
         24    2    5    5    0    0 -0.92363786325E+02 -0.20181868491E+03  0.19964339521E+03  0.30880446329E+03  0.78999118328E+02 0.  0.
          5    1    5    5  501    0 -0.10241500914E+02  0.14713385595E+02  0.83477326044E+02  0.85509800725E+02  0.47000000000E+01 0. -1.
        -15    1    6    6    0    0 -0.26568456170E+02 -0.13899303956E+02  0.55132340525E+02  0.62783805352E+02  0.17770000000E+01 0.  1.
         16    1    6    6    0    0 -0.65795330155E+02 -0.18791938095E+03  0.14451105469E+03  0.24602065794E+03  0.00000000000E+00 0. -1.
         -5    1    3    3    0  503  0.77883642695E+02  0.25174592054E+02 -0.57067682338E+02  0.99892103051E+02  0.47000000000E+01 0.  1.
         15    1    4    4    0    0 -0.33478585363E+01  0.12951170702E+02  0.23788731412E+02  0.27349633462E+02  0.17770000000E+01 0. -1.
        -16    1    4    4    0    0  0.28069503081E+02  0.14897953656E+03 -0.33467639430E+02  0.15525102964E+03  0.00000000000E+00 0.  1.
<mgrwt>
<rscale>  2 0.27448477E+03</rscale>
<asrwt>0</asrwt>
<pdfrwt beam="1">  1       21 0.68706243E-01 0.27449418E+03</pdfrwt>
<pdfrwt beam="2">  1       21 0.35417915E-01 0.27449418E+03</pdfrwt>
<totfact> 0.14177450E+04</totfact>
</mgrwt>
</event>
<event>
12    2  0.4097182E-002  0.1814972E+03  0.7546771E-02  0.1166482E+00
         21   -1    0    0  501  502  0.00000000000E+00  0.00000000000E+00  0.29312934429E+02  0.29312934429E+02  0.00000000000E+00 0. -1.
         21   -1    0    0  502  503 -0.00000000000E+00 -0.00000000000E+00 -0.13939068305E+04  0.13939068305E+04  0.00000000000E+00 0. -1.
         -6    2    1    2    0  503  0.51092175344E+02  0.15632169301E+02 -0.99659796309E+03  0.10129001051E+04  0.17292873584E+03 0.  0.
        -24    2    3    3    0    0  0.17012006577E+02 -0.53891133771E+02 -0.43609722525E+03  0.44705726937E+03  0.80534151507E+02 0.  0.
          6    2    1    2  501    0 -0.51092175344E+02 -0.15632169301E+02 -0.36799593296E+03  0.41031965986E+03  0.17345443635E+03 0.  0.
         24    2    5    5    0    0 -0.54878415034E+02 -0.72151940832E+02 -0.20819471782E+03  0.24071028940E+03  0.79867765050E+02 0.  0.
          5    1    5    5  501    0  0.37862396907E+01  0.56519771531E+02 -0.15980121514E+03  0.16960937045E+03  0.47000000000E+01 0. -1.
        -15    1    6    6    0    0  0.11283298836E+02 -0.17779651481E+02 -0.73566325291E+01  0.22376474490E+02  0.17770000000E+01 0.  1.
         16    1    6    6    0    0 -0.66161713871E+02 -0.54372289351E+02 -0.20083808529E+03  0.21833381491E+03  0.00000000000E+00 0. -1.
         -5    1    3    3    0  503  0.34080168767E+02  0.69523303072E+02 -0.56050073784E+03  0.56584283569E+03  0.47000000000E+01 0.  1.
         15    1    4    4    0    0  0.28748895657E+02 -0.65285144118E+02 -0.41066674856E+03  0.41682008726E+03  0.17770000000E+01 0. -1.
        -16    1    4    4    0    0 -0.11736889081E+02  0.11394010347E+02 -0.25430476687E+02  0.30237182105E+02  0.00000000000E+00 0.  1.
<mgrwt>
<rscale>  2 0.18137144E+03</rscale>
<asrwt>0</asrwt>
<pdfrwt beam="1">  1       21 0.45096821E-02 0.18149715E+03</pdfrwt>
<pdfrwt beam="2">  1       21 0.21444721E+00 0.18149715E+03</pdfrwt>
<totfact> 0.35152443E+04</totfact>
</mgrwt>
</event>
<event>
12    2  0.4097182E-002  0.1857933E+03  0.7546771E-02  0.1162794E+00
         21   -1    0    0  501  502  0.00000000000E+00  0.00000000000E+00  0.17701787657E+03  0.17701787657E+03  0.00000000000E+00 0. -1.
         21   -1    0    0  502  503 -0.00000000000E+00 -0.00000000000E+00 -0.31869387610E+03  0.31869387610E+03  0.00000000000E+00 0. -1.
         -6    2    1    2    0  503  0.39598938739E+02 -0.52300100665E+02 -0.22635207317E+03  0.29153247324E+03  0.17161743922E+03 0.  0.
        -24    2    3    3    0    0  0.90522261056E+02 -0.24286061608E+02 -0.13435502972E+03  0.18261269935E+03  0.80697158667E+02 0.  0.
          6    2    1    2  501    0 -0.39598938739E+02  0.52300100665E+02  0.84676073651E+02  0.20417927943E+03  0.17382682251E+03 0.  0.
         24    2    5    5    0    0  0.11306332696E+02 -0.13040684699E+02 -0.42093949524E+01  0.82591938725E+02  0.80658643182E+02 0.  0.
          5    1    5    5  501    0 -0.50905271435E+02  0.65340785364E+02  0.88885468603E+02  0.12158734071E+03  0.47000000000E+01 0. -1.
        -15    1    6    6    0    0 -0.32320079547E+02 -0.23021015674E+00 -0.15280484396E+02  0.35795131946E+02  0.17770000000E+01 0.  1.
         16    1    6    6    0    0  0.43626412243E+02 -0.12810474542E+02  0.11071089444E+02  0.46796806779E+02  0.00000000000E+00 0. -1.
         -5    1    3    3    0  503 -0.50923322317E+02 -0.28014039057E+02 -0.91997043453E+02  0.10891977389E+03  0.47000000000E+01 0.  1.
         15    1    4    4    0    0  0.24812459293E+02  0.81404721576E+00  0.60139191420E+01  0.25605580670E+02  0.17770000000E+01 0. -1.
        -16    1    4    4    0    0  0.65709801763E+02 -0.25100108824E+02 -0.14036894886E+03  0.15700711868E+03  0.00000000000E+00 0.  1.
<mgrwt>
<rscale>  2 0.18527475E+03</rscale>
<asrwt>0</asrwt>
<pdfrwt beam="1">  1       21 0.27233520E-01 0.18579327E+03</pdfrwt>
<pdfrwt beam="2">  1       21 0.49029827E-01 0.18579327E+03</pdfrwt>
<totfact> 0.51182923E+04</totfact>
</mgrwt>
</event>
<event>
12    2  0.4097182E-002  0.2730192E+03  0.7546771E-02  0.1100015E+00
         21   -1    0    0  503  502  0.00000000000E+00  0.00000000000E+00  0.81880980155E+02  0.81880980155E+02  0.00000000000E+00 0. -1.
         21   -1    0    0  501  503 -0.00000000000E+00 -0.00000000000E+00 -0.12429526460E+04  0.12429526460E+04  0.00000000000E+00 0.  1.
          6    2    1    2  501    0 -0.24121675468E+02 -0.20929631016E+03 -0.92613713137E+03  0.96464795314E+03  0.16860867924E+03 0.  0.
         24    2    3    3    0    0 -0.63929159026E+02 -0.18959680546E+03 -0.64805313596E+03  0.68300011499E+03  0.80513377925E+02 0.  0.
         -6    2    1    2    0  502  0.24121675468E+02  0.20929631016E+03 -0.23493453443E+03  0.36018567298E+03  0.17364527887E+03 0.  0.
        -24    2    5    5    0    0 -0.21638853094E+01  0.39707821495E+02 -0.33968286073E+02  0.95873907873E+02  0.80352773846E+02 0.  0.
          5    1    3    3  501    0  0.39807483558E+02 -0.19699504693E+02 -0.27808399541E+03  0.28164783815E+03  0.47000000000E+01 0. -1.
        -15    1    4    4    0    0 -0.12221253045E+02 -0.12426886490E+03 -0.47179380617E+03  0.48804166121E+03  0.17770000000E+01 0.  1.
         16    1    4    4    0    0 -0.51707905981E+02 -0.65327940563E+02 -0.17625932980E+03  0.19495845378E+03  0.00000000000E+00 0. -1.
         -5    1    5    5    0  502  0.26285560778E+02  0.16958848866E+03 -0.20096624836E+03  0.26431176510E+03  0.47000000000E+01 0.  1.
         15    1    6    6    0    0  0.29375512679E+02  0.25197551940E+01  0.90045014845E+01  0.30878935982E+02  0.17770000000E+01 0. -1.
        -16    1    6    6    0    0 -0.31539397989E+02  0.37188066301E+02 -0.42972787558E+02  0.64994971891E+02  0.00000000000E+00 0.  1.
<mgrwt>
<rscale>  2 0.27222187E+03</rscale>
<asrwt>0</asrwt>
<pdfrwt beam="1">  1       21 0.12597075E-01 0.27301920E+03</pdfrwt>
<pdfrwt beam="2">  1       21 0.19122347E+00 0.27301920E+03</pdfrwt>
<totfact> 0.77652363E+03</totfact>
</mgrwt>
</event>
<event>
12    2  0.4097182E-002  0.1841621E+03  0.7546771E-02  0.1164881E+00
         21   -1    0    0  501  502  0.00000000000E+00  0.00000000000E+00  0.18555940288E+03  0.18555940288E+03  0.00000000000E+00 0. -1.
         21   -1    0    0  502  503 -0.00000000000E+00 -0.00000000000E+00 -0.32152071614E+03  0.32152071614E+03  0.00000000000E+00 0. -1.
         -6    2    1    2    0  503  0.49097358389E+02  0.27258843388E+02 -0.23665395747E+03  0.29718805078E+03  0.17076898664E+03 0.  0.
        -24    2    3    3    0    0 -0.10533579600E+02  0.28758024712E+02 -0.21702579424E+03  0.23421622294E+03  0.82577620696E+02 0.  0.
          6    2    1    2  501    0 -0.49097358389E+02 -0.27258843388E+02  0.10069264422E+03  0.20989206824E+03  0.17539121006E+03 0.  0.
         24    2    5    5    0    0 -0.92511460036E+02 -0.13643001129E+01  0.10153234248E+03  0.15911700855E+03  0.80306751191E+02 0.  0.
          5    1    5    5  501    0  0.43414101647E+02 -0.25894543275E+02 -0.83969825976E+00  0.50775059689E+02  0.47000000000E+01 0. -1.
        -15    1    6    6    0    0 -0.15846192635E+02  0.57041866484E+01 -0.12835196872E+02  0.21249460560E+02  0.17770000000E+01 0.  1.
         16    1    6    6    0    0 -0.76665267401E+02 -0.70684867613E+01  0.11436753935E+03  0.13786754799E+03  0.00000000000E+00 0. -1.
         -5    1    3    3    0  503  0.59630937988E+02 -0.14991813238E+01 -0.19628163234E+02  0.62971827843E+02  0.47000000000E+01 0.  1.
         15    1    4    4    0    0  0.33314713217E+02  0.47811874217E+01 -0.12536947299E+03  0.12982061607E+03  0.17770000000E+01 0. -1.
        -16    1    4    4    0    0 -0.43848292817E+02  0.23976837290E+02 -0.91656321248E+02  0.10439560687E+03  0.00000000000E+00 0.  1.
<mgrwt>
<rscale>  2 0.18305296E+03</rscale>
<asrwt>0</asrwt>
<pdfrwt beam="1">  1       21 0.28547601E-01 0.18416208E+03</pdfrwt>
<pdfrwt beam="2">  1       21 0.49464725E-01 0.18416208E+03</pdfrwt>
<totfact> 0.45916584E+04</totfact>
</mgrwt>
</event>
<event>
12    2  0.4097182E-002  0.1765829E+03  0.7546771E-02  0.1171496E+00
         21   -1    0    0  503  502  0.00000000000E+00  0.00000000000E+00  0.12782497265E+03  0.12782497265E+03  0.00000000000E+00 0.  1.
         21   -1    0    0  501  503 -0.00000000000E+00 -0.00000000000E+00 -0.24507252290E+03  0.24507252290E+03  0.00000000000E+00 0.  1.
          6    2    1    2  501    0 -0.18124518144E+02  0.27251359799E+02 -0.79616575230E+02  0.19370162187E+03  0.17352344077E+03 0.  0.
         24    2    3    3    0    0 -0.72657658725E+02  0.65649818173E+01 -0.80697470693E+02  0.13517771231E+03  0.80241496568E+02 0.  0.
         -6    2    1    2    0  502  0.18124518144E+02 -0.27251359799E+02 -0.37630975018E+02  0.17919587369E+03  0.17211605415E+03 0.  0.
        -24    2    5    5    0    0 -0.44571905319E+02 -0.40971500029E+02  0.69321805819E+01  0.10092040754E+03  0.80445975488E+02 0.  0.
          5    1    3    3  501    0  0.54533140580E+02  0.20686377981E+02  0.10808954622E+01  0.58523909563E+02  0.47000000000E+01 0. -1.
        -15    1    4    4    0    0 -0.63174600328E+02  0.35214281968E+02 -0.75477067153E+02  0.10455152403E+03  0.17770000000E+01 0.  1.
         16    1    4    4    0    0 -0.94830583967E+01 -0.28649300150E+02 -0.52204035392E+01  0.30626188283E+02  0.00000000000E+00 0. -1.
         -5    1    5    5    0  502  0.62696423464E+02  0.13720140230E+02 -0.44563155600E+02  0.78275466144E+02  0.47000000000E+01 0.  1.
         15    1    6    6    0    0 -0.79969011630E+01  0.21092709446E+02 -0.13101791791E+02  0.26147036106E+02  0.17770000000E+01 0. -1.
        -16    1    6    6    0    0 -0.36575004156E+02 -0.62064209475E+02  0.20033972373E+02  0.74773371435E+02  0.00000000000E+00 0.  1.
<mgrwt>
<rscale>  2 0.17623617E+03</rscale>
<asrwt>0</asrwt>
<pdfrwt beam="1">  1       21 0.19665381E-01 0.17658290E+03</pdfrwt>
<pdfrwt beam="2">  1       21 0.37703465E-01 0.17658290E+03</pdfrwt>
<totfact> 0.16242747E+05</totfact>
</mgrwt>
</event>
<event>
12    2  0.4097182E-002  0.1911489E+03  0.7546771E-02  0.1157865E+00
         21   -1    0    0  503  502  0.00000000000E+00  0.00000000000E+00  0.81971526674E+02  0.81971526674E+02  0.00000000000E+00 0.  1.
         21   -1    0    0  501  503 -0.00000000000E+00 -0.00000000000E+00 -0.54564339489E+03  0.54564339489E+03  0.00000000000E+00 0.  1.
          6    2    1    2  501    0 -0.80425351461E+02  0.34015591216E+01 -0.36815213897E+03  0.41392841841E+03  0.17123355506E+03 0.  0.
         24    2    3    3    0    0 -0.76453372959E+02  0.58399495039E+02 -0.19200344135E+03  0.22929092698E+03  0.80332984805E+02 0.  0.
         -6    2    1    2    0  502  0.80425351461E+02 -0.34015591216E+01 -0.95519729246E+02  0.21368650315E+03  0.17337270602E+03 0.  0.
        -24    2    5    5    0    0 -0.46534623984E+00 -0.45135139138E+02 -0.18857986223E+02  0.94589443916E+02  0.80957655128E+02 0.  0.
          5    1    3    3  501    0 -0.39719785016E+01 -0.54997935918E+02 -0.17614869762E+03  0.18463749143E+03  0.47000000000E+01 0. -1.
        -15    1    4    4    0    0  0.14027836342E+02 -0.47646108610E+01 -0.20517405489E+02  0.25369339095E+02  0.17770000000E+01 0.  1.
         16    1    4    4    0    0 -0.90481209301E+02  0.63164105900E+02 -0.17148603586E+03  0.20392158789E+03  0.00000000000E+00 0. -1.
         -5    1    5    5    0  502  0.80890697701E+02  0.41733580017E+02 -0.76661743023E+02  0.11909705924E+03  0.47000000000E+01 0.  1.
         15    1    6    6    0    0 -0.18282400320E+01 -0.41148937011E+02 -0.49066907785E+02  0.64088194289E+02  0.17770000000E+01 0. -1.
        -16    1    6    6    0    0  0.13628937922E+01 -0.39862021278E+01  0.30208921562E+02  0.30501249627E+02  0.00000000000E+00 0.  1.
<mgrwt>
<rscale>  2 0.19066253E+03</rscale>
<asrwt>0</asrwt>
<pdfrwt beam="1">  1       21 0.12611004E-01 0.19114890E+03</pdfrwt>
<pdfrwt beam="2">  1       21 0.83945141E-01 0.19114890E+03</pdfrwt>
<totfact> 0.66236411E+04</totfact>
</mgrwt>
</event>
<event>
12    2  0.4097182E-002  0.2069310E+03  0.7546771E-02  0.1144336E+00
         21   -1    0    0  501  502  0.00000000000E+00  0.00000000000E+00  0.10335590097E+03  0.10335590097E+03  0.00000000000E+00 0.  1.
         21   -1    0    0  502  503 -0.00000000000E+00 -0.00000000000E+00 -0.56236890694E+03  0.56236890694E+03  0.00000000000E+00 0.  1.
         -6    2    1    2    0  503  0.28833101286E+02  0.10100017162E+03 -0.40273216226E+03  0.45278432370E+03  0.17829208303E+03 0.  0.
        -24    2    3    3    0    0  0.89428485806E+02  0.69311201455E+02 -0.25401555340E+03  0.28903234292E+03  0.78830813572E+02 0.  0.
          6    2    1    2  501    0 -0.28833101286E+02 -0.10100017162E+03 -0.56280843701E+02  0.21294048421E+03  0.17647587384E+03 0.  0.
         24    2    5    5    0    0 -0.50057541391E+02 -0.12289615663E+03 -0.84822508790E+01  0.15604842419E+03  0.81669696634E+02 0.  0.
          5    1    5    5  501    0  0.21224440105E+02  0.21895985005E+02 -0.47798592822E+02  0.56892060016E+02  0.47000000000E+01 0. -1.
        -15    1    6    6    0    0 -0.25950622202E+02 -0.11924527042E+03 -0.27521232486E+02  0.12511372937E+03  0.17770000000E+01 0.  1.
         16    1    6    6    0    0 -0.24106919189E+02 -0.36508862056E+01  0.19038981607E+02  0.30934694818E+02  0.00000000000E+00 0. -1.
         -5    1    3    3    0  503 -0.60595384519E+02  0.31688970169E+02 -0.14871660887E+03  0.16375198078E+03  0.47000000000E+01 0.  1.
         15    1    4    4    0    0  0.49046685600E+02  0.10830365354E+02 -0.42247528242E+02  0.65657334347E+02  0.17770000000E+01 0. -1.
        -16    1    4    4    0    0  0.40381800206E+02  0.58480836101E+02 -0.21176802515E+03  0.22337500858E+03  0.00000000000E+00 0.  1.
<mgrwt>
<rscale>  2 0.20653922E+03</rscale>
<asrwt>0</asrwt>
<pdfrwt beam="1">  1       21 0.15900908E-01 0.20693103E+03</pdfrwt>
<pdfrwt beam="2">  1       21 0.86518293E-01 0.20693103E+03</pdfrwt>
<totfact> 0.40274439E+04</totfact>
</mgrwt>
</event>
<event>
12    2  0.4097182E-002  0.2249581E+03  0.7546771E-02  0.1132807E+00
         21   -1    0    0  503  502  0.00000000000E+00  0.00000000000E+00  0.13142522773E+03  0.13142522773E+03  0.00000000000E+00 0. -1.
         21   -1    0    0  501  503 -0.00000000000E+00 -0.00000000000E+00 -0.53745721090E+03  0.53745721090E+03  0.00000000000E+00 0. -1.
          6    2    1    2  501    0  0.89383499442E+02  0.78555939634E+02 -0.16261118328E+02  0.22554506935E+03  0.19090759209E+03 0.  0.
         24    2    3    3    0    0  0.53391618409E+01  0.87931877183E+02  0.37191912216E+02  0.12539180998E+03  0.81113167876E+02 0.  0.
         -6    2    1    2    0  502 -0.89383499442E+02 -0.78555939634E+02 -0.38977086484E+03  0.44333736928E+03  0.17454584010E+03 0.  0.
        -24    2    5    5    0    0 -0.89902958502E+02 -0.70110854636E+02 -0.15110040550E+03  0.20447073816E+03  0.77323194050E+02 0.  0.
          5    1    3    3  501    0  0.84044337601E+02 -0.93759375491E+01 -0.53453030544E+02  0.10015325937E+03  0.47000000000E+01 0. -1.
        -15    1    4    4    0    0  0.36501490652E+01  0.62506582101E+01 -0.22829301329E+02  0.24015183623E+02  0.17770000000E+01 0.  1.
         16    1    4    4    0    0  0.16890127757E+01  0.81681218973E+02  0.60021213545E+02  0.10137662636E+03  0.00000000000E+00 0. -1.
         -5    1    5    5    0  502  0.51945905960E+00 -0.84450849987E+01 -0.23867045934E+03  0.23886663112E+03  0.47000000000E+01 0.  1.
         15    1    6    6    0    0 -0.98727027021E+02 -0.72094142068E+02 -0.15234912185E+03  0.19534073779E+03  0.17770000000E+01 0. -1.
        -16    1    6    6    0    0  0.88240685187E+01  0.19832874327E+01  0.12487163474E+01  0.91300003712E+01  0.00000000000E+00 0.  1.
<mgrwt>
<rscale>  2 0.22144995E+03</rscale>
<asrwt>0</asrwt>
<pdfrwt beam="1">  1       21 0.20219266E-01 0.22495812E+03</pdfrwt>
<pdfrwt beam="2">  1       21 0.82685724E-01 0.22495812E+03</pdfrwt>
<totfact> 0.28358630E+04</totfact>
</mgrwt>
</event>
<event>
12    2  0.4097182E-002  0.1973154E+03  0.7546771E-02  0.1152160E+00
         21   -1    0    0  503  502  0.00000000000E+00  0.00000000000E+00  0.42544747571E+03  0.42544747571E+03  0.00000000000E+00 0.  1.
         21   -1    0    0  501  503 -0.00000000000E+00 -0.00000000000E+00 -0.27064725553E+03  0.27064725553E+03  0.00000000000E+00 0.  1.
          6    2    1    2  501    0  0.25098375441E+02 -0.89909271626E+02 -0.20602976487E+03  0.28483854622E+03  0.17312171392E+03 0.  0.
         24    2    3    3    0    0 -0.50286537822E+02 -0.61999405838E+02 -0.13632576254E+03  0.17833697959E+03  0.82744803738E+02 0.  0.
         -6    2    1    2    0  502 -0.25098375441E+02  0.89909271626E+02  0.36082998504E+03  0.41125618501E+03  0.17383833303E+03 0.  0.
        -24    2    5    5    0    0 -0.35707079115E+02  0.11628469905E+03  0.35305883788E+03  0.38141178028E+03  0.77635535661E+02 0.  0.
          5    1    3    3  501    0  0.75384913263E+02 -0.27909865788E+02 -0.69704002329E+02  0.10650156664E+03  0.47000000000E+01 0. -1.
        -15    1    4    4    0    0  0.59350593561E+01 -0.53199984908E+01 -0.80517846023E+02  0.80930887619E+02  0.17770000000E+01 0.  1.
         16    1    4    4    0    0 -0.56221597178E+02 -0.56679407347E+02 -0.55807916514E+02  0.97406091966E+02  0.00000000000E+00 0. -1.
         -5    1    5    5    0  502  0.10608703675E+02 -0.26375427426E+02  0.77711471621E+01  0.29844404731E+02  0.47000000000E+01 0.  1.
         15    1    6    6    0    0 -0.37093627245E+02  0.11309264200E+03  0.23617572869E+03  0.26447687122E+03  0.17770000000E+01 0. -1.
        -16    1    6    6    0    0  0.13865481293E+01  0.31920570544E+01  0.11688310919E+03  0.11693490906E+03  0.00000000000E+00 0.  1.
<mgrwt>
<rscale>  2 0.19715746E+03</rscale>
<asrwt>0</asrwt>
<pdfrwt beam="1">  1       21 0.65453458E-01 0.19731541E+03</pdfrwt>
<pdfrwt beam="2">  1       21 0.41638039E-01 0.19731541E+03</pdfrwt>
<totfact> 0.11884020E+04</totfact>
</mgrwt>
</event>
<event>
12    2  0.4097182E-002  0.2343894E+03  0.7546771E-02  0.1124365E+00
         21   -1    0    0  501  502  0.00000000000E+00  0.00000000000E+00  0.23184989909E+03  0.23184989909E+03  0.00000000000E+00 0.  1.
         21   -1    0    0  502  503 -0.00000000000E+00 -0.00000000000E+00 -0.32838812558E+03  0.32838812558E+03  0.00000000000E+00 0.  1.
         -6    2    1    2    0  503  0.14336429568E+03 -0.66439859711E+02 -0.20000228312E+03  0.30812218827E+03  0.17312074807E+03 0.  0.
        -24    2    3    3    0    0  0.29328764556E+02 -0.42478769821E+02 -0.15686127272E+03  0.18377801684E+03  0.80649105879E+02 0.  0.
          6    2    1    2  501    0 -0.14336429568E+03  0.66439859711E+02  0.10346405663E+03  0.25211583641E+03  0.16700301710E+03 0.  0.
         24    2    5    5    0    0 -0.15515511940E+03  0.93797013307E+02  0.82031818897E+02  0.21511761766E+03  0.81702994631E+02 0.  0.
          5    1    5    5  501    0  0.11790823719E+02 -0.27357153596E+02  0.21432237729E+02  0.36998218753E+02  0.47000000000E+01 0. -1.
        -15    1    6    6    0    0 -0.98547715892E+02  0.48943707767E+02  0.90392757505E+02  0.14241189268E+03  0.17770000000E+01 0.  1.
         16    1    6    6    0    0 -0.56607403512E+02  0.44853305540E+02 -0.83609386081E+01  0.72705724979E+02  0.00000000000E+00 0. -1.
         -5    1    3    3    0  503  0.11403553113E+03 -0.23961089890E+02 -0.43141010396E+02  0.12434417142E+03  0.47000000000E+01 0.  1.
         15    1    4    4    0    0 -0.10325857065E+00 -0.17798303701E+02  0.40550040445E+01  0.18340966817E+02  0.17770000000E+01 0. -1.
        -16    1    4    4    0    0  0.29432023127E+02 -0.24680466120E+02 -0.16091627677E+03  0.16543705003E+03  0.00000000000E+00 0.  1.
<mgrwt>
<rscale>  2 0.23326084E+03</rscale>
<asrwt>0</asrwt>
<pdfrwt beam="1">  1       21 0.35669215E-01 0.23438935E+03</pdfrwt>
<pdfrwt beam="2">  1       21 0.50521250E-01 0.23438935E+03</pdfrwt>
<totfact> 0.27644421E+04</totfact>
</mgrwt>
</event>
<event>
12    2  0.4097182E-002  0.1985103E+03  0.7546771E-02  0.1151135E+00
         21   -1    0    0  501  502  0.00000000000E+00  0.00000000000E+00  0.54361042595E+03  0.54361042595E+03  0.00000000000E+00 0.  1.
         21   -1    0    0  502  503 -0.00000000000E+00 -0.00000000000E+00 -0.79960199447E+02  0.79960199447E+02  0.00000000000E+00 0.  1.
         -6    2    1    2    0  503  0.91238990214E+02  0.34165627021E+02  0.13541702422E+03  0.24030006758E+03  0.17295811234E+03 0.  0.
        -24    2    3    3    0    0 -0.20626838240E+02  0.12476497036E+02  0.59830195793E+02  0.10347959920E+03  0.80915052296E+02 0.  0.
          6    2    1    2  501    0 -0.91238990214E+02 -0.34165627021E+02  0.32823320228E+03  0.38327055782E+03  0.17224239317E+03 0.  0.
         24    2    5    5    0    0 -0.10252039143E+03 -0.37755357832E+02  0.34032081281E+03  0.36571047498E+03  0.77395078496E+02 0.  0.
          5    1    5    5  501    0  0.11281401219E+02  0.35897308108E+01 -0.12087610531E+02  0.17560082833E+02  0.47000000000E+01 0. -1.
        -15    1    6    6    0    0 -0.11315107643E+03 -0.28708934905E+02  0.27231748166E+03  0.29628928024E+03  0.17770000000E+01 0.  1.
         16    1    6    6    0    0  0.10630684999E+02 -0.90464229276E+01  0.68003331154E+02  0.69421194742E+02  0.00000000000E+00 0. -1.
         -5    1    3    3    0  503  0.11186582845E+03  0.21689129986E+02  0.75586828427E+02  0.13682046838E+03  0.47000000000E+01 0.  1.
         15    1    4    4    0    0 -0.30727891561E+02  0.42398678142E+02  0.32046335580E+02  0.61416419475E+02  0.17770000000E+01 0. -1.
        -16    1    4    4    0    0  0.10101053320E+02 -0.29922181107E+02  0.27783860213E+02  0.42063179727E+02  0.00000000000E+00 0.  1.
<mgrwt>
<rscale>  2 0.19835433E+03</rscale>
<asrwt>0</asrwt>
<pdfrwt beam="1">  1       21 0.83632371E-01 0.19851033E+03</pdfrwt>
<pdfrwt beam="2">  1       21 0.12301569E-01 0.19851033E+03</pdfrwt>
<totfact> 0.69609120E+04</totfact>
</mgrwt>
</event>
<event>
12    2  0.4097182E-002  0.2601639E+03  0.7546771E-02  0.1107317E+00
         21   -1    0    0  503  502  0.00000000000E+00  0.00000000000E+00  0.79380055723E+03  0.79380055723E+03  0.00000000000E+00 0.  1.
         21   -1    0    0  501  503 -0.00000000000E+00 -0.00000000000E+00 -0.86879421010E+02  0.86879421010E+02  0.00000000000E+00 0.  1.
          6    2    1    2  501    0  0.14559041837E+03 -0.12956603194E+03  0.28452494518E+03  0.38553818215E+03  0.17234070592E+03 0.  0.
         24    2    3    3    0    0  0.16574045205E+03 -0.13039179977E+03  0.28630150144E+03  0.36475472955E+03  0.81274498543E+02 0.  0.
         -6    2    1    2    0  502 -0.14559041837E+03  0.12956603194E+03  0.42239619104E+03  0.49514179609E+03  0.16959637223E+03 0.  0.
        -24    2    5    5    0    0 -0.57432977872E+02 -0.36429155483E+01  0.14901083854E+03  0.17847478018E+03  0.79606528469E+02 0.  0.
          5    1    3    3  501    0 -0.20150033681E+02  0.82576783010E+00 -0.17765562577E+01  0.20783452600E+02  0.47000000000E+01 0. -1.
        -15    1    4    4    0    0  0.46564814837E+02 -0.87600296528E+02  0.13250495967E+03  0.16553795939E+03  0.17770000000E+01 0.  1.
         16    1    4    4    0    0  0.11917563722E+03 -0.42791503239E+02  0.15379654177E+03  0.19921677017E+03  0.00000000000E+00 0. -1.
         -5    1    5    5    0  502 -0.88157440501E+02  0.13320894748E+03  0.27338535250E+03  0.31666701591E+03  0.47000000000E+01 0.  1.
         15    1    6    6    0    0 -0.86710355282E+00 -0.23617619250E+02  0.76376918582E+01  0.24900519543E+02  0.17770000000E+01 0. -1.
        -16    1    6    6    0    0 -0.56565874319E+02  0.19974703702E+02  0.14137314668E+03  0.15357426063E+03  0.00000000000E+00 0.  1.
<mgrwt>
<rscale>  2 0.25971026E+03</rscale>
<asrwt>0</asrwt>
<pdfrwt beam="1">  1       21 0.12212316E+00 0.26016388E+03</pdfrwt>
<pdfrwt beam="2">  1       21 0.13366065E-01 0.26016388E+03</pdfrwt>
<totfact> 0.23549993E+04</totfact>
</mgrwt>
</event>
<event>
12    2  0.4097182E-002  0.1960047E+03  0.7546771E-02  0.1153564E+00
         21   -1    0    0  503  502  0.00000000000E+00  0.00000000000E+00  0.13057108011E+04  0.13057108011E+04  0.00000000000E+00 0.  1.
         21   -1    0    0  501  503 -0.00000000000E+00 -0.00000000000E+00 -0.65103211797E+02  0.65103211797E+02  0.00000000000E+00 0.  1.
          6    2    1    2  501    0  0.29661368309E+02 -0.87101448805E+02  0.11223214622E+03  0.22586257619E+03  0.17306469751E+03 0.  0.
         24    2    3    3    0    0  0.88576503078E+01 -0.11888365684E+02  0.12314915619E+03  0.14692542612E+03  0.78750079112E+02 0.  0.
         -6    2    1    2    0  502 -0.29661368309E+02  0.87101448805E+02  0.11283754431E+04  0.11449514367E+04  0.17092744865E+03 0.  0.
        -24    2    5    5    0    0 -0.68909968115E+02  0.56065579615E+02  0.48022872054E+03  0.49485918040E+03  0.79837656967E+02 0.  0.
          5    1    3    3  501    0  0.20803718001E+02 -0.75213083121E+02 -0.10917009977E+02  0.78937150076E+02  0.47000000000E+01 0. -1.
        -15    1    4    4    0    0  0.17104883877E+02 -0.36034524927E+02  0.11232188045E+03  0.11920749387E+03  0.17770000000E+01 0.  1.
         16    1    4    4    0    0 -0.82472335696E+01  0.24146159243E+02  0.10827275748E+02  0.27717932244E+02  0.00000000000E+00 0. -1.
         -5    1    5    5    0  502  0.39248599806E+02  0.31035869190E+02  0.64814672255E+03  0.65009225632E+03  0.47000000000E+01 0.  1.
         15    1    6    6    0    0 -0.15934738424E+02 -0.18970237459E+02  0.64798579667E+02  0.69395961364E+02  0.17770000000E+01 0. -1.
        -16    1    6    6    0    0 -0.52975229692E+02  0.75035817074E+02  0.41543014088E+03  0.42546321904E+03  0.00000000000E+00 0.  1.
<mgrwt>
<rscale>  2 0.19553188E+03</rscale>
<asrwt>0</asrwt>
<pdfrwt beam="1">  1       21 0.20087857E+00 0.19600472E+03</pdfrwt>
<pdfrwt beam="2">  1       21 0.10015880E-01 0.19600472E+03</pdfrwt>
<totfact> 0.10694778E+04</totfact>
</mgrwt>
</event>
<event>
12    2  0.4097182E-002  0.1874041E+03  0.7546771E-02  0.1161116E+00
         21   -1    0    0  501  502  0.00000000000E+00  0.00000000000E+00  0.19173718866E+03  0.19173718866E+03  0.00000000000E+00 0.  1.
         21   -1    0    0  502  503 -0.00000000000E+00 -0.00000000000E+00 -0.20901833898E+03  0.20901833898E+03  0.00000000000E+00 0.  1.
         -6    2    1    2    0  503  0.59366129194E+02  0.36945011917E+02 -0.80801639985E+02  0.20408136197E+03  0.17387071657E+03 0.  0.
        -24    2    3    3    0    0  0.38360755665E+02  0.22030674763E+02  0.23995699033E+02  0.96061755255E+02  0.81824012643E+02 0.  0.
          6    2    1    2  501    0 -0.59366129194E+02 -0.36945011917E+02  0.63520489672E+02  0.19667416567E+03  0.17250102502E+03 0.  0.
         24    2    5    5    0    0 -0.83208794711E+02 -0.30741717109E+02  0.97461081468E+02  0.15447218305E+03  0.80586824283E+02 0.  0.
          5    1    5    5  501    0  0.23842665517E+02 -0.62032948084E+01 -0.33940591796E+02  0.42201982618E+02  0.47000000000E+01 0. -1.
        -15    1    6    6    0    0  0.81657361263E+01  0.12275519786E+02  0.28632862128E+02  0.32254707488E+02  0.17770000000E+01 0.  1.
         16    1    6    6    0    0 -0.91374530837E+02 -0.43017236895E+02  0.68828219340E+02  0.12221747556E+03  0.00000000000E+00 0. -1.
         -5    1    3    3    0  503  0.21005373529E+02  0.14914337154E+02 -0.10479733902E+03  0.10801960672E+03  0.47000000000E+01 0.  1.
         15    1    4    4    0    0 -0.15348210174E+02 -0.16148764987E+01 -0.18091533398E+02  0.23846104322E+02  0.17770000000E+01 0. -1.
        -16    1    4    4    0    0  0.53708965839E+02  0.23645551262E+02  0.42087232431E+02  0.72215650933E+02  0.00000000000E+00 0.  1.
<mgrwt>
<rscale>  2 0.18708577E+03</rscale>
<asrwt>0</asrwt>
<pdfrwt beam="1">  1       21 0.29498029E-01 0.18740410E+03</pdfrwt>
<pdfrwt beam="2">  1       21 0.32156668E-01 0.18740410E+03</pdfrwt>
<totfact> 0.10264156E+05</totfact>
</mgrwt>
</event>
<event>
12    2  0.4097182E-002  0.2695159E+03  0.7546771E-02  0.1101686E+00
         21   -1    0    0  503  502  0.00000000000E+00  0.00000000000E+00  0.26967461775E+03  0.26967461775E+03  0.00000000000E+00 0. -1.
         21   -1    0    0  501  503 -0.00000000000E+00 -0.00000000000E+00 -0.39791835842E+03  0.39791835842E+03  0.00000000000E+00 0.  1.
          6    2    1    2  501    0 -0.13553317583E+03 -0.15496156797E+03 -0.25444298056E+03  0.36999411096E+03  0.17254588517E+03 0.  0.
         24    2    3    3    0    0 -0.13892729417E+03 -0.69361031668E+02 -0.12135970445E+03  0.21165201222E+03  0.77179340692E+02 0.  0.
         -6    2    1    2    0  502  0.13553317583E+03  0.15496156797E+03  0.12619923989E+03  0.29759886522E+03  0.17394397700E+03 0.  0.
        -24    2    5    5    0    0  0.13760044585E+03  0.18226427853E+03  0.11202729581E+03  0.26641159845E+03  0.79188855601E+02 0.  0.
          5    1    3    3  501    0  0.33941183479E+01 -0.85600536297E+02 -0.13308327611E+03  0.15834209874E+03  0.47000000000E+01 0. -1.
        -15    1    4    4    0    0 -0.24013461815E+02  0.14029592492E+02 -0.37607927729E+02  0.46808009688E+02  0.17770000000E+01 0.  1.
         16    1    4    4    0    0 -0.11491383236E+03 -0.83390624160E+02 -0.83751776725E+02  0.16484400253E+03  0.00000000000E+00 0. -1.
         -5    1    5    5    0  502 -0.20672700271E+01 -0.27302710567E+02  0.14171944079E+02  0.31187266771E+02  0.47000000000E+01 0.  1.
         15    1    6    6    0    0  0.94500618247E+02  0.91164606534E+02  0.99704680427E+02  0.16488036075E+03  0.17770000000E+01 0. -1.
        -16    1    6    6    0    0  0.43099827605E+02  0.91099671998E+02  0.12322615388E+02  0.10153123769E+03  0.00000000000E+00 0.  1.
<mgrwt>
<rscale>  2 0.26929060E+03</rscale>
<asrwt>0</asrwt>
<pdfrwt beam="1">  1       21 0.41488403E-01 0.26951593E+03</pdfrwt>
<pdfrwt beam="2">  1       21 0.61218209E-01 0.26951593E+03</pdfrwt>
<totfact> 0.13289011E+04</totfact>
</mgrwt>
</event>
<event>
12    2  0.4097182E-002  0.1747745E+03  0.7546771E-02  0.1173302E+00
         21   -1    0    0  503  502  0.00000000000E+00  0.00000000000E+00  0.52299265453E+02  0.52299265453E+02  0.00000000000E+00 0.  1.
         21   -1    0    0  501  503 -0.00000000000E+00 -0.00000000000E+00 -0.76278895541E+03  0.76278895541E+03  0.00000000000E+00 0.  1.
          6    2    1    2  501    0  0.79413613399E+01  0.22924601974E+02 -0.55606077884E+03  0.58288053965E+03  0.17308244029E+03 0.  0.
         24    2    3    3    0    0  0.71330355649E+02  0.22047761582E+02 -0.38544372085E+03  0.40080581893E+03  0.80649359037E+02 0.  0.
         -6    2    1    2    0  502 -0.79413613399E+01 -0.22924601974E+02 -0.15442891112E+03  0.23220768122E+03  0.17170764698E+03 0.  0.
        -24    2    5    5    0    0  0.55010027200E+02 -0.42835758674E+02 -0.84221205039E+02  0.13571652373E+03  0.80403719577E+02 0.  0.
          5    1    3    3  501    0 -0.63388994310E+02  0.87684039210E+00 -0.17061705799E+03  0.18207472072E+03  0.47000000000E+01 0. -1.
        -15    1    4    4    0    0  0.34789908954E+02  0.52034699194E+02 -0.21651512852E+03  0.22538834552E+03  0.17770000000E+01 0.  1.
         16    1    4    4    0    0  0.36540446696E+02 -0.29986937612E+02 -0.16892859233E+03  0.17541747341E+03  0.00000000000E+00 0. -1.
         -5    1    5    5    0  502 -0.62951388540E+02  0.19911156700E+02 -0.70207706080E+02  0.96491157487E+02  0.47000000000E+01 0.  1.
         15    1    6    6    0    0  0.61973689474E+00  0.11134578924E+02 -0.50941745698E+02  0.52178368174E+02  0.17770000000E+01 0. -1.
        -16    1    6    6    0    0  0.54390290305E+02 -0.53970337597E+02 -0.33279459341E+02  0.83538155557E+02  0.00000000000E+00 0.  1.
<mgrwt>
<rscale>  2 0.17443318E+03</rscale>
<asrwt>0</asrwt>
<pdfrwt beam="1">  1       21 0.80460406E-02 0.17477452E+03</pdfrwt>
<pdfrwt beam="2">  1       21 0.11735215E+00 0.17477452E+03</pdfrwt>
<totfact> 0.66869668E+04</totfact>
</mgrwt>
</event>
<event>
12    2  0.4097182E-002  0.1797525E+03  0.7546771E-02  0.1168779E+00
         21   -1    0    0  501  502  0.00000000000E+00  0.00000000000E+00  0.51474301634E+03  0.51474301634E+03  0.00000000000E+00 0. -1.
         21   -1    0    0  502  503 -0.00000000000E+00 -0.00000000000E+00 -0.69190966928E+02  0.69190966928E+02  0.00000000000E+00 0. -1.
         -6    2    1    2    0  503  0.40859337652E+02  0.14454904909E+02  0.31700763442E+03  0.36294837235E+03  0.17134541418E+03 0.  0.
        -24    2    3    3    0    0  0.78798194449E+02  0.38265161190E+02  0.26742756527E+03  0.29596659560E+03  0.91680668836E+02 0.  0.
          6    2    1    2  501    0 -0.40859337652E+02 -0.14454904909E+02  0.12854441499E+03  0.22098561092E+03  0.17444925869E+03 0.  0.
         24    2    5    5    0    0  0.90581454796E+01 -0.43995747131E+02  0.16920718810E+02  0.95103300681E+02  0.82101469598E+02 0.  0.
          5    1    5    5  501    0 -0.49917483132E+02  0.29540842222E+02  0.11162369618E+03  0.12588231024E+03  0.47000000000E+01 0. -1.
        -15    1    6    6    0    0 -0.36003763738E+02 -0.24627697028E+02  0.14797314486E+01  0.43682282431E+02  0.17770000000E+01 0.  1.
         16    1    6    6    0    0  0.45061909218E+02 -0.19368050103E+02  0.15440987362E+02  0.51421018250E+02  0.00000000000E+00 0. -1.
         -5    1    3    3    0  503 -0.37938856797E+02 -0.23810256281E+02  0.49580069158E+02  0.66981776753E+02  0.47000000000E+01 0.  1.
         15    1    4    4    0    0  0.61007768413E+02 -0.21222160521E+02  0.13070166772E+03  0.14580264599E+03  0.17770000000E+01 0. -1.
        -16    1    4    4    0    0  0.17790426036E+02  0.59487321711E+02  0.13672589755E+03  0.15016394961E+03  0.00000000000E+00 0.  1.
<mgrwt>
<rscale>  2 0.17899509E+03</rscale>
<asrwt>0</asrwt>
<pdfrwt beam="1">  1       21 0.79191231E-01 0.17975253E+03</pdfrwt>
<pdfrwt beam="2">  1       21 0.10644764E-01 0.17975253E+03</pdfrwt>
<totfact> 0.10275149E+05</totfact>
</mgrwt>
</event>
<event>
12    2  0.4097182E-002  0.1806232E+03  0.7546771E-02  0.1167242E+00
         21   -1    0    0  503  502  0.00000000000E+00  0.00000000000E+00  0.11393704263E+03  0.11393704263E+03  0.00000000000E+00 0.  1.
         21   -1    0    0  501  503 -0.00000000000E+00 -0.00000000000E+00 -0.32801770771E+03  0.32801770771E+03  0.00000000000E+00 0. -1.
          6    2    1    2  501    0  0.50792003359E+02  0.85830702439E+01 -0.18610673028E+03  0.25934622367E+03  0.17312207246E+03 0.  0.
         24    2    3    3    0    0  0.41356543648E+02 -0.16515979933E+02 -0.24288648305E+02  0.95254262024E+02  0.80624405124E+02 0.  0.
         -6    2    1    2    0  502 -0.50792003359E+02 -0.85830702439E+01 -0.27973934789E+02  0.18260852667E+03  0.17294460467E+03 0.  0.
        -24    2    5    5    0    0  0.30498459383E+02  0.19928515849E+02 -0.34112614154E+02  0.96116774125E+02  0.82142936732E+02 0.  0.
          5    1    3    3  501    0  0.94354597107E+01  0.25099050177E+02 -0.16181808198E+03  0.16409196164E+03  0.47000000000E+01 0. -1.
        -15    1    4    4    0    0 -0.22116587485E+02  0.37111412354E+01  0.40524620004E+01  0.22858175529E+02  0.17770000000E+01 0.  1.
         16    1    4    4    0    0  0.63473131133E+02 -0.20227121168E+02 -0.28341110305E+02  0.72396086496E+02  0.00000000000E+00 0. -1.
         -5    1    5    5    0  502 -0.81290462742E+02 -0.28511586093E+02  0.61386793642E+01  0.86491752547E+02  0.47000000000E+01 0.  1.
         15    1    6    6    0    0  0.53548747565E+02  0.22304139843E+02 -0.40728902454E+01  0.58178081645E+02  0.17770000000E+01 0. -1.
        -16    1    6    6    0    0 -0.23050288182E+02 -0.23756239938E+01 -0.30039723908E+02  0.37938692480E+02  0.00000000000E+00 0.  1.
<mgrwt>
<rscale>  2 0.18058069E+03</rscale>
<asrwt>0</asrwt>
<pdfrwt beam="1">  1       21 0.17528776E-01 0.18062322E+03</pdfrwt>
<pdfrwt beam="2">  1       21 0.50464262E-01 0.18062322E+03</pdfrwt>
<totfact> 0.11069122E+05</totfact>
</mgrwt>
</event>
<event>
12    2  0.4097182E-002  0.2771412E+03  0.7546771E-02  0.1097361E+00
         21   -1    0    0  503  502  0.00000000000E+00  0.00000000000E+00  0.12280154560E+03  0.12280154560E+03  0.00000000000E+00 0. -1.
         21   -1    0    0  501  503 -0.00000000000E+00 -0.00000000000E+00 -0.10214537764E+04  0.10214537764E+04  0.00000000000E+00 0.  1.
          6    2    1    2  501    0  0.15366945545E+03 -0.15222144299E+03 -0.80593114125E+03  0.85201492256E+03  0.17210100109E+03 0.  0.
         24    2    3    3    0    0  0.49571845032E+02 -0.13760621866E+03 -0.57165552193E+03  0.59519383097E+03  0.77928309581E+02 0.  0.
         -6    2    1    2    0  502 -0.15366945545E+03  0.15222144299E+03 -0.92721089584E+02  0.29224039949E+03  0.17326736968E+03 0.  0.
        -24    2    5    5    0    0 -0.14602221566E+03  0.51013133636E+02 -0.46254470550E+02  0.18051377400E+03  0.80752209170E+02 0.  0.
          5    1    3    3  501    0  0.10409761041E+03 -0.14615224327E+02 -0.23427561932E+03  0.25682109159E+03  0.47000000000E+01 0. -1.
        -15    1    4    4    0    0  0.60625809591E+02 -0.62782273165E+02 -0.25128050371E+03  0.26601156345E+03  0.17770000000E+01 0.  1.
         16    1    4    4    0    0 -0.11053964559E+02 -0.74823945499E+02 -0.32037501822E+03  0.32918226752E+03  0.00000000000E+00 0. -1.
         -5    1    5    5    0  502 -0.76472397834E+01  0.10120830936E+03 -0.46466619033E+02  0.11172662549E+03  0.47000000000E+01 0.  1.
         15    1    6    6    0    0 -0.35648191804E+02  0.26245524517E+02  0.20875974534E+02  0.48975352759E+02  0.17770000000E+01 0. -1.
        -16    1    6    6    0    0 -0.11037402386E+03  0.24767609119E+02 -0.67130445085E+02  0.13153842124E+03  0.00000000000E+00 0.  1.
<mgrwt>
<rscale>  2 0.27695910E+03</rscale>
<asrwt>0</asrwt>
<pdfrwt beam="1">  1       21 0.18892546E-01 0.27714121E+03</pdfrwt>
<pdfrwt beam="2">  1       21 0.15714673E+00 0.27714121E+03</pdfrwt>
<totfact> 0.63918340E+03</totfact>
</mgrwt>
</event>
<event>
12    2  0.4097182E-002  0.2344988E+03  0.7546771E-02  0.1123537E+00
         21   -1    0    0  501  502  0.00000000000E+00  0.00000000000E+00  0.40064257914E+03  0.40064257914E+03  0.00000000000E+00 0. -1.
         21   -1    0    0  502  503 -0.00000000000E+00 -0.00000000000E+00 -0.17558339478E+03  0.17558339478E+03  0.00000000000E+00 0.  1.
         -6    2    1    2    0  503  0.11819125905E+03  0.10577692902E+03 -0.22252949812E+02  0.23541372228E+03  0.17252969145E+03 0.  0.
        -24    2    3    3    0    0  0.60973840192E+02  0.11211037237E+03  0.34536041699E+02  0.15441356745E+03  0.79776355238E+02 0.  0.
          6    2    1    2  501    0 -0.11819125905E+03 -0.10577692902E+03  0.24731213418E+03  0.34081225164E+03  0.17271875036E+03 0.  0.
         24    2    5    5    0    0  0.64181740257E+01 -0.63221932180E+02  0.10922927383E+03  0.14995260454E+03  0.80725111838E+02 0.  0.
          5    1    5    5  501    0 -0.12460943308E+03 -0.42554996839E+02  0.13808286035E+03  0.19085964710E+03  0.47000000000E+01 0. -1.
        -15    1    6    6    0    0 -0.85664472517E+01  0.18068633481E+02  0.21095543280E+02  0.29121112782E+02  0.17770000000E+01 0.  1.
         16    1    6    6    0    0  0.14984621277E+02 -0.81290565661E+02  0.88133730548E+02  0.12083149176E+03  0.00000000000E+00 0. -1.
         -5    1    3    3    0  503  0.57217418858E+02 -0.63334433528E+01 -0.56788991511E+02  0.81000154829E+02  0.47000000000E+01 0.  1.
         15    1    4    4    0    0  0.60021619903E+02  0.12338288006E+03  0.24703501494E+02  0.13942507186E+03  0.17770000000E+01 0. -1.
        -16    1    4    4    0    0  0.95222028914E+00 -0.11272507691E+02  0.98325402045E+01  0.14988495588E+02  0.00000000000E+00 0.  1.
<mgrwt>
<rscale>  2 0.23446401E+03</rscale>
<asrwt>0</asrwt>
<pdfrwt beam="1">  1       21 0.61637320E-01 0.23449883E+03</pdfrwt>
<pdfrwt beam="2">  1       21 0.27012830E-01 0.23449883E+03</pdfrwt>
<totfact> 0.31247799E+04</totfact>
</mgrwt>
</event>
<event>
12    2  0.4097182E-002  0.3252250E+03  0.7546771E-02  0.1073304E+00
         21   -1    0    0  503  502  0.00000000000E+00  0.00000000000E+00  0.31169452860E+03  0.31169452860E+03  0.00000000000E+00 0.  1.
         21   -1    0    0  501  503 -0.00000000000E+00 -0.00000000000E+00 -0.34142213387E+03  0.34142213387E+03  0.00000000000E+00 0.  1.
          6    2    1    2  501    0 -0.25417790595E+03  0.10539021650E+03  0.12530024768E+02  0.32515782959E+03  0.17279209189E+03 0.  0.
         24    2    3    3    0    0 -0.25998570907E+03  0.92591253726E+02  0.43030359138E+02  0.29124758893E+03  0.82509617982E+02 0.  0.
         -6    2    1    2    0  502  0.25417790595E+03 -0.10539021650E+03 -0.42257630037E+02  0.32795883288E+03  0.17337180614E+03 0.  0.
        -24    2    5    5    0    0  0.10552941720E+03 -0.86593609714E+01 -0.65648951317E+02  0.14901058470E+03  0.81749171958E+02 0.  0.
          5    1    3    3  501    0  0.58078031282E+01  0.12798962774E+02 -0.30500334370E+02  0.33910240665E+02  0.47000000000E+01 0. -1.
        -15    1    4    4    0    0 -0.46485190208E+02  0.53465003497E+02  0.14302533891E+02  0.72298684029E+02  0.17770000000E+01 0.  1.
         16    1    4    4    0    0 -0.21350051887E+03  0.39126250229E+02  0.28727825247E+02  0.21894890490E+03  0.00000000000E+00 0. -1.
         -5    1    5    5    0  502  0.14864848874E+03 -0.96730855529E+02  0.23391321279E+02  0.17894824819E+03  0.47000000000E+01 0.  1.
         15    1    6    6    0    0  0.31106242811E+02  0.28535000116E+02  0.12237775237E+01  0.42267007629E+02  0.17770000000E+01 0. -1.
        -16    1    6    6    0    0  0.74423174390E+02 -0.37194361088E+02 -0.66872728840E+02  0.10674357707E+03  0.00000000000E+00 0.  1.
<mgrwt>
<rscale>  2 0.32514779E+03</rscale>
<asrwt>0</asrwt>
<pdfrwt beam="1">  1       21 0.47953004E-01 0.32522498E+03</pdfrwt>
<pdfrwt beam="2">  1       21 0.52526482E-01 0.32522498E+03</pdfrwt>
<totfact> 0.13353269E+04</totfact>
</mgrwt>
</event>
<event>
12    2  0.4097182E-002  0.2147445E+03  0.7546771E-02  0.1138451E+00
         21   -1    0    0  503  502  0.00000000000E+00  0.00000000000E+00  0.23005105413E+03  0.23005105413E+03  0.00000000000E+00 0. -1.
         21   -1    0    0  501  503 -0.00000000000E+00 -0.00000000000E+00 -0.25618290709E+03  0.25618290709E+03  0.00000000000E+00 0. -1.
          6    2    1    2  501    0 -0.39408301532E+02  0.11646372263E+03 -0.12935875487E+03  0.25069678806E+03  0.17606356569E+03 0.  0.
         24    2    3    3    0    0 -0.77289828175E+02  0.55194658105E+02 -0.11897609250E+03  0.17776669820E+03  0.91790634497E+02 0.  0.
         -6    2    1    2    0  502  0.39408301532E+02 -0.11646372263E+03  0.10322690191E+03  0.23553717316E+03  0.17235183127E+03 0.  0.
        -24    2    5    5    0    0  0.60396678546E+02 -0.12049589393E+03  0.29472152807E+02  0.15860458325E+03  0.78229066233E+02 0.  0.
          5    1    3    3  501    0  0.37881526644E+02  0.61269064526E+02 -0.10382662369E+02  0.72930089858E+02  0.47000000000E+01 0. -1.
        -15    1    4    4    0    0 -0.13876620564E+02 -0.69174683600E+00 -0.85844892748E+02  0.86980126764E+02  0.17770000000E+01 0.  1.
         16    1    4    4    0    0 -0.63413207612E+02  0.55886404941E+02 -0.33131199750E+02  0.90786571439E+02  0.00000000000E+00 0. -1.
         -5    1    5    5    0  502 -0.20988377015E+02  0.40321712985E+01  0.73754749099E+02  0.76932589907E+02  0.47000000000E+01 0.  1.
         15    1    6    6    0    0 -0.54766685217E+01 -0.34527604009E+02  0.35859508648E+02  0.50111988847E+02  0.17770000000E+01 0. -1.
        -16    1    6    6    0    0  0.65873347068E+02 -0.85968289921E+02 -0.63873558414E+01  0.10849259440E+03  0.00000000000E+00 0.  1.
<mgrwt>
<rscale>  2 0.21398231E+03</rscale>
<asrwt>0</asrwt>
<pdfrwt beam="1">  1       21 0.35392470E-01 0.21474448E+03</pdfrwt>
<pdfrwt beam="2">  1       21 0.39412755E-01 0.21474448E+03</pdfrwt>
<totfact> 0.47259263E+04</totfact>
</mgrwt>
</event>
<event>
12    2  0.4097182E-002  0.1802080E+03  0.7546771E-02  0.1168008E+00
         21   -1    0    0  503  502  0.00000000000E+00  0.00000000000E+00  0.69403667697E+02  0.69403667697E+02  0.00000000000E+00 0. -1.
         21   -1    0    0  501  503 -0.00000000000E+00 -0.00000000000E+00 -0.12591707920E+04  0.12591707920E+04  0.00000000000E+00 0. -1.
          6    2    1    2  501    0 -0.51863709624E+02  0.10412712787E+02 -0.11239323774E+04  0.11382877068E+04  0.17226910737E+03 0.  0.
         24    2    3    3    0    0 -0.81547828345E+02 -0.38810279725E+01 -0.10581209243E+04  0.10645401963E+04  0.83431579771E+02 0.  0.
         -6    2    1    2    0  502  0.51863709624E+02 -0.10412712787E+02 -0.65834746889E+02  0.19028675296E+03  0.17051851949E+03 0.  0.
        -24    2    5    5    0    0  0.53891033021E+02  0.56092751262E+02 -0.29309309582E+02  0.11423884464E+03  0.78363497963E+02 0.  0.
          5    1    3    3  501    0  0.29684118720E+02  0.14293740759E+02 -0.65811453136E+02  0.73747510419E+02  0.47000000000E+01 0. -1.
        -15    1    4    4    0    0 -0.15723252961E+02 -0.36135245036E+02 -0.24896910848E+03  0.25207489229E+03  0.17770000000E+01 0.  1.
         16    1    4    4    0    0 -0.65824575383E+02  0.32254217064E+02 -0.80915181582E+03  0.81246530405E+03  0.00000000000E+00 0. -1.
         -5    1    5    5    0  502 -0.20273233969E+01 -0.66505464049E+02 -0.36525437307E+02  0.76047908314E+02  0.47000000000E+01 0.  1.
         15    1    6    6    0    0 -0.11601300477E+02 -0.92147735638E+01  0.47774483902E+01  0.15667927965E+02  0.17770000000E+01 0. -1.
        -16    1    6    6    0    0  0.65492333498E+02  0.65307524826E+02 -0.34086757972E+02  0.98570916679E+02  0.00000000000E+00 0.  1.
<mgrwt>
<rscale>  2 0.17978833E+03</rscale>
<asrwt>0</asrwt>
<pdfrwt beam="1">  1       21 0.10677488E-01 0.18020798E+03</pdfrwt>
<pdfrwt beam="2">  1       21 0.19371856E+00 0.18020798E+03</pdfrwt>
<totfact> 0.10765375E+04</totfact>
</mgrwt>
</event>
<event>
12    2  0.4097182E-002  0.1761368E+03  0.7546771E-02  0.1172112E+00
         21   -1    0    0  501  502  0.00000000000E+00  0.00000000000E+00  0.12206347170E+03  0.12206347170E+03  0.00000000000E+00 0.  1.
         21   -1    0    0  502  503 -0.00000000000E+00 -0.00000000000E+00 -0.47393604566E+03  0.47393604566E+03  0.00000000000E+00 0.  1.
         -6    2    1    2    0  503  0.21839765345E+02 -0.25650764604E+02  0.27806282927E+02  0.17831814411E+03  0.17288503137E+03 0.  0.
        -24    2    3    3    0    0  0.14488376935E+02  0.30529649648E+02 -0.35698869060E+02  0.93081554630E+02  0.79042988217E+02 0.  0.
          6    2    1    2  501    0 -0.21839765345E+02  0.25650764604E+02 -0.37967885689E+03  0.41768137325E+03  0.17078278050E+03 0.  0.
         24    2    5    5    0    0  0.30180112791E+02  0.15005333113E+02 -0.34095178545E+03  0.35179306628E+03  0.79838851779E+02 0.  0.
          5    1    5    5  501    0 -0.52019878135E+02  0.10645431491E+02 -0.38727071439E+02  0.65888306968E+02  0.47000000000E+01 0. -1.
        -15    1    6    6    0    0  0.39781468755E+00 -0.28431481322E+02 -0.18518417271E+03  0.18736286435E+03  0.17770000000E+01 0.  1.
         16    1    6    6    0    0  0.29782298103E+02  0.43436814435E+02 -0.15576761274E+03  0.16443020193E+03  0.00000000000E+00 0. -1.
         -5    1    3    3    0  503  0.73513884095E+01 -0.56180414252E+02  0.63505151987E+02  0.85236589479E+02  0.47000000000E+01 0.  1.
         15    1    4    4    0    0 -0.21532978537E+02 -0.55250754221E+01  0.10173402466E+02  0.24512271821E+02  0.17770000000E+01 0. -1.
        -16    1    4    4    0    0  0.36021355472E+02  0.36054725070E+02 -0.45872271527E+02  0.68569282809E+02  0.00000000000E+00 0.  1.
<mgrwt>
<rscale>  2 0.17561877E+03</rscale>
<asrwt>0</asrwt>
<pdfrwt beam="1">  1       21 0.18778996E-01 0.17613680E+03</pdfrwt>
<pdfrwt beam="2">  1       21 0.72913238E-01 0.17613680E+03</pdfrwt>
<totfact> 0.44309706E+04</totfact>
</mgrwt>
</event>
<event>
12    2  0.4097182E-002  0.2071779E+03  0.7546771E-02  0.1144058E+00
         21   -1    0    0  503  502  0.00000000000E+00  0.00000000000E+00  0.49805741097E+03  0.49805741097E+03  0.00000000000E+00 0. -1.
         21   -1    0    0  501  503 -0.00000000000E+00 -0.00000000000E+00 -0.86704710581E+02  0.86704710581E+02  0.00000000000E+00 0.  1.
          6    2    1    2  501    0  0.69322046051E+02 -0.89924525419E+02  0.17351323692E+03  0.26934129231E+03  0.17188927255E+03 0.  0.
         24    2    3    3    0    0 -0.20953393653E+02 -0.19645476123E+02  0.41464938485E+02  0.94562452336E+02  0.79985791430E+02 0.  0.
         -6    2    1    2    0  502 -0.69322046051E+02  0.89924525419E+02  0.23783946346E+03  0.31542082924E+03  0.17329374713E+03 0.  0.
        -24    2    5    5    0    0 -0.19894086963E+02 -0.11727099796E+01  0.40526172560E+02  0.92493813815E+02  0.80719173602E+02 0.  0.
          5    1    3    3  501    0  0.90275439704E+02 -0.70279049296E+02  0.13204829844E+03  0.17477883998E+03  0.47000000000E+01 0. -1.
        -15    1    4    4    0    0  0.13263096651E+02 -0.38611699893E+02  0.51572726726E+01  0.41188934094E+02  0.17770000000E+01 0.  1.
         16    1    4    4    0    0 -0.34216490304E+02  0.18966223770E+02  0.36307665812E+02  0.53373518242E+02  0.00000000000E+00 0. -1.
         -5    1    5    5    0  502 -0.49427959088E+02  0.91097235399E+02  0.19731329090E+03  0.22292701542E+03  0.47000000000E+01 0.  1.
         15    1    6    6    0    0 -0.25415867806E+02 -0.15440918019E+02  0.60438753339E+02  0.67382408088E+02  0.17770000000E+01 0. -1.
        -16    1    6    6    0    0  0.55217808432E+01  0.14268208040E+02 -0.19912580778E+02  0.25111405727E+02  0.00000000000E+00 0.  1.
<mgrwt>
<rscale>  2 0.20688396E+03</rscale>
<asrwt>0</asrwt>
<pdfrwt beam="1">  1       21 0.76624215E-01 0.20717792E+03</pdfrwt>
<pdfrwt beam="2">  1       21 0.13339187E-01 0.20717792E+03</pdfrwt>
<totfact> 0.73060075E+04</totfact>
</mgrwt>
</event>
<event>
12    2  0.4097182E-002  0.3031702E+03  0.7546771E-02  0.1083710E+00
         21   -1    0    0  501  502  0.00000000000E+00  0.00000000000E+00  0.43216987327E+03  0.43216987327E+03  0.00000000000E+00 0. -1.
         21   -1    0    0  502  503 -0.00000000000E+00 -0.00000000000E+00 -0.21427934174E+03  0.21427934174E+03  0.00000000000E+00 0. -1.
         -6    2    1    2    0  503  0.18601698286E+03  0.16483191634E+03  0.13902853061E+03  0.33352824664E+03  0.17360956318E+03 0.  0.
        -24    2    3    3    0    0  0.14884741482E+03  0.77368083118E+02  0.22257092640E+02  0.18289904085E+03  0.69392418815E+02 0.  0.
          6    2    1    2  501    0 -0.18601698286E+03 -0.16483191634E+03  0.78862000926E+02  0.31292096837E+03  0.17299837774E+03 0.  0.
         24    2    5    5    0    0 -0.18872209848E+03 -0.98580346966E+02  0.28078369675E+02  0.22926897917E+03  0.80260542636E+02 0.  0.
          5    1    5    5  501    0  0.27051156201E+01 -0.66251569369E+02  0.50783631250E+02  0.83651989201E+02  0.47000000000E+01 0. -1.
        -15    1    6    6    0    0 -0.20546608667E+02 -0.47254651090E+02  0.28792594433E+01  0.51639258721E+02  0.17770000000E+01 0.  1.
         16    1    6    6    0    0 -0.16817548981E+03 -0.51325695877E+02  0.25199110232E+02  0.17762972045E+03  0.00000000000E+00 0. -1.
         -5    1    3    3    0  503  0.37169568037E+02  0.87463833217E+02  0.11677143797E+03  0.15062920579E+03  0.47000000000E+01 0.  1.
         15    1    4    4    0    0  0.99194636543E+02  0.77019071714E+02  0.37295575804E+02  0.13101767449E+03  0.17770000000E+01 0. -1.
        -16    1    4    4    0    0  0.49652778276E+02  0.34901140487E+00 -0.15038483164E+02  0.51881366360E+02  0.00000000000E+00 0.  1.
<mgrwt>
<rscale>  2 0.30308275E+03</rscale>
<asrwt>0</asrwt>
<pdfrwt beam="1">  1       21 0.66487672E-01 0.30317018E+03</pdfrwt>
<pdfrwt beam="2">  1       21 0.32966053E-01 0.30317018E+03</pdfrwt>
<totfact> 0.17378110E+04</totfact>
</mgrwt>
</event>
<event>
12    2  0.4097182E-002  0.2421357E+03  0.7546771E-02  0.1118401E+00
         21   -1    0    0  503  502  0.00000000000E+00  0.00000000000E+00  0.85390671920E+02  0.85390671920E+02  0.00000000000E+00 0. -1.
         21   -1    0    0  501  503 -0.00000000000E+00 -0.00000000000E+00 -0.88456779596E+03  0.88456779596E+03  0.00000000000E+00 0. -1.
          6    2    1    2  501    0 -0.61639658640E+02 -0.15836969825E+03 -0.16983870507E+03  0.29564657441E+03  0.17228262356E+03 0.  0.
         24    2    3    3    0    0 -0.70150368557E+02 -0.77668724286E+02 -0.17045266516E+03  0.21435975919E+03  0.77087549956E+02 0.  0.
         -6    2    1    2    0  502  0.61639658640E+02  0.15836969825E+03 -0.62933841897E+03  0.67431189346E+03  0.17247978212E+03 0.  0.
        -24    2    5    5    0    0  0.55018911909E+02  0.16884209515E+03 -0.40368941152E+03  0.44827413125E+03  0.80310783920E+02 0.  0.
          5    1    3    3  501    0  0.85107099171E+01 -0.80700973967E+02  0.61396008847E+00  0.81286815225E+02  0.47000000000E+01 0. -1.
        -15    1    4    4    0    0  0.66865432980E-01  0.60653062664E+01 -0.55107324158E+02  0.55468615594E+02  0.17770000000E+01 0.  1.
         16    1    4    4    0    0 -0.70217233990E+02 -0.83734030552E+02 -0.11534534100E+03  0.15889114359E+03  0.00000000000E+00 0. -1.
         -5    1    5    5    0  502  0.66207467305E+01 -0.10472396901E+02 -0.22564900745E+03  0.22603776222E+03  0.47000000000E+01 0.  1.
         15    1    6    6    0    0  0.39031710824E+02  0.14254926633E+03 -0.38469271210E+03  0.41211091741E+03  0.17770000000E+01 0. -1.
        -16    1    6    6    0    0  0.15987201085E+02  0.26292828824E+02 -0.18996699416E+02  0.36163213834E+02  0.00000000000E+00 0.  1.
<mgrwt>
<rscale>  2 0.24210056E+03</rscale>
<asrwt>0</asrwt>
<pdfrwt beam="1">  1       21 0.13137027E-01 0.24213567E+03</pdfrwt>
<pdfrwt beam="2">  1       21 0.13608734E+00 0.24213567E+03</pdfrwt>
<totfact> 0.18624703E+04</totfact>
</mgrwt>
</event>
<event>
11    2  0.4097182E-002  0.2214047E+03  0.7546771E-02  0.1133024E+00
         21   -1    0    0  501  502  0.00000000000E+00  0.00000000000E+00  0.49834188849E+03  0.49834188849E+03  0.00000000000E+00 0. -1.
         21   -1    0    0  502  503 -0.00000000000E+00 -0.00000000000E+00 -0.16502691918E+03  0.16502691918E+03  0.00000000000E+00 0. -1.
         -6    2    1    2    0  503  0.86620805055E+02  0.10625706293E+03 -0.44622181213E+02  0.22585654470E+03  0.17385716101E+03 0.  0.
        -24    2    3    3    0    0  0.26579827343E+00  0.48068175966E+01  0.11371810600E+02  0.81264855471E+02  0.80321121221E+02 0.  0.
          6    2    1    2  501    0 -0.86620805055E+02 -0.10625706293E+03  0.37793715052E+03  0.43751226298E+03  0.17258842145E+03 0.  0.
          5    1    5    5  501    0 -0.41708807088E+02 -0.32132069714E+02  0.21243248461E+03  0.21891035839E+03  0.47000000000E+01 0. -1.
        -15    1    5    5    0    0  0.25479642348E+02  0.14578465276E+02  0.38443684212E+02  0.48402669438E+02  0.17770000000E+01 0.  1.
         16    1    5    5    0    0 -0.70391640315E+02 -0.88703458492E+02  0.12706098170E+03  0.17019923515E+03  0.00000000000E+00 0. -1.
         -5    1    3    3    0  503  0.86355006782E+02  0.10145024533E+03 -0.55993991813E+02  0.14459168923E+03  0.47000000000E+01 0.  1.
         15    1    4    4    0    0  0.36924530696E+02  0.50511931615E+01 -0.10264121305E+02  0.38696840111E+02  0.17770000000E+01 0. -1.
        -16    1    4    4    0    0 -0.36658732422E+02 -0.24437556490E+00  0.21635931905E+02  0.42568015359E+02  0.00000000000E+00 0.  1.
<mgrwt>
<rscale>  2 0.22115556E+03</rscale>
<asrwt>0</asrwt>
<pdfrwt beam="1">  1       21 0.76667982E-01 0.22140470E+03</pdfrwt>
<pdfrwt beam="2">  1       21 0.25388757E-01 0.22140470E+03</pdfrwt>
<totfact> 0.21893579E+04</totfact>
</mgrwt>
</event>
<event>
12    2  0.4097182E-002  0.1789596E+03  0.7546771E-02  0.1169023E+00
         21   -1    0    0  501  502  0.00000000000E+00  0.00000000000E+00  0.27070139381E+02  0.27070139381E+02  0.00000000000E+00 0. -1.
         21   -1    0    0  502  503 -0.00000000000E+00 -0.00000000000E+00 -0.11907125249E+04  0.11907125249E+04  0.00000000000E+00 0. -1.
         -6    2    1    2    0  503 -0.41127893540E+02  0.10322628502E+02 -0.51890998467E+03  0.54890265654E+03  0.17386343457E+03 0.  0.
        -24    2    3    3    0    0  0.28918526444E+02 -0.33213093605E+02 -0.33260241941E+03  0.34510261011E+03  0.80821107081E+02 0.  0.
          6    2    1    2  501    0  0.41127893540E+02 -0.10322628502E+02 -0.64473240085E+03  0.66888000774E+03  0.17298131623E+03 0.  0.
         24    2    5    5    0    0 -0.21150594284E+01 -0.13874199501E+02 -0.12692615976E+03  0.14923786170E+03  0.77231615568E+02 0.  0.
          5    1    5    5  501    0  0.43242952968E+02  0.35515709991E+01 -0.51780624109E+03  0.51964214605E+03  0.47000000000E+01 0. -1.
        -15    1    6    6    0    0 -0.26468258796E+02 -0.36445365741E+02 -0.67588717510E+02  0.81241774176E+02  0.17770000000E+01 0.  1.
         16    1    6    6    0    0  0.24353199367E+02  0.22571166240E+02 -0.59337442254E+02  0.67996087520E+02  0.00000000000E+00 0. -1.
         -5    1    3    3    0  503 -0.70046419984E+02  0.43535722107E+02 -0.18630756526E+03  0.20380004643E+03  0.47000000000E+01 0.  1.
         15    1    4    4    0    0  0.86866264933E+01 -0.58622517751E+02 -0.22725348727E+03  0.23486030374E+03  0.17770000000E+01 0. -1.
        -16    1    4    4    0    0  0.20231899951E+02  0.25409424147E+02 -0.10534893214E+03  0.11024230637E+03  0.00000000000E+00 0.  1.
<mgrwt>
<rscale>  2 0.17874504E+03</rscale>
<asrwt>0</asrwt>
<pdfrwt beam="1">  1       21 0.41646364E-02 0.17895964E+03</pdfrwt>
<pdfrwt beam="2">  1       21 0.18318656E+00 0.17895964E+03</pdfrwt>
<totfact> 0.63925508E+04</totfact>
</mgrwt>
</event>
<event>
12    2  0.4097182E-002  0.1752418E+03  0.7546771E-02  0.1172640E+00
         21   -1    0    0  501  502  0.00000000000E+00  0.00000000000E+00  0.13300097361E+03  0.13300097361E+03  0.00000000000E+00 0.  1.
         21   -1    0    0  502  503 -0.00000000000E+00 -0.00000000000E+00 -0.25241648786E+03  0.25241648786E+03  0.00000000000E+00 0.  1.
         -6    2    1    2    0  503  0.42780960972E+01 -0.24691107789E+02 -0.11709251941E+03  0.21076136068E+03  0.17344088372E+03 0.  0.
        -24    2    3    3    0    0 -0.48219822872E+02 -0.59878701255E+02 -0.58007019251E+02  0.12411619602E+03  0.78290520825E+02 0.  0.
          6    2    1    2  501    0 -0.42780960972E+01  0.24691107789E+02 -0.23229948509E+01  0.17465610079E+03  0.17283345836E+03 0.  0.
         24    2    5    5    0    0  0.43531973773E+02  0.65125295775E+02  0.18483200292E+02  0.10850692018E+03  0.72772152251E+02 0.  0.
          5    1    5    5  501    0 -0.47810069870E+02 -0.40434187986E+02 -0.20806195143E+02  0.66149180611E+02  0.47000000000E+01 0. -1.
        -15    1    6    6    0    0  0.38166322959E+02  0.42256083153E+02  0.45353022198E+02  0.72816887623E+02  0.17770000000E+01 0.  1.
         16    1    6    6    0    0  0.53656508144E+01  0.22869212622E+02 -0.26869821905E+02  0.35690032556E+02  0.00000000000E+00 0. -1.
         -5    1    3    3    0  503  0.52497918969E+02  0.35187593467E+02 -0.59085500155E+02  0.86645164658E+02  0.47000000000E+01 0.  1.
         15    1    4    4    0    0 -0.41246456360E+02 -0.76547099016E+02 -0.32471332165E+02  0.92834657707E+02  0.17770000000E+01 0. -1.
        -16    1    4    4    0    0 -0.69733665111E+01  0.16668397761E+02 -0.25535687086E+02  0.31281538316E+02  0.00000000000E+00 0.  1.
<mgrwt>
<rscale>  2 0.17509133E+03</rscale>
<asrwt>0</asrwt>
<pdfrwt beam="1">  1       21 0.20461688E-01 0.17524181E+03</pdfrwt>
<pdfrwt beam="2">  1       21 0.38833306E-01 0.17524181E+03</pdfrwt>
<totfact> 0.14224447E+05</totfact>
</mgrwt>
</event>
<event>
12    2  0.4097182E-002  0.1976461E+03  0.7546771E-02  0.1152035E+00
         21   -1    0    0  501  502  0.00000000000E+00  0.00000000000E+00  0.23636615435E+03  0.23636615435E+03  0.00000000000E+00 0. -1.
         21   -1    0    0  502  503 -0.00000000000E+00 -0.00000000000E+00 -0.16412671010E+03  0.16412671010E+03  0.00000000000E+00 0.  1.
         -6    2    1    2    0  503 -0.66134531093E+02  0.65620723276E+02  0.35685010616E+02  0.20084175596E+03  0.17431045702E+03 0.  0.
        -24    2    3    3    0    0 -0.32910173031E+02  0.43342253587E+01  0.79709932955E+02  0.11825739556E+03  0.80803918187E+02 0.  0.
          6    2    1    2  501    0  0.66134531093E+02 -0.65620723276E+02  0.36554433635E+02  0.19965110850E+03  0.17275555846E+03 0.  0.
         24    2    5    5    0    0  0.51015542628E+01 -0.75724849864E+02 -0.24063824974E+02  0.11291137763E+03  0.80060182251E+02 0.  0.
          5    1    5    5  501    0  0.61032976830E+02  0.10104126588E+02  0.60618258609E+02  0.86739730871E+02  0.47000000000E+01 0. -1.
        -15    1    6    6    0    0 -0.17410446447E+02 -0.13271600293E+02  0.22793468193E+02  0.31653735026E+02  0.17770000000E+01 0.  1.
         16    1    6    6    0    0  0.22512000710E+02 -0.62453249572E+02 -0.46857293167E+02  0.81257642600E+02  0.00000000000E+00 0. -1.
         -5    1    3    3    0  503 -0.33224358062E+02  0.61286497918E+02 -0.44024922339E+02  0.82584360399E+02  0.47000000000E+01 0.  1.
         15    1    4    4    0    0  0.20567810106E+02 -0.19865444882E+02  0.26886188176E+02  0.39289891277E+02  0.17770000000E+01 0. -1.
        -16    1    4    4    0    0 -0.53477983137E+02  0.24199670240E+02  0.52823744779E+02  0.78967504283E+02  0.00000000000E+00 0.  1.
<mgrwt>
<rscale>  2 0.19730275E+03</rscale>
<asrwt>0</asrwt>
<pdfrwt beam="1">  1       21 0.36364023E-01 0.19764613E+03</pdfrwt>
<pdfrwt beam="2">  1       21 0.25250263E-01 0.19764613E+03</pdfrwt>
<totfact> 0.10817302E+05</totfact>
</mgrwt>
</event>
<event>
12    2  0.4097182E-002  0.1728056E+03  0.7546771E-02  0.1175188E+00
         21   -1    0    0  503  502  0.00000000000E+00  0.00000000000E+00  0.21036210143E+02  0.21036210143E+02  0.00000000000E+00 0. -1.
         21   -1    0    0  501  503 -0.00000000000E+00 -0.00000000000E+00 -0.24127062224E+04  0.24127062224E+04  0.00000000000E+00 0. -1.
          6    2    1    2  501    0  0.76780551381E+01  0.13770791235E+02 -0.19813765934E+04  0.19888979302E+04  0.17208481835E+03 0.  0.
         24    2    3    3    0    0  0.18479165087E+02 -0.86329917069E+01 -0.46579382790E+03  0.47310381406E+03  0.80295209601E+02 0.  0.
         -6    2    1    2    0  502 -0.76780551381E+01 -0.13770791235E+02 -0.41029341887E+03  0.44484450235E+03  0.17116469985E+03 0.  0.
        -24    2    5    5    0    0  0.27925696269E+02 -0.60503782088E+02 -0.19978515203E+03  0.22624116303E+03  0.82646262598E+02 0.  0.
          5    1    3    3  501    0 -0.10801109949E+02  0.22403782941E+02 -0.15155827655E+04  0.15157941162E+04  0.47000000000E+01 0. -1.
        -15    1    4    4    0    0 -0.13965958436E+02  0.20581840647E+02 -0.60105969883E+02  0.65073385527E+02  0.17770000000E+01 0.  1.
         16    1    4    4    0    0  0.32445123523E+02 -0.29214832354E+02 -0.40568785802E+03  0.40803042854E+03  0.00000000000E+00 0. -1.
         -5    1    5    5    0  502 -0.35603751407E+02  0.46732990853E+02 -0.21050826685E+03  0.21860333931E+03  0.47000000000E+01 0.  1.
         15    1    6    6    0    0 -0.27705992862E+01 -0.49264390354E+02 -0.41152818379E+02  0.64275722998E+02  0.17770000000E+01 0. -1.
        -16    1    6    6    0    0  0.30696295556E+02 -0.11239391734E+02 -0.15863233365E+03  0.16196544004E+03  0.00000000000E+00 0.  1.
<mgrwt>
<rscale>  2 0.17257607E+03</rscale>
<asrwt>0</asrwt>
<pdfrwt beam="1">  1       21 0.32363385E-02 0.17280559E+03</pdfrwt>
<pdfrwt beam="2">  1       21 0.37118574E+00 0.17280559E+03</pdfrwt>
<totfact> 0.74925434E+03</totfact>
</mgrwt>
</event>
<event>
12    2  0.4097182E-002  0.2230291E+03  0.7546771E-02  0.1131694E+00
         21   -1    0    0  503  502  0.00000000000E+00  0.00000000000E+00  0.10031161012E+04  0.10031161012E+04  0.00000000000E+00 0.  1.
         21   -1    0    0  501  503 -0.00000000000E+00 -0.00000000000E+00 -0.52655889815E+02  0.52655889815E+02  0.00000000000E+00 0.  1.
          6    2    1    2  501    0 -0.12586834640E+03 -0.60524202018E+02  0.34629363098E+03  0.41175396216E+03  0.17353969817E+03 0.  0.
         24    2    3    3    0    0 -0.14751331773E+03 -0.47031884124E+02  0.20995400781E+03  0.27296948798E+03  0.80370883656E+02 0.  0.
         -6    2    1    2    0  502  0.12586834640E+03  0.60524202018E+02  0.60416658036E+03  0.64401802881E+03  0.17388486122E+03 0.  0.
        -24    2    5    5    0    0  0.41026064755E+02  0.53980059144E+01  0.12192658515E+03  0.15125580093E+03  0.79372216116E+02 0.  0.
          5    1    3    3  501    0  0.21644971336E+02 -0.13492317894E+02  0.13633962317E+03  0.13878447418E+03  0.47000000000E+01 0. -1.
        -15    1    4    4    0    0 -0.82548176608E+02 -0.43391517007E+02  0.17690828167E+03  0.19999180749E+03  0.17770000000E+01 0.  1.
         16    1    4    4    0    0 -0.64965141124E+02 -0.36403671168E+01  0.33045726141E+02  0.72977680493E+02  0.00000000000E+00 0. -1.
         -5    1    5    5    0  502  0.84842281641E+02  0.55126196103E+02  0.48223999521E+03  0.49276222788E+03  0.47000000000E+01 0.  1.
         15    1    6    6    0    0 -0.51353799106E+01  0.14423932507E+02  0.96625346475E+02  0.97847009491E+02  0.17770000000E+01 0. -1.
        -16    1    6    6    0    0  0.46161444665E+02 -0.90259265928E+01  0.25301238675E+02  0.53408791439E+02  0.00000000000E+00 0.  1.
<mgrwt>
<rscale>  2 0.22296179E+03</rscale>
<asrwt>0</asrwt>
<pdfrwt beam="1">  1       21 0.15432554E+00 0.22302907E+03</pdfrwt>
<pdfrwt beam="2">  1       21 0.81009069E-02 0.22302907E+03</pdfrwt>
<totfact> 0.31963077E+04</totfact>
</mgrwt>
</event>
<event>
12    2  0.4097182E-002  0.1868031E+03  0.7546771E-02  0.1161494E+00
         21   -1    0    0  503  502  0.00000000000E+00  0.00000000000E+00  0.72345187204E+02  0.72345187204E+02  0.00000000000E+00 0.  1.
         21   -1    0    0  501  503 -0.00000000000E+00 -0.00000000000E+00 -0.59865053447E+03  0.59865053447E+03  0.00000000000E+00 0.  1.
          6    2    1    2  501    0  0.46514997339E+02 -0.56767037854E+02 -0.41157195158E+03  0.45177172825E+03  0.17123107648E+03 0.  0.
         24    2    3    3    0    0  0.12365901314E+02 -0.77976790847E+02 -0.39425155697E+03  0.40774786596E+03  0.67754974689E+02 0.  0.
         -6    2    1    2    0  502 -0.46514997339E+02  0.56767037854E+02 -0.11473339569E+03  0.21922399343E+03  0.17178261159E+03 0.  0.
        -24    2    5    5    0    0  0.36369829271E+02  0.12211095389E+02 -0.32024135926E+02  0.93852393210E+02  0.79440865413E+02 0.  0.
          5    1    3    3  501    0  0.34149096026E+02  0.21209752993E+02 -0.17320394608E+02  0.44023862288E+02  0.47000000000E+01 0. -1.
        -15    1    4    4    0    0  0.24396614936E+02 -0.55324816689E+02 -0.14405802396E+03  0.15624308675E+03  0.17770000000E+01 0.  1.
         16    1    4    4    0    0 -0.12030713623E+02 -0.22651974159E+02 -0.25019353301E+03  0.25150477920E+03  0.00000000000E+00 0. -1.
         -5    1    5    5    0  502 -0.82884826610E+02  0.44555942465E+02 -0.82709259768E+02  0.12537160022E+03  0.47000000000E+01 0.  1.
         15    1    6    6    0    0  0.46889098830E+01 -0.11936196653E+02 -0.48904375452E+02  0.50589073264E+02  0.17770000000E+01 0. -1.
        -16    1    6    6    0    0  0.31680919388E+02  0.24147292042E+02  0.16880239526E+02  0.43263319945E+02  0.00000000000E+00 0.  1.
<mgrwt>
<rscale>  2 0.18667623E+03</rscale>
<asrwt>0</asrwt>
<pdfrwt beam="1">  1       21 0.11130029E-01 0.18680312E+03</pdfrwt>
<pdfrwt beam="2">  1       21 0.92100084E-01 0.18680312E+03</pdfrwt>
<totfact> 0.67013499E+04</totfact>
</mgrwt>
</event>
<event>
12    2  0.4097182E-002  0.1772072E+03  0.7546771E-02  0.1171589E+00
         21   -1    0    0  503  502  0.00000000000E+00  0.00000000000E+00  0.50394373156E+03  0.50394373156E+03  0.00000000000E+00 0. -1.
         21   -1    0    0  501  503 -0.00000000000E+00 -0.00000000000E+00 -0.63284144108E+02  0.63284144108E+02  0.00000000000E+00 0. -1.
          6    2    1    2  501    0 -0.37946464907E+02 -0.29322355123E+01  0.27352516459E+03  0.32363741336E+03  0.16875019246E+03 0.  0.
         24    2    3    3    0    0  0.18567798983E+02  0.73413608702E+01  0.24614144780E+03  0.25983015083E+03  0.80792550510E+02 0.  0.
         -6    2    1    2    0  502  0.37946464907E+02  0.29322355123E+01  0.16713442286E+03  0.24359046231E+03  0.17307185161E+03 0.  0.
        -24    2    5    5    0    0  0.90328585972E+01 -0.35188291565E+02  0.21551537805E+02  0.90274978304E+02  0.79782795942E+02 0.  0.
          5    1    3    3  501    0 -0.56514263890E+02 -0.10273596383E+02  0.27383716791E+02  0.63807262525E+02  0.47000000000E+01 0. -1.
        -15    1    4    4    0    0 -0.25330645178E+02 -0.12117404113E+02  0.45285575978E+02  0.53314296284E+02  0.17770000000E+01 0.  1.
         16    1    4    4    0    0  0.43898444161E+02  0.19458764984E+02  0.20085587182E+03  0.20651585455E+03  0.00000000000E+00 0. -1.
         -5    1    5    5    0  502  0.28913606309E+02  0.38120527078E+02  0.14558288506E+03  0.15331548400E+03  0.47000000000E+01 0.  1.
         15    1    6    6    0    0  0.38476670685E+02 -0.25375642134E+02 -0.86956437372E+01  0.46937717773E+02  0.17770000000E+01 0. -1.
        -16    1    6    6    0    0 -0.29443812088E+02 -0.98126494317E+01  0.30247181542E+02  0.43337260532E+02  0.00000000000E+00 0.  1.
<mgrwt>
<rscale>  2 0.17614309E+03</rscale>
<asrwt>0</asrwt>
<pdfrwt beam="1">  1       21 0.77529802E-01 0.17720722E+03</pdfrwt>
<pdfrwt beam="2">  1       21 0.97360225E-02 0.17720722E+03</pdfrwt>
<totfact> 0.12627643E+05</totfact>
</mgrwt>
</event>
<event>
12    2  0.4097182E-002  0.1954315E+03  0.7546771E-02  0.1154036E+00
         21   -1    0    0  501  502  0.00000000000E+00  0.00000000000E+00  0.92794176598E+03  0.92794176598E+03  0.00000000000E+00 0.  1.
         21   -1    0    0  502  503 -0.00000000000E+00 -0.00000000000E+00 -0.40804299009E+02  0.40804299009E+02  0.00000000000E+00 0.  1.
         -6    2    1    2    0  503 -0.67403285572E+02 -0.55858883416E+02  0.45479116146E+03  0.49500350162E+03  0.17472849884E+03 0.  0.
        -24    2    3    3    0    0  0.33703048760E+01  0.91514858557E+00  0.17946062829E+03  0.20507043294E+03  0.99174436772E+02 0.  0.
          6    2    1    2  501    0  0.67403285572E+02  0.55858883416E+02  0.43234630551E+03  0.47374256337E+03  0.17275783832E+03 0.  0.
         24    2    5    5    0    0  0.54738746853E+02  0.40882033777E+02  0.43975225490E+03  0.45225687855E+03  0.80539229015E+02 0.  0.
          5    1    5    5  501    0  0.12664538718E+02  0.14976849639E+02 -0.74059493903E+01  0.21485684826E+02  0.47000000000E+01 0. -1.
        -15    1    6    6    0    0  0.10164250785E+02  0.12456668824E+02  0.94791548918E+01  0.18748138539E+02  0.17770000000E+01 0.  1.
         16    1    6    6    0    0  0.44574496069E+02  0.28425364953E+02  0.43027310001E+03  0.43350874001E+03  0.00000000000E+00 0. -1.
         -5    1    3    3    0  503 -0.70773590448E+02 -0.56774032002E+02  0.27533053318E+03  0.28993306868E+03  0.47000000000E+01 0.  1.
         15    1    4    4    0    0  0.28193883096E+02  0.13185878818E+02  0.17409530679E+03  0.17686462625E+03  0.17770000000E+01 0. -1.
        -16    1    4    4    0    0 -0.24823578220E+02 -0.12270730232E+02  0.53653214967E+01  0.28205806686E+02  0.00000000000E+00 0.  1.
<mgrwt>
<rscale>  2 0.19499002E+03</rscale>
<asrwt>0</asrwt>
<pdfrwt beam="1">  1       21 0.14276026E+00 0.19543149E+03</pdfrwt>
<pdfrwt beam="2">  1       21 0.62775852E-02 0.19543149E+03</pdfrwt>
<totfact> 0.61981673E+04</totfact>
</mgrwt>
</event>
<event>
12    2  0.4097182E-002  0.2491898E+03  0.7546771E-02  0.1114009E+00
         21   -1    0    0  503  502  0.00000000000E+00  0.00000000000E+00  0.72779462956E+02  0.72779462956E+02  0.00000000000E+00 0.  1.
         21   -1    0    0  501  503 -0.00000000000E+00 -0.00000000000E+00 -0.11865117637E+04  0.11865117637E+04  0.00000000000E+00 0.  1.
          6    2    1    2  501    0  0.24188926099E+01  0.17807062443E+03 -0.89359682337E+03  0.92769114171E+03  0.17430023908E+03 0.  0.
         24    2    3    3    0    0  0.35704295408E+02  0.71980718790E+02 -0.65102534107E+03  0.66080914505E+03  0.79866832113E+02 0.  0.
         -6    2    1    2    0  502 -0.24188926099E+01 -0.17807062443E+03 -0.22013547740E+03  0.33160008497E+03  0.17258038595E+03 0.  0.
        -24    2    5    5    0    0 -0.66744035208E+02 -0.10220120828E+03 -0.14308613726E+03  0.20569304349E+03  0.83283445272E+02 0.  0.
          5    1    3    3  501    0 -0.33285402798E+02  0.10608990564E+03 -0.24257148230E+03  0.26688199667E+03  0.47000000000E+01 0. -1.
        -15    1    4    4    0    0  0.21044090763E+02  0.71850780131E+02 -0.29089480496E+03  0.30038031500E+03  0.17770000000E+01 0.  1.
         16    1    4    4    0    0  0.14660204645E+02  0.12993865894E+00 -0.36013053611E+03  0.36042883004E+03  0.00000000000E+00 0. -1.
         -5    1    5    5    0  502  0.64325142598E+02 -0.75869416150E+02 -0.77049340137E+02  0.12590704147E+03  0.47000000000E+01 0.  1.
         15    1    6    6    0    0 -0.18835354457E+02  0.10128197579E+02 -0.63852620602E+01  0.22389289053E+02  0.17770000000E+01 0. -1.
        -16    1    6    6    0    0 -0.47908680751E+02 -0.11232940586E+03 -0.13670087520E+03  0.18330375444E+03  0.00000000000E+00 0.  1.
<mgrwt>
<rscale>  2 0.24888930E+03</rscale>
<asrwt>0</asrwt>
<pdfrwt beam="1">  1       21 0.11196841E-01 0.24918983E+03</pdfrwt>
<pdfrwt beam="2">  1       21 0.18254026E+00 0.24918983E+03</pdfrwt>
<totfact> 0.11151204E+04</totfact>
</mgrwt>
</event>
<event>
12    2  0.4097182E-002  0.3143395E+03  0.7546771E-02  0.1078464E+00
         21   -1    0    0  503  502  0.00000000000E+00  0.00000000000E+00  0.16862549324E+03  0.16862549324E+03  0.00000000000E+00 0.  1.
         21   -1    0    0  501  503 -0.00000000000E+00 -0.00000000000E+00 -0.64622943067E+03  0.64622943067E+03  0.00000000000E+00 0.  1.
          6    2    1    2  501    0  0.15562463634E+03 -0.20927627087E+03 -0.36559240915E+03  0.48115464638E+03  0.17273216008E+03 0.  0.
         24    2    3    3    0    0  0.14736539088E+03 -0.10321341848E+03 -0.17734066475E+03  0.26487160715E+03  0.79609601914E+02 0.  0.
         -6    2    1    2    0  502 -0.15562463634E+03  0.20927627087E+03 -0.11201152828E+03  0.33370027753E+03  0.17548136018E+03 0.  0.
        -24    2    5    5    0    0 -0.15634952104E+03  0.22361596992E+03 -0.76688003936E+02  0.29528161281E+03  0.82830587280E+02 0.  0.
          5    1    3    3  501    0  0.82592454671E+01 -0.10606285239E+03 -0.18825174440E+03  0.21628303924E+03  0.47000000000E+01 0. -1.
        -15    1    4    4    0    0  0.25699805185E+02 -0.62913936774E+02 -0.71398903188E+02  0.98588054715E+02  0.17770000000E+01 0.  1.
         16    1    4    4    0    0  0.12166558569E+03 -0.40299481708E+02 -0.10594176156E+03  0.16628355243E+03  0.00000000000E+00 0. -1.
         -5    1    5    5    0  502  0.72488469359E+00 -0.14339699045E+02 -0.35323524343E+02  0.38418664715E+02  0.47000000000E+01 0.  1.
         15    1    6    6    0    0 -0.16982173172E+02  0.29768533226E+02 -0.41666470277E+02  0.53979739258E+02  0.17770000000E+01 0. -1.
        -16    1    6    6    0    0 -0.13936734786E+03  0.19384743669E+03 -0.35021533659E+02  0.24130187356E+03  0.00000000000E+00 0.  1.
<mgrwt>
<rscale>  2 0.31395715E+03</rscale>
<asrwt>0</asrwt>
<pdfrwt beam="1">  1       21 0.25942384E-01 0.31433945E+03</pdfrwt>
<pdfrwt beam="2">  1       21 0.99419911E-01 0.31433945E+03</pdfrwt>
<totfact> 0.10983341E+04</totfact>
</mgrwt>
</event>
<event>
12    2  0.4097182E-002  0.1871737E+03  0.7546771E-02  0.1162568E+00
         21   -1    0    0  501  502  0.00000000000E+00  0.00000000000E+00  0.10590768917E+03  0.10590768917E+03  0.00000000000E+00 0.  1.
         21   -1    0    0  502  503 -0.00000000000E+00 -0.00000000000E+00 -0.46564983189E+03  0.46564983189E+03  0.00000000000E+00 0.  1.
         -6    2    1    2    0  503  0.21093180153E+02  0.46310030091E+02 -0.34223512155E+03  0.39007548111E+03  0.18012346156E+03 0.  0.
        -24    2    3    3    0    0 -0.36482400622E+02  0.64050678567E+02 -0.12922358723E+03  0.16865804308E+03  0.79456560582E+02 0.  0.
          6    2    1    2  501    0 -0.21093180153E+02 -0.46310030091E+02 -0.17507021171E+02  0.18148203996E+03  0.17331962930E+03 0.  0.
         24    2    5    5    0    0  0.63615272943E+01 -0.77045381045E+02 -0.56269153254E+02  0.12471043048E+03  0.80062563616E+02 0.  0.
          5    1    5    5  501    0 -0.27454707447E+02  0.30735350955E+02  0.38762132082E+02  0.56771609479E+02  0.47000000000E+01 0. -1.
        -15    1    6    6    0    0  0.25855562730E+01 -0.78336250979E+02 -0.10884894137E+02  0.79151070543E+02  0.17770000000E+01 0.  1.
         16    1    6    6    0    0  0.37759710212E+01  0.12908699337E+01 -0.45384259117E+02  0.45559359938E+02  0.00000000000E+00 0. -1.
         -5    1    3    3    0  503  0.57575580775E+02 -0.17740648477E+02 -0.21301153431E+03  0.22141743802E+03  0.47000000000E+01 0.  1.
         15    1    4    4    0    0  0.22968766565E+02  0.81116457232E+01 -0.46005646086E+02  0.52086852801E+02  0.17770000000E+01 0. -1.
        -16    1    4    4    0    0 -0.59451167187E+02  0.55939032844E+02 -0.83217941145E+02  0.11657119028E+03  0.00000000000E+00 0.  1.
<mgrwt>
<rscale>  2 0.18551735E+03</rscale>
<asrwt>0</asrwt>
<pdfrwt beam="1">  1       21 0.16293491E-01 0.18717372E+03</pdfrwt>
<pdfrwt beam="2">  1       21 0.71638436E-01 0.18717372E+03</pdfrwt>
<totfact> 0.59525530E+04</totfact>
</mgrwt>
</event>
<event>
12    2  0.4097182E-002  0.2455991E+03  0.7546771E-02  0.1116265E+00
         21   -1    0    0  503  502  0.00000000000E+00  0.00000000000E+00  0.16002099994E+03  0.16002099994E+03  0.00000000000E+00 0.  1.
         21   -1    0    0  501  503 -0.00000000000E+00 -0.00000000000E+00 -0.38226286609E+03  0.38226286609E+03  0.00000000000E+00 0. -1.
          6    2    1    2  501    0  0.11025323717E+03 -0.13400656251E+03 -0.14683605735E+03  0.28536955708E+03  0.17251498853E+03 0.  0.
         24    2    3    3    0    0  0.47122577498E+01 -0.94311711204E+02 -0.10518413275E+03  0.16507179160E+03  0.85253095872E+02 0.  0.
         -6    2    1    2    0  502 -0.11025323717E+03  0.13400656251E+03 -0.75405808803E+02  0.25691430894E+03  0.17379698224E+03 0.  0.
        -24    2    5    5    0    0 -0.74305717289E+02  0.14067950726E+03 -0.62362539455E+01  0.17853529583E+03  0.80770648193E+02 0.  0.
          5    1    3    3  501    0  0.10554097942E+03 -0.39694851307E+02 -0.41651924598E+02  0.12029776548E+03  0.47000000000E+01 0. -1.
        -15    1    4    4    0    0 -0.38307574172E+02 -0.27872102994E+02 -0.31398638283E+02  0.56862611436E+02  0.17770000000E+01 0.  1.
         16    1    4    4    0    0  0.43019831922E+02 -0.66439608210E+02 -0.73785494469E+02  0.10820918016E+03  0.00000000000E+00 0. -1.
         -5    1    5    5    0  502 -0.35947519881E+02 -0.66729447490E+01 -0.69169554857E+02  0.78379013112E+02  0.47000000000E+01 0.  1.
         15    1    6    6    0    0  0.16213311417E+02  0.18041464320E+02 -0.94041021060E+01  0.26076057357E+02  0.17770000000E+01 0. -1.
        -16    1    6    6    0    0 -0.90519028706E+02  0.12263804294E+03  0.31678481606E+01  0.15245923847E+03  0.00000000000E+00 0.  1.
<mgrwt>
<rscale>  2 0.24537242E+03</rscale>
<asrwt>0</asrwt>
<pdfrwt beam="1">  1       21 0.24618615E-01 0.24559912E+03</pdfrwt>
<pdfrwt beam="2">  1       21 0.58809672E-01 0.24559912E+03</pdfrwt>
<totfact> 0.41148302E+04</totfact>
</mgrwt>
</event>
<event>
12    2  0.4097182E-002  0.2123013E+03  0.7546771E-02  0.1140394E+00
         21   -1    0    0  501  502  0.00000000000E+00  0.00000000000E+00  0.22171157911E+03  0.22171157911E+03  0.00000000000E+00 0. -1.
         21   -1    0    0  502  503 -0.00000000000E+00 -0.00000000000E+00 -0.31654675700E+03  0.31654675700E+03  0.00000000000E+00 0.  1.
         -6    2    1    2    0  503 -0.11371532858E+03 -0.36510113671E+02 -0.21034683551E+03  0.29656686863E+03  0.17158657293E+03 0.  0.
        -24    2    3    3    0    0 -0.11530525060E+03  0.25526714073E+02 -0.19016739278E+03  0.23114213510E+03  0.57585895830E+02 0.  0.
          6    2    1    2  501    0  0.11371532858E+03  0.36510113671E+02  0.11551165761E+03  0.24169146748E+03  0.17552110429E+03 0.  0.
         24    2    5    5    0    0  0.60936843364E+02 -0.44844285085E+02  0.80670855028E+02  0.13854071264E+03  0.83435204941E+02 0.  0.
          5    1    5    5  501    0  0.52778485217E+02  0.81354398755E+02  0.34840802584E+02  0.10315075484E+03  0.47000000000E+01 0. -1.
        -15    1    6    6    0    0  0.51292041274E+02 -0.64053951230E+02  0.83230106892E+02  0.11689392879E+03  0.17770000000E+01 0.  1.
         16    1    6    6    0    0  0.96448020903E+01  0.19209666146E+02 -0.25592518632E+01  0.21646783846E+02  0.00000000000E+00 0. -1.
         -5    1    3    3    0  503  0.15899220151E+01 -0.62036827744E+02 -0.20179442732E+02  0.65424733530E+02  0.47000000000E+01 0.  1.
         15    1    4    4    0    0 -0.31413667320E-01  0.67884334103E+01  0.10359207542E+01  0.70932838512E+01  0.17770000000E+01 0. -1.
        -16    1    4    4    0    0 -0.11527383693E+03  0.18738280663E+02 -0.19120331353E+03  0.22404885125E+03  0.00000000000E+00 0.  1.
<mgrwt>
<rscale>  2 0.21148628E+03</rscale>
<asrwt>0</asrwt>
<pdfrwt beam="1">  1       21 0.34109474E-01 0.21230125E+03</pdfrwt>
<pdfrwt beam="2">  1       21 0.48699501E-01 0.21230125E+03</pdfrwt>
<totfact> 0.32989967E+04</totfact>
</mgrwt>
</event>
<event>
12    2  0.4097182E-002  0.2087877E+03  0.7546771E-02  0.1142794E+00
         21   -1    0    0  503  502  0.00000000000E+00  0.00000000000E+00  0.10770190375E+03  0.10770190375E+03  0.00000000000E+00 0.  1.
         21   -1    0    0  501  503 -0.00000000000E+00 -0.00000000000E+00 -0.44758778301E+03  0.44758778301E+03  0.00000000000E+00 0. -1.
          6    2    1    2  501    0  0.26852019354E+02 -0.11541964954E+03 -0.25885234191E+03  0.33256104754E+03  0.17189993887E+03 0.  0.
         24    2    3    3    0    0 -0.32793016308E+02 -0.11939658270E+03 -0.19289908643E+03  0.24342481369E+03  0.81943007591E+02 0.  0.
         -6    2    1    2    0  502 -0.26852019354E+02  0.11541964954E+03 -0.81033537347E+02  0.22272863922E+03  0.17029059314E+03 0.  0.
        -24    2    5    5    0    0 -0.57447420605E+02  0.40689637651E+02 -0.92009742192E+02  0.14110008829E+03  0.80545574130E+02 0.  0.
          5    1    3    3  501    0  0.59645035662E+02  0.39769331630E+01 -0.65953255479E+02  0.89136233849E+02  0.47000000000E+01 0. -1.
        -15    1    4    4    0    0  0.52287513571E+01 -0.29994053519E+02 -0.36761781838E+01  0.30718969747E+02  0.17770000000E+01 0.  1.
         16    1    4    4    0    0 -0.38021767665E+02 -0.89402529181E+02 -0.18922290825E+03  0.21270584394E+03  0.00000000000E+00 0. -1.
         -5    1    5    5    0  502  0.30595401250E+02  0.74730011886E+02  0.10976204845E+02  0.81628550930E+02  0.47000000000E+01 0.  1.
         15    1    6    6    0    0 -0.71860134265E+01  0.11317099042E+01 -0.74376792466E+02  0.74752822975E+02  0.17770000000E+01 0. -1.
        -16    1    6    6    0    0 -0.50261407178E+02  0.39557927747E+02 -0.17632949726E+02  0.66347265318E+02  0.00000000000E+00 0.  1.
<mgrwt>
<rscale>  2 0.20845619E+03</rscale>
<asrwt>0</asrwt>
<pdfrwt beam="1">  1       21 0.16569524E-01 0.20878773E+03</pdfrwt>
<pdfrwt beam="2">  1       21 0.68859659E-01 0.20878773E+03</pdfrwt>
<totfact> 0.62357052E+04</totfact>
</mgrwt>
</event>
<event>
12    2  0.4097182E-002  0.1895143E+03  0.7546771E-02  0.1159225E+00
         21   -1    0    0  503  502  0.00000000000E+00  0.00000000000E+00  0.34847793295E+03  0.34847793295E+03  0.00000000000E+00 0.  1.
         21   -1    0    0  501  503 -0.00000000000E+00 -0.00000000000E+00 -0.16436059259E+03  0.16436059259E+03  0.00000000000E+00 0.  1.
          6    2    1    2  501    0  0.34299262932E+02  0.66114504929E+02 -0.65738356946E+02  0.19924077592E+03  0.17270723209E+03 0.  0.
         24    2    3    3    0    0  0.62884685529E+02  0.77677277780E+02 -0.92918967511E+02  0.15786808333E+03  0.79373509779E+02 0.  0.
         -6    2    1    2    0  502 -0.34299262932E+02 -0.66114504929E+02  0.24985569731E+03  0.31359774963E+03  0.17426448834E+03 0.  0.
        -24    2    5    5    0    0  0.13704268692E+02  0.23923548944E+02  0.13700568813E+03  0.16138603929E+03  0.80714013176E+02 0.  0.
          5    1    3    3  501    0 -0.28585422597E+02 -0.11562772850E+02  0.27180610565E+02  0.41372692585E+02  0.47000000000E+01 0. -1.
        -15    1    4    4    0    0  0.46318129175E+02  0.85022574490E+02 -0.99256968980E+02  0.13866979081E+03  0.17770000000E+01 0.  1.
         16    1    4    4    0    0  0.16566556354E+02 -0.73452967098E+01  0.63380014693E+01  0.19198292523E+02  0.00000000000E+00 0. -1.
         -5    1    5    5    0  502 -0.48003531624E+02 -0.90038053873E+02  0.11285000918E+03  0.15221171034E+03  0.47000000000E+01 0.  1.
         15    1    6    6    0    0  0.12708317398E+02  0.43250135523E+01  0.14075702257E+03  0.14140687468E+03  0.17770000000E+01 0. -1.
        -16    1    6    6    0    0  0.99595129410E+00  0.19598535392E+02 -0.37513344432E+01  0.19979164612E+02  0.00000000000E+00 0.  1.
<mgrwt>
<rscale>  2 0.18915557E+03</rscale>
<asrwt>0</asrwt>
<pdfrwt beam="1">  1       21 0.53611990E-01 0.18951432E+03</pdfrwt>
<pdfrwt beam="2">  1       21 0.25286245E-01 0.18951432E+03</pdfrwt>
<totfact> 0.48865931E+04</totfact>
</mgrwt>
</event>
<event>
12    2  0.4097182E-002  0.1810138E+03  0.7546771E-02  0.1166951E+00
         21   -1    0    0  501  502  0.00000000000E+00  0.00000000000E+00  0.35820442449E+03  0.35820442449E+03  0.00000000000E+00 0. -1.
         21   -1    0    0  502  503 -0.00000000000E+00 -0.00000000000E+00 -0.14584775442E+03  0.14584775442E+03  0.00000000000E+00 0. -1.
         -6    2    1    2    0  503  0.41022603538E+02  0.32441045443E+02  0.26033948086E+03  0.31678669243E+03  0.17274804709E+03 0.  0.
        -24    2    3    3    0    0  0.85166767971E+02  0.56195236655E+02  0.17724323025E+03  0.21962679473E+03  0.80059248731E+02 0.  0.
          6    2    1    2  501    0 -0.41022603538E+02 -0.32441045443E+02 -0.47982810794E+02  0.18726548648E+03  0.17329378772E+03 0.  0.
         24    2    5    5    0    0 -0.29841510472E+02 -0.52769440467E+02 -0.91826801199E+02  0.13743932888E+03  0.82354587666E+02 0.  0.
          5    1    5    5  501    0 -0.11181093066E+02  0.20328395024E+02  0.43843990405E+02  0.49826157599E+02  0.47000000000E+01 0. -1.
        -15    1    6    6    0    0 -0.35676998764E+02  0.17031132608E+01 -0.69704117479E+01  0.36434780149E+02  0.17770000000E+01 0.  1.
         16    1    6    6    0    0  0.58354882922E+01 -0.54472553728E+02 -0.84856389452E+02  0.10100454873E+03  0.00000000000E+00 0. -1.
         -5    1    3    3    0  503 -0.44144164433E+02 -0.23754191211E+02  0.83096250616E+02  0.97159897694E+02  0.47000000000E+01 0.  1.
         15    1    4    4    0    0  0.35191094048E+02  0.34668655988E+01  0.12559415891E+03  0.13048939704E+03  0.17770000000E+01 0. -1.
        -16    1    4    4    0    0  0.49975673923E+02  0.52728371056E+02  0.51649071335E+02  0.89137397696E+02  0.00000000000E+00 0.  1.
<mgrwt>
<rscale>  2 0.18088310E+03</rscale>
<asrwt>0</asrwt>
<pdfrwt beam="1">  1       21 0.55108373E-01 0.18101385E+03</pdfrwt>
<pdfrwt beam="2">  1       21 0.22438116E-01 0.18101385E+03</pdfrwt>
<totfact> 0.58074601E+04</totfact>
</mgrwt>
</event>
<event>
12    2  0.4097182E-002  0.1893047E+03  0.7546771E-02  0.1159183E+00
         21   -1    0    0  501  502  0.00000000000E+00  0.00000000000E+00  0.12686416031E+03  0.12686416031E+03  0.00000000000E+00 0.  1.
         21   -1    0    0  502  503 -0.00000000000E+00 -0.00000000000E+00 -0.32138803952E+03  0.32138803952E+03  0.00000000000E+00 0. -1.
         -6    2    1    2    0  503 -0.18128459568E+01  0.78239067172E+02 -0.17576344135E+03  0.25802014062E+03  0.17192139951E+03 0.  0.
        -24    2    3    3    0    0 -0.28968445723E+01  0.11337262315E+03 -0.91223502580E+02  0.16634335482E+03  0.80539685143E+02 0.  0.
          6    2    1    2  501    0  0.18128459568E+01 -0.78239067172E+02 -0.18760437860E+02  0.19023205920E+03  0.17237065956E+03 0.  0.
         24    2    5    5    0    0  0.17295569907E+02 -0.11334178309E+03  0.10910126122E+02  0.14150477965E+03  0.82213595470E+02 0.  0.
          5    1    5    5  501    0 -0.15482723950E+02  0.35102715916E+02 -0.29670563982E+02  0.48727279552E+02  0.47000000000E+01 0. -1.
        -15    1    6    6    0    0  0.28982988477E+02 -0.19089638466E+02 -0.21839012055E+02  0.41043002989E+02  0.17770000000E+01 0.  1.
         16    1    6    6    0    0 -0.11687418570E+02 -0.94252144621E+02  0.32749138177E+02  0.10046177666E+03  0.00000000000E+00 0. -1.
         -5    1    3    3    0  503  0.10839986155E+01 -0.35133555974E+02 -0.84539938765E+02  0.91676785801E+02  0.47000000000E+01 0.  1.
         15    1    4    4    0    0  0.17659771353E+02 -0.32748944819E+01 -0.24395875900E+02  0.30346481642E+02  0.17770000000E+01 0. -1.
        -16    1    4    4    0    0 -0.20556615925E+02  0.11664751763E+03 -0.66827626680E+02  0.13599687318E+03  0.00000000000E+00 0.  1.
<mgrwt>
<rscale>  2 0.18920241E+03</rscale>
<asrwt>0</asrwt>
<pdfrwt beam="1">  1       21 0.19517563E-01 0.18930473E+03</pdfrwt>
<pdfrwt beam="2">  1       21 0.49444313E-01 0.18930473E+03</pdfrwt>
<totfact> 0.94348056E+04</totfact>
</mgrwt>
</event>
<event>
12    2  0.4097182E-002  0.2901595E+03  0.7546771E-02  0.1090339E+00
         21   -1    0    0  503  502  0.00000000000E+00  0.00000000000E+00  0.58178678159E+03  0.58178678159E+03  0.00000000000E+00 0. -1.
         21   -1    0    0  501  503 -0.00000000000E+00 -0.00000000000E+00 -0.17594328950E+03  0.17594328950E+03  0.00000000000E+00 0. -1.
          6    2    1    2  501    0  0.20419962921E+03 -0.11184398775E+03  0.42430153019E+02  0.29269048857E+03  0.17222322157E+03 0.  0.
         24    2    3    3    0    0  0.92910257597E+02 -0.95703912595E+02 -0.29909924192E+02  0.15889585852E+03  0.81004539602E+02 0.  0.
         -6    2    1    2    0  502 -0.20419962921E+03  0.11184398775E+03  0.36341333907E+03  0.46503958252E+03  0.17316463880E+03 0.  0.
        -24    2    5    5    0    0 -0.18572467514E+03  0.12021408337E+03  0.37396895190E+03  0.44169663089E+03  0.79360292046E+02 0.  0.
          5    1    3    3  501    0  0.11128937161E+03 -0.16140075159E+02  0.72340077211E+02  0.13379463005E+03  0.47000000000E+01 0. -1.
        -15    1    4    4    0    0  0.99145850566E+02 -0.95573295779E+02 -0.43097588010E+02  0.14430770725E+03  0.17770000000E+01 0.  1.
         16    1    4    4    0    0 -0.62355929689E+01 -0.13061681553E+00  0.13187663818E+02  0.14588151267E+02  0.00000000000E+00 0. -1.
         -5    1    5    5    0  502 -0.18474954072E+02 -0.83700956188E+01 -0.10555612833E+02  0.23342951633E+02  0.47000000000E+01 0.  1.
         15    1    6    6    0    0 -0.15936006281E+03  0.68571195547E+02  0.31083424887E+03  0.35597573861E+03  0.17770000000E+01 0. -1.
        -16    1    6    6    0    0 -0.26364612334E+02  0.51642887826E+02  0.63134703025E+02  0.85720892276E+02  0.00000000000E+00 0.  1.
<mgrwt>
<rscale>  2 0.29001923E+03</rscale>
<asrwt>0</asrwt>
<pdfrwt beam="1">  1       21 0.89505658E-01 0.29015954E+03</pdfrwt>
<pdfrwt beam="2">  1       21 0.27068199E-01 0.29015954E+03</pdfrwt>
<totfact> 0.13110014E+04</totfact>
</mgrwt>
</event>
<event>
12    2  0.4097182E-002  0.2012327E+03  0.7546771E-02  0.1148905E+00
         21   -1    0    0  503  502  0.00000000000E+00  0.00000000000E+00  0.45482358729E+03  0.45482358729E+03  0.00000000000E+00 0.  1.
         21   -1    0    0  501  503 -0.00000000000E+00 -0.00000000000E+00 -0.14220408607E+03  0.14220408607E+03  0.00000000000E+00 0.  1.
          6    2    1    2  501    0  0.84683288612E+02 -0.53742990508E+02 -0.26719187262E+02  0.20299879052E+03  0.17445637158E+03 0.  0.
         24    2    3    3    0    0  0.50209643380E+02 -0.99787040206E+02 -0.41132663321E+02  0.14351496902E+03  0.80163512024E+02 0.  0.
         -6    2    1    2    0  502 -0.84683288612E+02  0.53742990508E+02  0.33933868848E+03  0.39402888285E+03  0.17334487768E+03 0.  0.
        -24    2    5    5    0    0 -0.12042282081E+03  0.12345215632E+02  0.25848129228E+03  0.29629916143E+03  0.79539640987E+02 0.  0.
          5    1    3    3  501    0  0.34473645232E+02  0.46044049698E+02  0.14413476059E+02  0.59483821500E+02  0.47000000000E+01 0. -1.
        -15    1    4    4    0    0  0.30548626508E+02 -0.81556691065E+02 -0.64147750165E+02  0.10817949907E+03  0.17770000000E+01 0.  1.
         16    1    4    4    0    0  0.19661016872E+02 -0.18230349141E+02  0.23015086843E+02  0.35335469951E+02  0.00000000000E+00 0. -1.
         -5    1    5    5    0  502  0.35739532197E+02  0.41397774876E+02  0.80857396206E+02  0.97729721414E+02  0.47000000000E+01 0.  1.
         15    1    6    6    0    0 -0.20444650929E+01 -0.21364334566E+02  0.32861505948E+02  0.39289323373E+02  0.17770000000E+01 0. -1.
        -16    1    6    6    0    0 -0.11837835572E+03  0.33709550197E+02  0.22561978633E+03  0.25700983806E+03  0.00000000000E+00 0.  1.
<mgrwt>
<rscale>  2 0.20099155E+03</rscale>
<asrwt>0</asrwt>
<pdfrwt beam="1">  1       21 0.69972859E-01 0.20123269E+03</pdfrwt>
<pdfrwt beam="2">  1       21 0.21877552E-01 0.20123269E+03</pdfrwt>
<totfact> 0.36010370E+04</totfact>
</mgrwt>
</event>
<event>
12    2  0.4097182E-002  0.3440301E+03  0.7546771E-02  0.1065094E+00
         21   -1    0    0  503  502  0.00000000000E+00  0.00000000000E+00  0.24702440114E+03  0.24702440114E+03  0.00000000000E+00 0. -1.
         21   -1    0    0  501  503 -0.00000000000E+00 -0.00000000000E+00 -0.51684146827E+03  0.51684146827E+03  0.00000000000E+00 0.  1.
          6    2    1    2  501    0  0.16716963242E+03 -0.24450232451E+03 -0.23810551200E+03  0.41837728782E+03  0.17498070587E+03 0.  0.
         24    2    3    3    0    0  0.18912247535E+03 -0.24678579654E+03 -0.22697923989E+03  0.39321729004E+03  0.80185545995E+02 0.  0.
         -6    2    1    2    0  502 -0.16716963242E+03  0.24450232451E+03 -0.31711555138E+02  0.34548858159E+03  0.17501332689E+03 0.  0.
        -24    2    5    5    0    0 -0.15935981525E+02  0.12294673516E+03 -0.33872528809E+02  0.15139031197E+03  0.80011393913E+02 0.  0.
          5    1    3    3  501    0 -0.21952842936E+02  0.22834720277E+01 -0.11126272107E+02  0.25159997784E+02  0.47000000000E+01 0. -1.
        -15    1    4    4    0    0  0.34567609514E+02 -0.10428040244E+03 -0.63465412323E+02  0.12688710830E+03  0.17770000000E+01 0.  1.
         16    1    4    4    0    0  0.15455486584E+03 -0.14250539409E+03 -0.16351382757E+03  0.26633018174E+03  0.00000000000E+00 0. -1.
         -5    1    5    5    0  502 -0.15123365089E+03  0.12155558935E+03  0.21609736718E+01  0.19409826962E+03  0.47000000000E+01 0.  1.
         15    1    6    6    0    0 -0.31806389424E+02  0.11890037786E+03 -0.11452894255E+02  0.12362553450E+03  0.17770000000E+01 0. -1.
        -16    1    6    6    0    0  0.15870407899E+02  0.40463572954E+01 -0.22419634555E+02  0.27764777468E+02  0.00000000000E+00 0.  1.
<mgrwt>
<rscale>  2 0.34402599E+03</rscale>
<asrwt>0</asrwt>
<pdfrwt beam="1">  1       21 0.38003754E-01 0.34403014E+03</pdfrwt>
<pdfrwt beam="2">  1       21 0.79514072E-01 0.34403014E+03</pdfrwt>
<totfact> 0.85837199E+03</totfact>
</mgrwt>
</event>
<event>
12    2  0.4097182E-002  0.1758017E+03  0.7546771E-02  0.1172578E+00
         21   -1    0    0  503  502  0.00000000000E+00  0.00000000000E+00  0.11506102338E+03  0.11506102338E+03  0.00000000000E+00 0.  1.
         21   -1    0    0  501  503 -0.00000000000E+00 -0.00000000000E+00 -0.28575637622E+03  0.28575637622E+03  0.00000000000E+00 0.  1.
          6    2    1    2  501    0 -0.20731893854E+02 -0.14850522738E+02 -0.31504634316E+02  0.17860229440E+03  0.17394219767E+03 0.  0.
         24    2    3    3    0    0 -0.17008367189E+02 -0.63279464513E+02  0.22628356073E+02  0.10572089965E+03  0.79820366699E+02 0.  0.
         -6    2    1    2    0  502  0.20731893854E+02  0.14850522738E+02 -0.13919071852E+03  0.22221510520E+03  0.17133343926E+03 0.  0.
        -24    2    5    5    0    0  0.66134862829E+02 -0.11870348617E+01 -0.39559727764E+02  0.11145835748E+03  0.80515614997E+02 0.  0.
          5    1    3    3  501    0 -0.37235266652E+01  0.48428941775E+02 -0.54132990388E+02  0.72881394750E+02  0.47000000000E+01 0. -1.
        -15    1    4    4    0    0 -0.48395783540E+02 -0.47081255629E+02  0.10371108438E+02  0.68333843118E+02  0.17770000000E+01 0.  1.
         16    1    4    4    0    0  0.31387416351E+02 -0.16198208884E+02  0.12257247635E+02  0.37387056528E+02  0.00000000000E+00 0. -1.
         -5    1    5    5    0  502 -0.45402968975E+02  0.16037557599E+02 -0.99630990759E+02  0.11075674772E+03  0.47000000000E+01 0.  1.
         15    1    6    6    0    0  0.22723991379E+02 -0.39499814565E+02 -0.23853878740E+02  0.51466303489E+02  0.17770000000E+01 0. -1.
        -16    1    6    6    0    0  0.43410871450E+02  0.38312779703E+02 -0.15705849023E+02  0.59992053992E+02  0.00000000000E+00 0.  1.
<mgrwt>
<rscale>  2 0.17515293E+03</rscale>
<asrwt>0</asrwt>
<pdfrwt beam="1">  1       21 0.17701696E-01 0.17580170E+03</pdfrwt>
<pdfrwt beam="2">  1       21 0.43962519E-01 0.17580170E+03</pdfrwt>
<totfact> 0.14473813E+05</totfact>
</mgrwt>
</event>
<event>
12    2  0.4097182E-002  0.2578709E+03  0.7546771E-02  0.1110231E+00
         21   -1    0    0  501  502  0.00000000000E+00  0.00000000000E+00  0.11771420249E+03  0.11771420249E+03  0.00000000000E+00 0. -1.
         21   -1    0    0  502  503 -0.00000000000E+00 -0.00000000000E+00 -0.14180137918E+04  0.14180137918E+04  0.00000000000E+00 0. -1.
         -6    2    1    2    0  503  0.16625833811E+03 -0.64715670638E+02 -0.12600596890E+04  0.12861756528E+04  0.18619193590E+03 0.  0.
        -24    2    3    3    0    0  0.10628472149E+03 -0.36608918314E+02 -0.11448887554E+04  0.11532348458E+04  0.80893092446E+02 0.  0.
          6    2    1    2  501    0 -0.16625833811E+03  0.64715670638E+02 -0.40239900370E+02  0.24955234156E+03  0.16978565480E+03 0.  0.
         24    2    5    5    0    0 -0.59640829051E+02  0.65620156469E+02  0.30079327525E+02  0.12174391013E+03  0.77806042722E+02 0.  0.
          5    1    5    5  501    0 -0.10661750906E+03 -0.90448583150E+00 -0.70319227894E+02  0.12780843143E+03  0.47000000000E+01 0. -1.
        -15    1    6    6    0    0 -0.13870344816E+02 -0.17757274574E+02  0.89574403665E+01  0.24312563265E+02  0.17770000000E+01 0.  1.
         16    1    6    6    0    0 -0.45770484235E+02  0.83377431043E+02  0.21121887158E+02  0.97431346863E+02  0.00000000000E+00 0. -1.
         -5    1    3    3    0  503  0.59973616625E+02 -0.28106752324E+02 -0.11517093354E+03  0.13294080694E+03  0.47000000000E+01 0.  1.
         15    1    4    4    0    0  0.27623840023E+02 -0.31183799492E+02 -0.71227363264E+03  0.71349309132E+03  0.17770000000E+01 0. -1.
        -16    1    4    4    0    0  0.78660881464E+02 -0.54251188222E+01 -0.43261512279E+03  0.43974175450E+03  0.00000000000E+00 0.  1.
<mgrwt>
<rscale>  2 0.25492472E+03</rscale>
<asrwt>0</asrwt>
<pdfrwt beam="1">  1       21 0.18109877E-01 0.25787088E+03</pdfrwt>
<pdfrwt beam="2">  1       21 0.21815597E+00 0.25787088E+03</pdfrwt>
<totfact> 0.27016691E+03</totfact>
</mgrwt>
</event>
<event>
12    2  0.4097182E-002  0.2070507E+03  0.7546771E-02  0.1145988E+00
         21   -1    0    0  501  502  0.00000000000E+00  0.00000000000E+00  0.18715166163E+03  0.18715166163E+03  0.00000000000E+00 0. -1.
         21   -1    0    0  502  503 -0.00000000000E+00 -0.00000000000E+00 -0.34606782165E+03  0.34606782165E+03  0.00000000000E+00 0. -1.
         -6    2    1    2    0  503  0.11114047638E+03 -0.23650434966E+02 -0.24274728592E+03  0.31905525570E+03  0.17308513166E+03 0.  0.
        -24    2    3    3    0    0  0.15828745330E+02  0.15737853385E+01 -0.34433578238E+02  0.88540010702E+02  0.80003976187E+02 0.  0.
          6    2    1    2  501    0 -0.11114047638E+03  0.23650434966E+02  0.83831125903E+02  0.21416422759E+03  0.16101897449E+03 0.  0.
         24    2    5    5    0    0 -0.12927259300E+03 -0.31308776055E+01  0.94716185842E+02  0.17971735711E+03  0.81277099415E+02 0.  0.
          5    1    5    5  501    0  0.18132116624E+02  0.26781312572E+02 -0.10885059939E+02  0.34446870485E+02  0.47000000000E+01 0. -1.
        -15    1    6    6    0    0  0.26110160979E+01 -0.18294709198E+02  0.20382787813E+02  0.27570447181E+02  0.17770000000E+01 0.  1.
         16    1    6    6    0    0 -0.13188360910E+03  0.15163831593E+02  0.74333398029E+02  0.15214690993E+03  0.00000000000E+00 0. -1.
         -5    1    3    3    0  503  0.95311731048E+02 -0.25224220305E+02 -0.20831370768E+03  0.23051524499E+03  0.47000000000E+01 0.  1.
         15    1    4    4    0    0  0.26622133167E+02 -0.27750892915E+02 -0.41391624208E+02  0.56526757518E+02  0.17770000000E+01 0. -1.
        -16    1    4    4    0    0 -0.10793387836E+02  0.29324678254E+02  0.69580459697E+01  0.32013253184E+02  0.00000000000E+00 0.  1.
<mgrwt>
<rscale>  2 0.20451051E+03</rscale>
<asrwt>0</asrwt>
<pdfrwt beam="1">  1       21 0.28792563E-01 0.20705075E+03</pdfrwt>
<pdfrwt beam="2">  1       21 0.53241203E-01 0.20705075E+03</pdfrwt>
<totfact> 0.38271330E+04</totfact>
</mgrwt>
</event>
<event>
12    2  0.4097182E-002  0.1965329E+03  0.7546771E-02  0.1153432E+00
         21   -1    0    0  503  502  0.00000000000E+00  0.00000000000E+00  0.32145884965E+03  0.32145884965E+03  0.00000000000E+00 0.  1.
         21   -1    0    0  501  503 -0.00000000000E+00 -0.00000000000E+00 -0.16022828833E+03  0.16022828833E+03  0.00000000000E+00 0.  1.
          6    2    1    2  501    0 -0.87323783424E+02  0.11549178127E+02 -0.42356817964E+02  0.20104542839E+03  0.17568818282E+03 0.  0.
         24    2    3    3    0    0 -0.33374831506E+02  0.37504086490E+02  0.37612547340E+02  0.10103874827E+03  0.79206622537E+02 0.  0.
         -6    2    1    2    0  502  0.87323783424E+02 -0.11549178127E+02  0.20358737929E+03  0.28064170959E+03  0.17191021345E+03 0.  0.
        -24    2    5    5    0    0  0.31728266074E+02 -0.41779392707E+02  0.39317982254E+02  0.10454158970E+03  0.81429968223E+02 0.  0.
          5    1    3    3  501    0 -0.53948951917E+02 -0.25954908363E+02 -0.79969365304E+02  0.10000668012E+03  0.47000000000E+01 0. -1.
        -15    1    4    4    0    0 -0.36347390459E+02  0.18888564589E+02 -0.16150048544E+02  0.44066908927E+02  0.17770000000E+01 0.  1.
         16    1    4    4    0    0  0.29725589525E+01  0.18615521901E+02  0.53762595884E+02  0.56971839346E+02  0.00000000000E+00 0. -1.
         -5    1    5    5    0  502  0.55595517349E+02  0.30230214581E+02  0.16426939704E+03  0.17610011989E+03  0.47000000000E+01 0.  1.
         15    1    6    6    0    0 -0.19839344149E+02  0.91250458247E+01 -0.39356489665E+00  0.21912979256E+02  0.17770000000E+01 0. -1.
        -16    1    6    6    0    0  0.51567610223E+02 -0.50904438532E+02  0.39711547151E+02  0.82628610441E+02  0.00000000000E+00 0.  1.
<mgrwt>
<rscale>  2 0.19568492E+03</rscale>
<asrwt>0</asrwt>
<pdfrwt beam="1">  1       21 0.49455207E-01 0.19653286E+03</pdfrwt>
<pdfrwt beam="2">  1       21 0.24650506E-01 0.19653286E+03</pdfrwt>
<totfact> 0.60547584E+04</totfact>
</mgrwt>
</event>
<event>
12    2  0.4097182E-002  0.1826035E+03  0.7546771E-02  0.1165975E+00
         21   -1    0    0  501  502  0.00000000000E+00  0.00000000000E+00  0.38015327217E+03  0.38015327217E+03  0.00000000000E+00 0. -1.
         21   -1    0    0  502  503 -0.00000000000E+00 -0.00000000000E+00 -0.14735886565E+03  0.14735886565E+03  0.00000000000E+00 0. -1.
         -6    2    1    2    0  503 -0.48754120752E+02 -0.45350212927E+01 -0.52747604958E+02  0.19006931176E+03  0.17591618099E+03 0.  0.
        -24    2    3    3    0    0  0.35273715730E+02  0.23820964132E+02 -0.12722989975E+02  0.92658845085E+02  0.81314904815E+02 0.  0.
          6    2    1    2  501    0  0.48754120752E+02  0.45350212927E+01  0.28554201147E+03  0.33744282606E+03  0.17301991167E+03 0.  0.
         24    2    5    5    0    0  0.41703450778E+02 -0.65918634895E+02  0.16553686605E+03  0.19802706460E+03  0.75682362915E+02 0.  0.
          5    1    5    5  501    0  0.70506699739E+01  0.70453656187E+02  0.12000514542E+03  0.13941576146E+03  0.47000000000E+01 0. -1.
        -15    1    6    6    0    0 -0.14364179037E+02 -0.34858248759E+01  0.66848604341E+02  0.68486306995E+02  0.17770000000E+01 0.  1.
         16    1    6    6    0    0  0.56067629815E+02 -0.62432810019E+02  0.98688261713E+02  0.12954075760E+03  0.00000000000E+00 0. -1.
         -5    1    3    3    0  503 -0.84027836481E+02 -0.28355985425E+02 -0.40024614983E+02  0.97410466674E+02  0.47000000000E+01 0.  1.
         15    1    4    4    0    0 -0.20010111429E+02  0.29840509956E+02 -0.79754822241E+01  0.36845985393E+02  0.17770000000E+01 0. -1.
        -16    1    4    4    0    0  0.55283827158E+02 -0.60195458246E+01 -0.47475077509E+01  0.55812859692E+02  0.00000000000E+00 0.  1.
<mgrwt>
<rscale>  2 0.18190233E+03</rscale>
<asrwt>0</asrwt>
<pdfrwt beam="1">  1       21 0.58485118E-01 0.18260349E+03</pdfrwt>
<pdfrwt beam="2">  1       21 0.22670595E-01 0.18260349E+03</pdfrwt>
<totfact> 0.50161140E+04</totfact>
</mgrwt>
</event>
<event>
12    2  0.4097182E-002  0.2834166E+03  0.7546771E-02  0.1093984E+00
         21   -1    0    0  501  502  0.00000000000E+00  0.00000000000E+00  0.17381695354E+03  0.17381695354E+03  0.00000000000E+00 0.  1.
         21   -1    0    0  502  503 -0.00000000000E+00 -0.00000000000E+00 -0.60768781761E+03  0.60768781761E+03  0.00000000000E+00 0. -1.
         -6    2    1    2    0  503  0.22385444634E+03  0.18530538536E+01 -0.40965484484E+03  0.49813858205E+03  0.17381227824E+03 0.  0.
        -24    2    3    3    0    0  0.23153385819E+03  0.29325921580E+02 -0.39504145907E+03  0.46574455681E+03  0.79951864575E+02 0.  0.
          6    2    1    2  501    0 -0.22385444634E+03 -0.18530538536E+01 -0.24216019229E+02  0.28336618911E+03  0.17203410879E+03 0.  0.
         24    2    5    5    0    0 -0.26501560774E+02 -0.12625143109E+02 -0.38829268533E+01  0.84620814332E+02  0.79270916075E+02 0.  0.
          5    1    5    5  501    0 -0.19735288557E+03  0.10772089256E+02 -0.20333092375E+02  0.19874537477E+03  0.47000000000E+01 0. -1.
        -15    1    6    6    0    0 -0.29247427776E+02  0.26584747896E+02  0.13276893557E+02  0.41732415263E+02  0.17770000000E+01 0.  1.
         16    1    6    6    0    0  0.27458670018E+01 -0.39209891005E+02 -0.17159820410E+02  0.42888399069E+02  0.00000000000E+00 0. -1.
         -5    1    3    3    0  503 -0.76794118516E+01 -0.27472867726E+02 -0.14613385777E+02  0.32394025241E+02  0.47000000000E+01 0.  1.
         15    1    4    4    0    0  0.39582458043E+02  0.36775351112E+02 -0.74434233009E+02  0.91993533506E+02  0.17770000000E+01 0. -1.
        -16    1    4    4    0    0  0.19195140015E+03 -0.74494295325E+01 -0.32060722606E+03  0.37375102330E+03  0.00000000000E+00 0.  1.
<mgrwt>
<rscale>  2 0.28314443E+03</rscale>
<asrwt>0</asrwt>
<pdfrwt beam="1">  1       21 0.26741070E-01 0.28341658E+03</pdfrwt>
<pdfrwt beam="2">  1       21 0.93490434E-01 0.28341658E+03</pdfrwt>
<totfact> 0.12155497E+04</totfact>
</mgrwt>
</event>
<event>
12    2  0.4097182E-002  0.2181592E+03  0.7546771E-02  0.1135574E+00
         21   -1    0    0  501  502  0.00000000000E+00  0.00000000000E+00  0.26906915654E+03  0.26906915654E+03  0.00000000000E+00 0. -1.
         21   -1    0    0  502  503 -0.00000000000E+00 -0.00000000000E+00 -0.21854252847E+03  0.21854252847E+03  0.00000000000E+00 0.  1.
         -6    2    1    2    0  503  0.36047497587E+02  0.12978851279E+03 -0.82948749477E+02  0.23185964382E+03  0.16951082342E+03 0.  0.
        -24    2    3    3    0    0 -0.27653974914E+02  0.50211518263E+02 -0.84175718047E+02  0.12981077754E+03  0.80494394593E+02 0.  0.
          6    2    1    2  501    0 -0.36047497587E+02 -0.12978851279E+03  0.13347537755E+03  0.25575204119E+03  0.17160696381E+03 0.  0.
         24    2    5    5    0    0  0.26886523793E+02 -0.12238903886E+03  0.65227152226E+02  0.16250316173E+03  0.80316462749E+02 0.  0.
          5    1    5    5  501    0 -0.62934021379E+02 -0.73994739297E+01  0.68248225323E+02  0.93248879463E+02  0.47000000000E+01 0. -1.
        -15    1    6    6    0    0 -0.24621775739E+02 -0.61377741872E+02  0.13954226282E+02  0.67611664659E+02  0.17770000000E+01 0.  1.
         16    1    6    6    0    0  0.51508299531E+02 -0.61011296992E+02  0.51272925944E+02  0.94891497070E+02  0.00000000000E+00 0. -1.
         -5    1    3    3    0  503  0.63701472500E+02  0.79576994531E+02  0.12269685700E+01  0.10204886628E+03  0.47000000000E+01 0.  1.
         15    1    4    4    0    0 -0.32201039799E+02  0.62955644706E+02 -0.90508905844E+02  0.11487097079E+03  0.17770000000E+01 0. -1.
        -16    1    4    4    0    0  0.45470648848E+01 -0.12744126443E+02  0.63331877973E+01  0.14939806744E+02  0.00000000000E+00 0.  1.
<mgrwt>
<rscale>  2 0.21774677E+03</rscale>
<asrwt>0</asrwt>
<pdfrwt beam="1">  1       21 0.41395255E-01 0.21815919E+03</pdfrwt>
<pdfrwt beam="2">  1       21 0.33621928E-01 0.21815919E+03</pdfrwt>
<totfact> 0.47297837E+04</totfact>
</mgrwt>
</event>
<event>
12    2  0.4097182E-002  0.2735992E+03  0.7546771E-02  0.1099457E+00
         21   -1    0    0  501  502  0.00000000000E+00  0.00000000000E+00  0.58453561849E+03  0.58453561849E+03  0.00000000000E+00 0. -1.
         21   -1    0    0  502  503 -0.00000000000E+00 -0.00000000000E+00 -0.14213539756E+03  0.14213539756E+03  0.00000000000E+00 0.  1.
         -6    2    1    2    0  503  0.19903526437E+03 -0.69557344377E+02  0.33788616161E+03  0.43378932736E+03  0.17190945785E+03 0.  0.
        -24    2    3    3    0    0  0.65725169643E+02  0.23045747597E+01  0.21502401267E+03  0.23871776505E+03  0.80160690707E+02 0.  0.
          6    2    1    2  501    0 -0.19903526437E+03  0.69557344377E+02  0.10451405931E+03  0.29288168869E+03  0.17436523264E+03 0.  0.
         24    2    5    5    0    0 -0.22207367010E+03  0.54986405535E+02  0.10859254442E+03  0.26492092264E+03  0.77785183692E+02 0.  0.
          5    1    5    5  501    0  0.23038405727E+02  0.14570938842E+02 -0.40784851086E+01  0.27960766047E+02  0.47000000000E+01 0. -1.
        -15    1    6    6    0    0 -0.79268624429E+02 -0.53422413672E+01  0.74445669321E+01  0.79816249395E+02  0.17770000000E+01 0.  1.
         16    1    6    6    0    0 -0.14280504567E+03  0.60328646902E+02  0.10114797749E+03  0.18510467325E+03  0.00000000000E+00 0. -1.
         -5    1    3    3    0  503  0.13331009473E+03 -0.71861919137E+02  0.12286214894E+03  0.19507156231E+03  0.47000000000E+01 0.  1.
         15    1    4    4    0    0  0.48507108885E+02 -0.36735067433E+02  0.13257454407E+03  0.14588204913E+03  0.17770000000E+01 0. -1.
        -16    1    4    4    0    0  0.17218060758E+02  0.39039642192E+02  0.82449468601E+02  0.92835715925E+02  0.00000000000E+00 0.  1.
<mgrwt>
<rscale>  2 0.27320869E+03</rscale>
<asrwt>0</asrwt>
<pdfrwt beam="1">  1       21 0.89928556E-01 0.27359915E+03</pdfrwt>
<pdfrwt beam="2">  1       21 0.21866985E-01 0.27359915E+03</pdfrwt>
<totfact> 0.19682958E+04</totfact>
</mgrwt>
</event>
<event>
12    2  0.4097182E-002  0.1865353E+03  0.7546771E-02  0.1162009E+00
         21   -1    0    0  503  502  0.00000000000E+00  0.00000000000E+00  0.10571382636E+04  0.10571382636E+04  0.00000000000E+00 0. -1.
         21   -1    0    0  501  503 -0.00000000000E+00 -0.00000000000E+00 -0.35754320016E+02  0.35754320016E+02  0.00000000000E+00 0.  1.
          6    2    1    2  501    0 -0.67763734893E+02  0.59491757284E+01  0.34689915752E+03  0.39308894669E+03  0.17190863288E+03 0.  0.
         24    2    3    3    0    0 -0.28931711356E+02 -0.59858610104E+02  0.15828039633E+03  0.18952638185E+03  0.80296129610E+02 0.  0.
         -6    2    1    2    0  502  0.67763734893E+02 -0.59491757284E+01  0.67448478604E+03  0.69980363691E+03  0.17368962885E+03 0.  0.
        -24    2    5    5    0    0  0.87345274917E+02 -0.49153094053E+02  0.37030697443E+03  0.39191364625E+03  0.80148781047E+02 0.  0.
          5    1    3    3  501    0 -0.38832023537E+02  0.65807785832E+02  0.18861876119E+03  0.20356256483E+03  0.47000000000E+01 0. -1.
        -15    1    4    4    0    0 -0.12450622834E+01 -0.59122096047E+02  0.14900123141E+03  0.16031686472E+03  0.17770000000E+01 0.  1.
         16    1    4    4    0    0 -0.27686649072E+02 -0.73651405693E+00  0.92791649185E+01  0.29209517137E+02  0.00000000000E+00 0. -1.
         -5    1    5    5    0  502 -0.19581540024E+02  0.43203918325E+02  0.30417781161E+03  0.30788999065E+03  0.47000000000E+01 0.  1.
         15    1    6    6    0    0  0.63929806911E+02  0.81524254520E+01  0.22286771623E+03  0.23200573036E+03  0.17770000000E+01 0. -1.
        -16    1    6    6    0    0  0.23415468007E+02 -0.57305519505E+02  0.14743925820E+03  0.15990791590E+03  0.00000000000E+00 0.  1.
<mgrwt>
<rscale>  2 0.18611957E+03</rscale>
<asrwt>0</asrwt>
<pdfrwt beam="1">  1       21 0.16263663E+00 0.18653526E+03</pdfrwt>
<pdfrwt beam="2">  1       21 0.55006654E-02 0.18653526E+03</pdfrwt>
<totfact> 0.55268991E+04</totfact>
</mgrwt>
</event>
<event>
12    2  0.4097182E-002  0.1745596E+03  0.7546771E-02  0.1173429E+00
         21   -1    0    0  503  502  0.00000000000E+00  0.00000000000E+00  0.55369411958E+02  0.55369411958E+02  0.00000000000E+00 0. -1.
         21   -1    0    0  501  503 -0.00000000000E+00 -0.00000000000E+00 -0.76157667649E+03  0.76157667649E+03  0.00000000000E+00 0. -1.
          6    2    1    2  501    0 -0.23054535633E+02 -0.19408229831E+01 -0.57057550143E+03  0.59668035758E+03  0.17301955926E+03 0.  0.
         24    2    3    3    0    0  0.28029024606E+02 -0.50694325362E+02 -0.38567251963E+03  0.39869642693E+03  0.82825162842E+02 0.  0.
         -6    2    1    2    0  502  0.23054535633E+02  0.19408229831E+01 -0.13563176310E+03  0.22026573087E+03  0.17200505407E+03 0.  0.
        -24    2    5    5    0    0  0.24541679969E+02 -0.64567528643E+02 -0.70928618442E+02  0.12734555349E+03  0.80092204796E+02 0.  0.
          5    1    3    3  501    0 -0.51083560239E+02  0.48753502378E+02 -0.18490298180E+03  0.19798393066E+03  0.47000000000E+01 0. -1.
        -15    1    4    4    0    0 -0.46364540254E+01 -0.59014759136E+02 -0.16175418998E+03  0.17225508471E+03  0.17770000000E+01 0.  1.
         16    1    4    4    0    0  0.32665478631E+02  0.83204337744E+01 -0.22391832965E+03  0.22644134222E+03  0.00000000000E+00 0. -1.
         -5    1    5    5    0  502 -0.14871443361E+01  0.66508351626E+02 -0.64703144663E+02  0.92920177376E+02  0.47000000000E+01 0.  1.
         15    1    6    6    0    0 -0.16976824549E+02 -0.41596705600E+02 -0.37764949956E+01  0.45121149498E+02  0.17770000000E+01 0. -1.
        -16    1    6    6    0    0  0.41518504518E+02 -0.22970823043E+02 -0.67152123446E+02  0.82224403993E+02  0.00000000000E+00 0.  1.
<mgrwt>
<rscale>  2 0.17430766E+03</rscale>
<asrwt>0</asrwt>
<pdfrwt beam="1">  1       21 0.85183715E-02 0.17455958E+03</pdfrwt>
<pdfrwt beam="2">  1       21 0.11716564E+00 0.17455958E+03</pdfrwt>
<totfact> 0.60791667E+04</totfact>
</mgrwt>
</event>
<event>
12    2  0.4097182E-002  0.1847538E+03  0.7546771E-02  0.1163799E+00
         21   -1    0    0  503  502  0.00000000000E+00  0.00000000000E+00  0.68960689288E+03  0.68960689288E+03  0.00000000000E+00 0.  1.
         21   -1    0    0  501  503 -0.00000000000E+00 -0.00000000000E+00 -0.13809552632E+03  0.13809552632E+03  0.00000000000E+00 0.  1.
          6    2    1    2  501    0 -0.11333960176E+02  0.57522922719E+02 -0.57414384169E+02  0.19136559496E+03  0.17287866883E+03 0.  0.
         24    2    3    3    0    0  0.52851426620E+02  0.71564278505E+01 -0.52986426644E+02  0.10952279142E+03  0.79644162857E+02 0.  0.
         -6    2    1    2    0  502  0.11333960176E+02 -0.57522922719E+02  0.60892575073E+03  0.63633682423E+03  0.17520456239E+03 0.  0.
        -24    2    5    5    0    0  0.69964576397E+01 -0.10323891302E+03  0.36813600189E+03  0.39116227652E+03  0.82320028587E+02 0.  0.
          5    1    3    3  501    0 -0.64185386797E+02  0.50366494869E+02 -0.44279575245E+01  0.81842803541E+02  0.47000000000E+01 0. -1.
        -15    1    4    4    0    0  0.55444174964E+02  0.12313345421E+02 -0.70808584882E+02  0.90789252860E+02  0.17770000000E+01 0.  1.
         16    1    4    4    0    0 -0.25927483439E+01 -0.51569175708E+01  0.17822158238E+02  0.18733538562E+02  0.00000000000E+00 0. -1.
         -5    1    5    5    0  502  0.43375025367E+01  0.45715990305E+02  0.24078974884E+03  0.24517454771E+03  0.47000000000E+01 0.  1.
         15    1    6    6    0    0  0.31973095635E+02 -0.98414362279E+02  0.32504069286E+03  0.34111915116E+03  0.17770000000E+01 0. -1.
        -16    1    6    6    0    0 -0.24976637995E+02 -0.48245507451E+01  0.43095309030E+02  0.50043125360E+02  0.00000000000E+00 0.  1.
<mgrwt>
<rscale>  2 0.18420032E+03</rscale>
<asrwt>0</asrwt>
<pdfrwt beam="1">  1       21 0.10609337E+00 0.18475385E+03</pdfrwt>
<pdfrwt beam="2">  1       21 0.21245466E-01 0.18475385E+03</pdfrwt>
<totfact> 0.14766766E+04</totfact>
</mgrwt>
</event>
<event>
12    2  0.4097182E-002  0.1832639E+03  0.7546771E-02  0.1165110E+00
         21   -1    0    0  503  502  0.00000000000E+00  0.00000000000E+00  0.15464363449E+03  0.15464363449E+03  0.00000000000E+00 0.  1.
         21   -1    0    0  501  503 -0.00000000000E+00 -0.00000000000E+00 -0.31919801744E+03  0.31919801744E+03  0.00000000000E+00 0.  1.
          6    2    1    2  501    0 -0.43667552815E+02  0.30892080963E+02 -0.21788490324E+03  0.28470951087E+03  0.17528405142E+03 0.  0.
         24    2    3    3    0    0 -0.52410129586E+02 -0.45046223078E+02 -0.13306208372E+03  0.17042889405E+03  0.81021638502E+02 0.  0.
         -6    2    1    2    0  502  0.43667552815E+02 -0.30892080963E+02  0.53330520290E+02  0.18913214106E+03  0.17339448247E+03 0.  0.
        -24    2    5    5    0    0 -0.32022261963E+02  0.40765358693E+01 -0.51794396847E+01  0.87165197194E+02  0.80801618799E+02 0.  0.
          5    1    3    3  501    0  0.87425767713E+01  0.75938304040E+02 -0.84822819523E+02  0.11428061682E+03  0.47000000000E+01 0. -1.
        -15    1    4    4    0    0 -0.43531397494E+02  0.77179830317E+01 -0.94900651616E+02  0.10470836278E+03  0.17770000000E+01 0.  1.
         16    1    4    4    0    0 -0.88787320924E+01 -0.52764206109E+02 -0.38161432104E+02  0.65720531268E+02  0.00000000000E+00 0. -1.
         -5    1    5    5    0  502  0.75689814778E+02 -0.34968616832E+02  0.58509959974E+02  0.10196694386E+03  0.47000000000E+01 0.  1.
         15    1    6    6    0    0 -0.40397093756E+02 -0.20385183822E+02  0.21398741204E+02  0.50085374687E+02  0.17770000000E+01 0. -1.
        -16    1    6    6    0    0  0.83748317926E+01  0.24461719692E+02 -0.26578180889E+02  0.37079822507E+02  0.00000000000E+00 0.  1.
<mgrwt>
<rscale>  2 0.18281066E+03</rscale>
<asrwt>0</asrwt>
<pdfrwt beam="1">  1       21 0.23791328E-01 0.18326395E+03</pdfrwt>
<pdfrwt beam="2">  1       21 0.49107387E-01 0.18326395E+03</pdfrwt>
<totfact> 0.66118999E+04</totfact>
</mgrwt>
</event>
<event>
12    2  0.4097182E-002  0.1924639E+03  0.7546771E-02  0.1156338E+00
         21   -1    0    0  501  502  0.00000000000E+00  0.00000000000E+00  0.47000837371E+03  0.47000837371E+03  0.00000000000E+00 0. -1.
         21   -1    0    0  502  503 -0.00000000000E+00 -0.00000000000E+00 -0.18793595311E+03  0.18793595311E+03  0.00000000000E+00 0.  1.
         -6    2    1    2    0  503 -0.81519531874E+02 -0.73074717505E+01 -0.10986532195E+03  0.22130084453E+03  0.17379540156E+03 0.  0.
        -24    2    3    3    0    0 -0.24070568256E+02  0.51258958251E+02 -0.96300771809E+02  0.13801520853E+03  0.81040027628E+02 0.  0.
          6    2    1    2  501    0  0.81519531874E+02  0.73074717505E+01  0.39193774255E+03  0.43664348229E+03  0.17419386721E+03 0.  0.
         24    2    5    5    0    0  0.85061833126E+02  0.44747045286E+02  0.37368141743E+03  0.39457623884E+03  0.82551759579E+02 0.  0.
          5    1    5    5  501    0 -0.35423012516E+01 -0.37439573535E+02  0.18256325122E+02  0.42067243451E+02  0.47000000000E+01 0. -1.
        -15    1    6    6    0    0  0.18708013202E+02  0.44642710743E+02  0.80238374040E+02  0.93724680730E+02  0.17770000000E+01 0.  1.
         16    1    6    6    0    0  0.66353819923E+02  0.10433454285E+00  0.29344304339E+03  0.30085155811E+03  0.00000000000E+00 0. -1.
         -5    1    3    3    0  503 -0.57448963618E+02 -0.58566430002E+02 -0.13564550138E+02  0.83285636002E+02  0.47000000000E+01 0.  1.
         15    1    4    4    0    0 -0.40082716764E+02  0.28547211068E+02 -0.14064442427E+02  0.51210679675E+02  0.17770000000E+01 0. -1.
        -16    1    4    4    0    0  0.16012148508E+02  0.22711747183E+02 -0.82236329381E+02  0.86804528857E+02  0.00000000000E+00 0.  1.
<mgrwt>
<rscale>  2 0.19237365E+03</rscale>
<asrwt>0</asrwt>
<pdfrwt beam="1">  1       21 0.72308980E-01 0.19246386E+03</pdfrwt>
<pdfrwt beam="2">  1       21 0.28913224E-01 0.19246386E+03</pdfrwt>
<totfact> 0.19748414E+04</totfact>
</mgrwt>
</event>
<event>
12    2  0.4097182E-002  0.2769938E+03  0.7546771E-02  0.1097600E+00
         21   -1    0    0  501  502  0.00000000000E+00  0.00000000000E+00  0.30463741276E+03  0.30463741276E+03  0.00000000000E+00 0.  1.
         21   -1    0    0  502  503 -0.00000000000E+00 -0.00000000000E+00 -0.32012390068E+03  0.32012390068E+03  0.00000000000E+00 0.  1.
         -6    2    1    2    0  503 -0.73735020242E+02 -0.20173393264E+03 -0.15374302310E+03  0.31518025870E+03  0.17195419603E+03 0.  0.
        -24    2    3    3    0    0 -0.32817896412E+02 -0.23469127744E+02 -0.31658597263E+02  0.95227425753E+02  0.80238279847E+02 0.  0.
          6    2    1    2  501    0  0.73735020242E+02  0.20173393264E+03  0.13825653518E+03  0.30958105474E+03  0.17490605234E+03 0.  0.
         24    2    5    5    0    0  0.90869066560E+02  0.18031936167E+03  0.16369787912E+03  0.27187811885E+03  0.79677201424E+02 0.  0.
          5    1    5    5  501    0 -0.17134046318E+02  0.21414570971E+02 -0.25441343946E+02  0.37702935892E+02  0.47000000000E+01 0. -1.
        -15    1    6    6    0    0  0.11575752440E+02  0.88439530699E+02  0.37442919049E+02  0.96750599744E+02  0.17770000000E+01 0.  1.
         16    1    6    6    0    0  0.79293314120E+02  0.91879830972E+02  0.12625496007E+03  0.17512751910E+03  0.00000000000E+00 0. -1.
         -5    1    3    3    0  503 -0.40917123829E+02 -0.17826480490E+03 -0.12208442584E+03  0.21995283294E+03  0.47000000000E+01 0.  1.
         15    1    4    4    0    0  0.11769949447E+02 -0.25489771288E+02  0.13960235748E+02  0.31405510050E+02  0.17770000000E+01 0. -1.
        -16    1    4    4    0    0 -0.44587845860E+02  0.20206435448E+01 -0.45618833011E+02  0.63821915703E+02  0.00000000000E+00 0.  1.
<mgrwt>
<rscale>  2 0.27652902E+03</rscale>
<asrwt>0</asrwt>
<pdfrwt beam="1">  1       21 0.46867294E-01 0.27699379E+03</pdfrwt>
<pdfrwt beam="2">  1       21 0.49249831E-01 0.27699379E+03</pdfrwt>
<totfact> 0.16379172E+04</totfact>
</mgrwt>
</event>
<event>
12    2  0.4097182E-002  0.1891429E+03  0.7546771E-02  0.1161215E+00
         21   -1    0    0  501  502  0.00000000000E+00  0.00000000000E+00  0.51934976556E+03  0.51934976556E+03  0.00000000000E+00 0. -1.
         21   -1    0    0  502  503 -0.00000000000E+00 -0.00000000000E+00 -0.24148738748E+03  0.24148738748E+03  0.00000000000E+00 0. -1.
         -6    2    1    2    0  503 -0.56231720572E+02  0.44493011706E+02 -0.18463317763E+03  0.26431884988E+03  0.17502402587E+03 0.  0.
        -24    2    3    3    0    0 -0.97920210415E+01 -0.81058328060E-03 -0.18508891147E+03  0.19983130373E+03  0.74691104725E+02 0.  0.
          6    2    1    2  501    0  0.56231720572E+02 -0.44493011706E+02  0.46249555570E+03  0.49651830317E+03  0.16579098842E+03 0.  0.
         24    2    5    5    0    0  0.10105905223E+02 -0.46961833667E+02  0.12630369929E+03  0.15713542168E+03  0.80195842484E+02 0.  0.
          5    1    5    5  501    0  0.46125815349E+02  0.24688219608E+01  0.33619185641E+03  0.33938288148E+03  0.47000000000E+01 0. -1.
        -15    1    6    6    0    0 -0.29037939984E+02 -0.74532143966E+00  0.21844922613E+02  0.36388402487E+02  0.17770000000E+01 0.  1.
         16    1    6    6    0    0  0.39143845207E+02 -0.46216512227E+02  0.10445877668E+03  0.12074701920E+03  0.00000000000E+00 0. -1.
         -5    1    3    3    0  503 -0.46439699530E+02  0.44493822289E+02  0.45573384492E+00  0.64487546144E+02  0.47000000000E+01 0.  1.
         15    1    4    4    0    0  0.52509626534E+01  0.26056999159E+02 -0.15502499341E+03  0.15729731760E+03  0.17770000000E+01 0. -1.
        -16    1    4    4    0    0 -0.15042983695E+02 -0.26057809742E+02 -0.30063918063E+02  0.42533986132E+02  0.00000000000E+00 0.  1.
<mgrwt>
<rscale>  2 0.18697858E+03</rscale>
<asrwt>0</asrwt>
<pdfrwt beam="1">  1       21 0.79899964E-01 0.18914292E+03</pdfrwt>
<pdfrwt beam="2">  1       21 0.37151906E-01 0.18914292E+03</pdfrwt>
<totfact> 0.96610977E+03</totfact>
</mgrwt>
</event>
<event>
12    2  0.4097182E-002  0.2257157E+03  0.7546771E-02  0.1129849E+00
         21   -1    0    0  501  502  0.00000000000E+00  0.00000000000E+00  0.86714091694E+03  0.86714091694E+03  0.00000000000E+00 0. -1.
         21   -1    0    0  502  503 -0.00000000000E+00 -0.00000000000E+00 -0.59029412678E+02  0.59029412678E+02  0.00000000000E+00 0. -1.
         -6    2    1    2    0  503 -0.11372082300E+03 -0.89343022752E+02  0.44749742568E+03  0.50120008299E+03  0.17330024784E+03 0.  0.
        -24    2    3    3    0    0 -0.55651023568E+02 -0.51548444079E+02  0.11199179621E+03  0.15858273201E+03  0.82777061821E+02 0.  0.
          6    2    1    2  501    0  0.11372082300E+03  0.89343022752E+02  0.36061407858E+03  0.42497024663E+03  0.17217025164E+03 0.  0.
         24    2    5    5    0    0  0.41112330519E+02 -0.24156298608E+01  0.24085432793E+03  0.25747060070E+03  0.81143354341E+02 0.  0.
          5    1    5    5  501    0  0.72608492483E+02  0.91758652613E+02  0.11975975066E+03  0.16749964593E+03  0.47000000000E+01 0. -1.
        -15    1    6    6    0    0 -0.13126318466E+02  0.23829651822E+02  0.45583156892E+02  0.53114352709E+02  0.17770000000E+01 0.  1.
         16    1    6    6    0    0  0.54238648985E+02 -0.26245281683E+02  0.19527117104E+03  0.20435624799E+03  0.00000000000E+00 0. -1.
         -5    1    3    3    0  503 -0.58069799434E+02 -0.37794578673E+02  0.33550562947E+03  0.34261735098E+03  0.47000000000E+01 0.  1.
         15    1    4    4    0    0 -0.74386478736E+02 -0.55585317181E+02  0.88814037506E+02  0.12850745773E+03  0.17770000000E+01 0. -1.
        -16    1    4    4    0    0  0.18735455168E+02  0.40368731026E+01  0.23177758700E+02  0.30075274282E+02  0.00000000000E+00 0.  1.
<mgrwt>
<rscale>  2 0.22549878E+03</rscale>
<asrwt>0</asrwt>
<pdfrwt beam="1">  1       21 0.13340629E+00 0.22571570E+03</pdfrwt>
<pdfrwt beam="2">  1       21 0.90814487E-02 0.22571570E+03</pdfrwt>
<totfact> 0.38221734E+04</totfact>
</mgrwt>
</event>
<event>
12    2  0.4097182E-002  0.2286395E+03  0.7546771E-02  0.1128923E+00
         21   -1    0    0  501  502  0.00000000000E+00  0.00000000000E+00  0.27797408602E+02  0.27797408602E+02  0.00000000000E+00 0. -1.
         21   -1    0    0  502  503 -0.00000000000E+00 -0.00000000000E+00 -0.18901436123E+04  0.18901436123E+04  0.00000000000E+00 0. -1.
         -6    2    1    2    0  503 -0.13460206654E+03  0.21759127509E+02 -0.73291547070E+03  0.76560001597E+03  0.17431902168E+03 0.  0.
        -24    2    3    3    0    0 -0.14240186948E+03 -0.29635339253E+02 -0.60453479834E+03  0.62701460846E+03  0.80798830806E+02 0.  0.
          6    2    1    2  501    0  0.13460206654E+03 -0.21759127509E+02 -0.11294307330E+04  0.11523410050E+04  0.18353428848E+03 0.  0.
         24    2    5    5    0    0  0.13064296385E+03 -0.59465920662E+02 -0.61927447369E+03  0.64075623614E+03  0.80398387207E+02 0.  0.
          5    1    5    5  501    0  0.39591026979E+01  0.37706793153E+02 -0.51015625933E+03  0.51158476881E+03  0.47000000000E+01 0. -1.
        -15    1    6    6    0    0  0.18195272333E+02  0.83601636542E+01 -0.24670433040E+02  0.31823706054E+02  0.17770000000E+01 0.  1.
         16    1    6    6    0    0  0.11244769151E+03 -0.67826084316E+02 -0.59460404065E+03  0.60893253009E+03  0.00000000000E+00 0. -1.
         -5    1    3    3    0  503  0.77998029316E+01  0.51394466762E+02 -0.12838067236E+03  0.13858540751E+03  0.47000000000E+01 0.  1.
         15    1    4    4    0    0  0.60193663073E+01 -0.66181540985E+01 -0.89320313010E+01  0.12766034881E+02  0.17770000000E+01 0. -1.
        -16    1    4    4    0    0 -0.14842123578E+03 -0.23017185154E+02 -0.59560276703E+03  0.61424857358E+03  0.00000000000E+00 0.  1.
<mgrwt>
<rscale>  2 0.22678476E+03</rscale>
<asrwt>0</asrwt>
<pdfrwt beam="1">  1       21 0.42765232E-02 0.22863948E+03</pdfrwt>
<pdfrwt beam="2">  1       21 0.29079140E+00 0.22863948E+03</pdfrwt>
<totfact> 0.13049741E+04</totfact>
</mgrwt>
</event>
<event>
12    2  0.4097182E-002  0.2624730E+03  0.7546771E-02  0.1105868E+00
         21   -1    0    0  501  502  0.00000000000E+00  0.00000000000E+00  0.58702820665E+03  0.58702820665E+03  0.00000000000E+00 0.  1.
         21   -1    0    0  502  503 -0.00000000000E+00 -0.00000000000E+00 -0.36557298660E+03  0.36557298660E+03  0.00000000000E+00 0. -1.
         -6    2    1    2    0  503  0.83240001182E+02  0.17729504072E+03 -0.28212945789E+03  0.38534281063E+03  0.17472727731E+03 0.  0.
        -24    2    3    3    0    0  0.97600245090E+02  0.88040340180E+02 -0.24005533672E+03  0.28551826533E+03  0.81346209541E+02 0.  0.
          6    2    1    2  501    0 -0.83240001182E+02 -0.17729504072E+03  0.50358467795E+03  0.56725838262E+03  0.17269080903E+03 0.  0.
         24    2    5    5    0    0 -0.57172158226E+02 -0.78257957677E+02  0.40685061247E+03  0.42630645578E+03  0.82563973753E+02 0.  0.
          5    1    5    5  501    0 -0.26067842956E+02 -0.99037083040E+02  0.96734065482E+02  0.14095192683E+03  0.47000000000E+01 0. -1.
        -15    1    6    6    0    0 -0.53994806355E+02 -0.53338456772E+01  0.17866891440E+03  0.18673410970E+03  0.17770000000E+01 0.  1.
         16    1    6    6    0    0 -0.31773518708E+01 -0.72924112000E+02  0.22818169806E+03  0.23957234608E+03  0.00000000000E+00 0. -1.
         -5    1    3    3    0  503 -0.14360243908E+02  0.89254700537E+02 -0.42074121170E+02  0.99824545305E+02  0.47000000000E+01 0.  1.
         15    1    4    4    0    0  0.69283703299E+02  0.12252256495E+02 -0.82797380819E+02  0.10866882410E+03  0.17770000000E+01 0. -1.
        -16    1    4    4    0    0  0.28316541791E+02  0.75788083685E+02 -0.15725795590E+03  0.17684944123E+03  0.00000000000E+00 0.  1.
<mgrwt>
<rscale>  2 0.26213449E+03</rscale>
<asrwt>0</asrwt>
<pdfrwt beam="1">  1       21 0.90312032E-01 0.26247295E+03</pdfrwt>
<pdfrwt beam="2">  1       21 0.56241998E-01 0.26247295E+03</pdfrwt>
<totfact> 0.29429742E+03</totfact>
</mgrwt>
</event>
<event>
12    2  0.4097182E-002  0.1882167E+03  0.7546771E-02  0.1160218E+00
         21   -1    0    0  503  502  0.00000000000E+00  0.00000000000E+00  0.43464594902E+03  0.43464594902E+03  0.00000000000E+00 0.  1.
         21   -1    0    0  501  503 -0.00000000000E+00 -0.00000000000E+00 -0.20113372813E+03  0.20113372813E+03  0.00000000000E+00 0.  1.
          6    2    1    2  501    0  0.74894103017E+02 -0.93859921857E+01 -0.12875048439E+03  0.22753981564E+03  0.17175697062E+03 0.  0.
         24    2    3    3    0    0  0.57868327281E+01  0.21037370381E-01 -0.13545585701E+03  0.15731617978E+03  0.79790997899E+02 0.  0.
         -6    2    1    2    0  502 -0.74894103017E+02  0.93859921857E+01  0.36226270527E+03  0.40823986151E+03  0.17241894727E+03 0.  0.
        -24    2    5    5    0    0 -0.40319548234E+02 -0.59295653635E+02  0.24822391752E+03  0.27061899309E+03  0.80485313471E+02 0.  0.
          5    1    3    3  501    0  0.69107270289E+02 -0.94070295561E+01  0.67053726221E+01  0.70223635863E+02  0.47000000000E+01 0. -1.
        -15    1    4    4    0    0 -0.26206688691E+02 -0.20108951549E+02 -0.10059838800E+03  0.10589784635E+03  0.17770000000E+01 0.  1.
         16    1    4    4    0    0  0.31993521419E+02  0.20129988919E+02 -0.34857469016E+02  0.51418333431E+02  0.00000000000E+00 0. -1.
         -5    1    5    5    0  502 -0.34574554783E+02  0.68681645821E+02  0.11403878775E+03  0.13762086842E+03  0.47000000000E+01 0.  1.
         15    1    6    6    0    0  0.12175489100E+02  0.13356194681E+02  0.41354796525E+02  0.45166441036E+02  0.17770000000E+01 0. -1.
        -16    1    6    6    0    0 -0.52495037334E+02 -0.72651848316E+02  0.20686912100E+03  0.22545255206E+03  0.00000000000E+00 0.  1.
<mgrwt>
<rscale>  2 0.18806494E+03</rscale>
<asrwt>0</asrwt>
<pdfrwt beam="1">  1       21 0.66868607E-01 0.18821668E+03</pdfrwt>
<pdfrwt beam="2">  1       21 0.30943651E-01 0.18821668E+03</pdfrwt>
<totfact> 0.20605506E+04</totfact>
</mgrwt>
</event>
<event>
12    2  0.4097182E-002  0.1908391E+03  0.7546771E-02  0.1157720E+00
         21   -1    0    0  501  502  0.00000000000E+00  0.00000000000E+00  0.66157127585E+02  0.66157127585E+02  0.00000000000E+00 0. -1.
         21   -1    0    0  502  503 -0.00000000000E+00 -0.00000000000E+00 -0.57879186505E+03  0.57879186505E+03  0.00000000000E+00 0.  1.
         -6    2    1    2    0  503  0.72596357092E+02 -0.36773811365E+02 -0.32786155611E+03  0.37935834222E+03  0.17261809747E+03 0.  0.
        -24    2    3    3    0    0 -0.61388018765E+01 -0.70476133239E+02 -0.19842119925E+03  0.22407805454E+03  0.76389999156E+02 0.  0.
          6    2    1    2  501    0 -0.72596357092E+02  0.36773811365E+02 -0.18477318135E+03  0.26559065041E+03  0.17255353017E+03 0.  0.
         24    2    5    5    0    0 -0.10464666525E+03  0.15169412470E+02 -0.18021397509E+03  0.22638798894E+03  0.87140169247E+02 0.  0.
          5    1    5    5  501    0  0.32050308156E+02  0.21604398895E+02 -0.45592062589E+01  0.39202661468E+02  0.47000000000E+01 0. -1.
        -15    1    6    6    0    0 -0.97928344629E+01  0.73628941877E+01 -0.10324693624E+03  0.10398653465E+03  0.17770000000E+01 0.  1.
         16    1    6    6    0    0 -0.94853830785E+02  0.78065182821E+01 -0.76967038859E+02  0.12240145429E+03  0.00000000000E+00 0. -1.
         -5    1    3    3    0  503  0.78735158969E+02  0.33702321874E+02 -0.12944035686E+03  0.15528028768E+03  0.47000000000E+01 0.  1.
         15    1    4    4    0    0 -0.18081598893E+02 -0.45220779689E+02 -0.39532960935E+02  0.62752496870E+02  0.17770000000E+01 0. -1.
        -16    1    4    4    0    0  0.11942797017E+02 -0.25255353550E+02 -0.15888823831E+03  0.16132555767E+03  0.00000000000E+00 0.  1.
<mgrwt>
<rscale>  2 0.19082447E+03</rscale>
<asrwt>0</asrwt>
<pdfrwt beam="1">  1       21 0.10178020E-01 0.19083907E+03</pdfrwt>
<pdfrwt beam="2">  1       21 0.89044900E-01 0.19083907E+03</pdfrwt>
<totfact> 0.84762535E+04</totfact>
</mgrwt>
</event>
<event>
12    2  0.4097182E-002  0.1808181E+03  0.7546771E-02  0.1167071E+00
         21   -1    0    0  503  502  0.00000000000E+00  0.00000000000E+00  0.13617903388E+03  0.13617903388E+03  0.00000000000E+00 0.  1.
         21   -1    0    0  501  503 -0.00000000000E+00 -0.00000000000E+00 -0.25157950021E+03  0.25157950021E+03  0.00000000000E+00 0.  1.
          6    2    1    2  501    0  0.25658904624E+02  0.44633524154E+02 -0.99736913205E+02  0.20650091840E+03  0.17333391641E+03 0.  0.
         24    2    3    3    0    0 -0.23692340141E+02 -0.24224685753E+02 -0.17474222184E+02  0.88322076104E+02  0.79669807990E+02 0.  0.
         -6    2    1    2    0  502 -0.25658904624E+02 -0.44633524154E+02 -0.15663553128E+02  0.18125761569E+03  0.17308508164E+03 0.  0.
        -24    2    5    5    0    0  0.34781062328E+02 -0.74231092449E+01  0.33514292941E+02  0.94781288720E+02  0.81212437549E+02 0.  0.
          5    1    3    3  501    0  0.49351244765E+02  0.68858209907E+02 -0.82262691021E+02  0.11817884229E+03  0.47000000000E+01 0. -1.
        -15    1    4    4    0    0  0.22597420136E+02  0.11241621056E+01 -0.26381036248E+02  0.34799769249E+02  0.17770000000E+01 0.  1.
         16    1    4    4    0    0 -0.46289760278E+02 -0.25348847858E+02  0.89068140642E+01  0.53522306855E+02  0.00000000000E+00 0. -1.
         -5    1    5    5    0  502 -0.60439966951E+02 -0.37210414909E+02 -0.49177846069E+02  0.86476326973E+02  0.47000000000E+01 0.  1.
         15    1    6    6    0    0  0.50280250322E+02 -0.31594958993E+02  0.17649411251E+02  0.61975837653E+02  0.17770000000E+01 0. -1.
        -16    1    6    6    0    0 -0.15499187995E+02  0.24171849748E+02  0.15864881690E+02  0.32805451068E+02  0.00000000000E+00 0.  1.
<mgrwt>
<rscale>  2 0.18075842E+03</rscale>
<asrwt>0</asrwt>
<pdfrwt beam="1">  1       21 0.20950621E-01 0.18081808E+03</pdfrwt>
<pdfrwt beam="2">  1       21 0.38704538E-01 0.18081808E+03</pdfrwt>
<totfact> 0.13674866E+05</totfact>
</mgrwt>
</event>
<event>
12    2  0.4097182E-002  0.2012584E+03  0.7546771E-02  0.1149273E+00
         21   -1    0    0  503  502  0.00000000000E+00  0.00000000000E+00  0.91591038396E+03  0.91591038396E+03  0.00000000000E+00 0. -1.
         21   -1    0    0  501  503 -0.00000000000E+00 -0.00000000000E+00 -0.65519947297E+02  0.65519947297E+02  0.00000000000E+00 0. -1.
          6    2    1    2  501    0 -0.71090222434E+02 -0.71551727261E+02  0.14341332119E+03  0.24712814916E+03  0.17415932938E+03 0.  0.
         24    2    3    3    0    0  0.32236294681E+02 -0.21087104096E+02  0.26002883303E+02  0.82719061037E+02  0.68428418547E+02 0.  0.
         -6    2    1    2    0  502  0.71090222434E+02  0.71551727261E+02  0.70697711547E+03  0.73430218210E+03  0.17090811402E+03 0.  0.
        -24    2    5    5    0    0  0.20115547657E+02 -0.22011340226E+02  0.40619423135E+03  0.41517070693E+03  0.80522220242E+02 0.  0.
          5    1    3    3  501    0 -0.10332651712E+03 -0.50464623165E+02  0.11741043789E+03  0.16440908812E+03  0.47000000000E+01 0. -1.
        -15    1    4    4    0    0  0.13307741940E+02 -0.19560718459E+00  0.46153242290E+02  0.48066763575E+02  0.17770000000E+01 0.  1.
         16    1    4    4    0    0  0.18928552741E+02 -0.20891496911E+02 -0.20150358987E+02  0.34652297462E+02  0.00000000000E+00 0. -1.
         -5    1    5    5    0  502  0.50974674777E+02  0.93563067488E+02  0.30078288412E+03  0.31913147517E+03  0.47000000000E+01 0.  1.
         15    1    6    6    0    0  0.33782352595E+02  0.92254069360E+01  0.81920083620E+02  0.89108996792E+02  0.17770000000E+01 0. -1.
        -16    1    6    6    0    0 -0.13666804938E+02 -0.31236747162E+02  0.32427414773E+03  0.32606171014E+03  0.00000000000E+00 0.  1.
<mgrwt>
<rscale>  2 0.20055301E+03</rscale>
<asrwt>0</asrwt>
<pdfrwt beam="1">  1       21 0.14090928E+00 0.20125839E+03</pdfrwt>
<pdfrwt beam="2">  1       21 0.10079993E-01 0.20125839E+03</pdfrwt>
<totfact> 0.28003986E+04</totfact>
</mgrwt>
</event>
<event>
12    2  0.4097182E-002  0.2534746E+03  0.7546771E-02  0.1111134E+00
         21   -1    0    0  503  502  0.00000000000E+00  0.00000000000E+00  0.10800578297E+04  0.10800578297E+04  0.00000000000E+00 0.  1.
         21   -1    0    0  501  503 -0.00000000000E+00 -0.00000000000E+00 -0.77663617436E+02  0.77663617436E+02  0.00000000000E+00 0.  1.
          6    2    1    2  501    0 -0.12789347646E+03 -0.13399685153E+03  0.22106890694E+03  0.33630888214E+03  0.17297486825E+03 0.  0.
         24    2    3    3    0    0 -0.46794054203E+02 -0.10270383673E+03  0.55165281313E+02  0.14895234485E+03  0.80036436621E+02 0.  0.
         -6    2    1    2    0  502  0.12789347646E+03  0.13399685153E+03  0.78132530537E+03  0.82141256505E+03  0.17302448286E+03 0.  0.
        -24    2    5    5    0    0  0.13182120202E+03  0.16223089188E+03  0.70165707896E+03  0.73666762797E+03  0.81614006458E+02 0.  0.
          5    1    3    3  501    0 -0.81099422255E+02 -0.31293014803E+02  0.16590362563E+03  0.18735653728E+03  0.47000000000E+01 0. -1.
        -15    1    4    4    0    0 -0.25269339898E+02 -0.44187735721E+02  0.68333586825E+02  0.85227532784E+02  0.17770000000E+01 0.  1.
         16    1    4    4    0    0 -0.21524714306E+02 -0.58516101008E+02 -0.13168305512E+02  0.63724812069E+02  0.00000000000E+00 0. -1.
         -5    1    5    5    0  502 -0.39277255584E+01 -0.28234040350E+02  0.79668226402E+02  0.84744937080E+02  0.47000000000E+01 0.  1.
         15    1    6    6    0    0 -0.74219063564E+01  0.12088681718E+02  0.10233234447E+03  0.10332612145E+03  0.17770000000E+01 0. -1.
        -16    1    6    6    0    0  0.13924310837E+03  0.15014221017E+03  0.59932473449E+03  0.63334150652E+03  0.00000000000E+00 0.  1.
<mgrwt>
<rscale>  2 0.25346613E+03</rscale>
<asrwt>0</asrwt>
<pdfrwt beam="1">  1       21 0.16616273E+00 0.25347459E+03</pdfrwt>
<pdfrwt beam="2">  1       21 0.11948250E-01 0.25347459E+03</pdfrwt>
<totfact> 0.12895006E+04</totfact>
</mgrwt>
</event>
<event>
12    2  0.4097182E-002  0.2181016E+03  0.7546771E-02  0.1135605E+00
         21   -1    0    0  501  502  0.00000000000E+00  0.00000000000E+00  0.10939693332E+03  0.10939693332E+03  0.00000000000E+00 0.  1.
         21   -1    0    0  502  503 -0.00000000000E+00 -0.00000000000E+00 -0.49115359548E+03  0.49115359548E+03  0.00000000000E+00 0. -1.
         -6    2    1    2    0  503 -0.12793964084E+03 -0.24415676798E+02 -0.29475393046E+03  0.36573617827E+03  0.17296934874E+03 0.  0.
        -24    2    3    3    0    0 -0.14014877769E+03  0.25180129879E+02 -0.21365901668E+03  0.26978159473E+03  0.82802262151E+02 0.  0.
          6    2    1    2  501    0  0.12793964084E+03  0.24415676798E+02 -0.87002731712E+02  0.23481435053E+03  0.17493892340E+03 0.  0.
         24    2    5    5    0    0  0.13273117800E+03  0.88124687068E+01 -0.95767281641E+01  0.15554711293E+03  0.80049768280E+02 0.  0.
          5    1    5    5  501    0 -0.47915371608E+01  0.15603208091E+02 -0.77426003548E+02  0.79267237599E+02  0.47000000000E+01 0. -1.
        -15    1    6    6    0    0  0.19482090751E+02  0.33318552510E+02 -0.90174587341E+01  0.39675560392E+02  0.17770000000E+01 0.  1.
         16    1    6    6    0    0  0.11324908725E+03 -0.24506083803E+02 -0.55926942996E+00  0.11587155254E+03  0.00000000000E+00 0. -1.
         -5    1    3    3    0  503  0.12209136848E+02 -0.49595806677E+02 -0.81094913773E+02  0.95954583540E+02  0.47000000000E+01 0.  1.
         15    1    4    4    0    0 -0.13033330620E+03  0.15493628441E+02 -0.12911871022E+03  0.18412393187E+03  0.17770000000E+01 0. -1.
        -16    1    4    4    0    0 -0.98154714848E+01  0.96865014384E+01 -0.84540306463E+02  0.85657662864E+02  0.00000000000E+00 0.  1.
<mgrwt>
<rscale>  2 0.21770637E+03</rscale>
<asrwt>0</asrwt>
<pdfrwt beam="1">  1       21 0.16830297E-01 0.21810159E+03</pdfrwt>
<pdfrwt beam="2">  1       21 0.75562092E-01 0.21810159E+03</pdfrwt>
<totfact> 0.49076445E+04</totfact>
</mgrwt>
</event>
<event>
12    2  0.4097182E-002  0.1984241E+03  0.7546771E-02  0.1151278E+00
         21   -1    0    0  503  502  0.00000000000E+00  0.00000000000E+00  0.11907339790E+04  0.11907339790E+04  0.00000000000E+00 0. -1.
         21   -1    0    0  501  503 -0.00000000000E+00 -0.00000000000E+00 -0.34148651114E+02  0.34148651114E+02  0.00000000000E+00 0. -1.
          6    2    1    2  501    0 -0.65252450476E+02  0.67919411669E+02  0.46020084719E+03  0.50078080495E+03  0.17356746839E+03 0.  0.
         24    2    3    3    0    0 -0.66906390890E+01 -0.20894060246E+02  0.95181902439E+02  0.12054635284E+03  0.70643486800E+02 0.  0.
         -6    2    1    2    0  502  0.65252450476E+02 -0.67919411669E+02  0.69638448065E+03  0.72410182511E+03  0.17464586873E+03 0.  0.
        -24    2    5    5    0    0  0.31466798182E+02 -0.77473843768E+02  0.66999565872E+03  0.67992923863E+03  0.80107621259E+02 0.  0.
          5    1    3    3  501    0 -0.58561811387E+02  0.88813471915E+02  0.36501894475E+03  0.38023445211E+03  0.47000000000E+01 0. -1.
        -15    1    4    4    0    0 -0.26723761352E+02 -0.33646739235E+02  0.33695868977E+02  0.54633614168E+02  0.17770000000E+01 0.  1.
         16    1    4    4    0    0  0.20033122263E+02  0.12752678988E+02  0.61486033463E+02  0.65912738677E+02  0.00000000000E+00 0. -1.
         -5    1    5    5    0  502  0.33785652295E+02  0.95544320997E+01  0.26388821935E+02  0.44172586486E+02  0.47000000000E+01 0.  1.
         15    1    6    6    0    0  0.92291704214E+01 -0.87528091094E+02  0.44575221466E+03  0.45436168294E+03  0.17770000000E+01 0. -1.
        -16    1    6    6    0    0  0.22237627760E+02  0.10054247325E+02  0.22424344406E+03  0.22556755569E+03  0.00000000000E+00 0.  1.
<mgrwt>
<rscale>  2 0.19818651E+03</rscale>
<asrwt>0</asrwt>
<pdfrwt beam="1">  1       21 0.18318981E+00 0.19842406E+03</pdfrwt>
<pdfrwt beam="2">  1       21 0.52536395E-02 0.19842406E+03</pdfrwt>
<totfact> 0.42660947E+04</totfact>
</mgrwt>
</event>
<event>
12    2  0.4097182E-002  0.1740213E+03  0.7546771E-02  0.1174180E+00
         21   -1    0    0  503  502  0.00000000000E+00  0.00000000000E+00  0.35352005370E+03  0.35352005370E+03  0.00000000000E+00 0. -1.
         21   -1    0    0  501  503 -0.00000000000E+00 -0.00000000000E+00 -0.84882670978E+02  0.84882670978E+02  0.00000000000E+00 0. -1.
          6    2    1    2  501    0 -0.80754862460E+01 -0.90943482672E+01  0.12708370547E+03  0.21548476518E+03  0.17359578100E+03 0.  0.
         24    2    3    3    0    0  0.43372374652E+02 -0.20987497085E+02  0.10758204412E+02  0.87648770343E+02  0.72421889395E+02 0.  0.
         -6    2    1    2    0  502  0.80754862460E+01  0.90943482672E+01  0.14155367726E+03  0.22291795950E+03  0.17177616970E+03 0.  0.
        -24    2    5    5    0    0  0.37930887822E+02 -0.46968408336E+02  0.11809881123E+03  0.15504603289E+03  0.80294205706E+02 0.  0.
          5    1    3    3  501    0 -0.51447860898E+02  0.11893148818E+02  0.11632550105E+03  0.12783599483E+03  0.47000000000E+01 0. -1.
        -15    1    4    4    0    0  0.45792319126E+01  0.20112012393E+02 -0.14973518832E+02  0.25550467757E+02  0.17770000000E+01 0.  1.
         16    1    4    4    0    0  0.38793142739E+02 -0.41099509478E+02  0.25731723244E+02  0.62098302585E+02  0.00000000000E+00 0. -1.
         -5    1    5    5    0  502 -0.29855401576E+02  0.56062756603E+02  0.23454866030E+02  0.67871926609E+02  0.47000000000E+01 0.  1.
         15    1    6    6    0    0  0.34858588641E+01  0.21584497035E+02  0.15171423035E+02  0.26671549078E+02  0.17770000000E+01 0. -1.
        -16    1    6    6    0    0  0.34445028958E+02 -0.68552905372E+02  0.10292738819E+03  0.12837448381E+03  0.00000000000E+00 0.  1.
<mgrwt>
<rscale>  2 0.17356574E+03</rscale>
<asrwt>0</asrwt>
<pdfrwt beam="1">  1       21 0.54387700E-01 0.17402131E+03</pdfrwt>
<pdfrwt beam="2">  1       21 0.13058873E-01 0.17402131E+03</pdfrwt>
<totfact> 0.16199779E+05</totfact>
</mgrwt>
</event>
<event>
12    2  0.4097182E-002  0.2136186E+03  0.7546771E-02  0.1138764E+00
         21   -1    0    0  503  502  0.00000000000E+00  0.00000000000E+00  0.66069159285E+03  0.66069159285E+03  0.00000000000E+00 0.  1.
         21   -1    0    0  501  503 -0.00000000000E+00 -0.00000000000E+00 -0.91268414731E+02  0.91268414731E+02  0.00000000000E+00 0. -1.
          6    2    1    2  501    0 -0.10732038880E+03 -0.64214581191E+02  0.99142571773E+02  0.23550403908E+03  0.17318119008E+03 0.  0.
         24    2    3    3    0    0 -0.41203363709E+02 -0.66475328687E+02 -0.21547570366E+01  0.11442633341E+03  0.83498840085E+02 0.  0.
         -6    2    1    2    0  502  0.10732038880E+03  0.64214581191E+02  0.47028060634E+03  0.51645596850E+03  0.17297901724E+03 0.  0.
        -24    2    5    5    0    0  0.25905558518E+02  0.92595497922E+02  0.28455005143E+03  0.31163463159E+03  0.83080609299E+02 0.  0.
          5    1    3    3  501    0 -0.66117025086E+02  0.22607474960E+01  0.10129732881E+03  0.12107770567E+03  0.47000000000E+01 0. -1.
        -15    1    4    4    0    0  0.59933819811E+00 -0.11912498827E+01  0.30303321022E+02  0.30384655281E+02  0.17770000000E+01 0.  1.
         16    1    4    4    0    0 -0.41802701907E+02 -0.65284078804E+02 -0.32458078059E+02  0.84041678133E+02  0.00000000000E+00 0. -1.
         -5    1    5    5    0  502  0.81414830278E+02 -0.28380916731E+02  0.18573055491E+03  0.20482133691E+03  0.47000000000E+01 0.  1.
         15    1    6    6    0    0  0.20102484779E+02  0.40210997358E+02  0.23509070460E+03  0.23935712090E+03  0.17770000000E+01 0. -1.
        -16    1    6    6    0    0  0.58030737382E+01  0.52384500564E+02  0.49459346825E+02  0.72277510696E+02  0.00000000000E+00 0.  1.
<mgrwt>
<rscale>  2 0.21357761E+03</rscale>
<asrwt>0</asrwt>
<pdfrwt beam="1">  1       21 0.10164486E+00 0.21361859E+03</pdfrwt>
<pdfrwt beam="2">  1       21 0.14041295E-01 0.21361859E+03</pdfrwt>
<totfact> 0.34526183E+04</totfact>
</mgrwt>
</event>
<event>
12    2  0.4097182E-002  0.1911838E+03  0.7546771E-02  0.1157460E+00
         21   -1    0    0  501  502  0.00000000000E+00  0.00000000000E+00  0.74256889704E+02  0.74256889704E+02  0.00000000000E+00 0.  1.
         21   -1    0    0  502  503 -0.00000000000E+00 -0.00000000000E+00 -0.55184321557E+03  0.55184321557E+03  0.00000000000E+00 0.  1.
         -6    2    1    2    0  503  0.82857781087E+02  0.10313445556E+02 -0.34245288021E+03  0.39220556536E+03  0.17198677651E+03 0.  0.
        -24    2    3    3    0    0  0.92929207265E+02 -0.18389546940E+01 -0.35269971326E+03  0.37280963680E+03  0.77140898607E+02 0.  0.
          6    2    1    2  501    0 -0.82857781087E+02 -0.10313445556E+02 -0.13513344566E+03  0.23389453991E+03  0.17167943563E+03 0.  0.
         24    2    5    5    0    0 -0.12455846086E+03 -0.14023609107E+02 -0.97281877612E+02  0.17725936347E+03  0.79029402395E+02 0.  0.
          5    1    5    5  501    0  0.41700679769E+02  0.37101635509E+01 -0.37851568047E+02  0.56635176439E+02  0.47000000000E+01 0. -1.
        -15    1    6    6    0    0 -0.50395199782E+02 -0.43707990155E+02 -0.31579176193E+02  0.73827275871E+02  0.17770000000E+01 0.  1.
         16    1    6    6    0    0 -0.74163261074E+02  0.29684381048E+02 -0.65702701419E+02  0.10343208760E+03  0.00000000000E+00 0. -1.
         -5    1    3    3    0  503 -0.10071426177E+02  0.12152400250E+02  0.10246833058E+02  0.19395928562E+02  0.47000000000E+01 0.  1.
         15    1    4    4    0    0  0.56397900613E+02 -0.11940157021E+02 -0.86752010663E+02  0.10417465923E+03  0.17770000000E+01 0. -1.
        -16    1    4    4    0    0  0.36531306652E+02  0.10101202327E+02 -0.26594770260E+03  0.26863497757E+03  0.00000000000E+00 0.  1.
<mgrwt>
<rscale>  2 0.19111461E+03</rscale>
<asrwt>0</asrwt>
<pdfrwt beam="1">  1       21 0.11424137E-01 0.19118376E+03</pdfrwt>
<pdfrwt beam="2">  1       21 0.84898958E-01 0.19118376E+03</pdfrwt>
<totfact> 0.77031496E+04</totfact>
</mgrwt>
</event>
<event>
12    2  0.4097182E-002  0.2257253E+03  0.7546771E-02  0.1129787E+00
         21   -1    0    0  501  502  0.00000000000E+00  0.00000000000E+00  0.21763397949E+03  0.21763397949E+03  0.00000000000E+00 0. -1.
         21   -1    0    0  502  503 -0.00000000000E+00 -0.00000000000E+00 -0.27440616319E+03  0.27440616319E+03  0.00000000000E+00 0.  1.
         -6    2    1    2    0  503 -0.14393344712E+03 -0.11063041049E+02 -0.12336710987E+03  0.25723795430E+03  0.17353009323E+03 0.  0.
        -24    2    3    3    0    0 -0.39858762285E+02 -0.44511584502E+02 -0.11280971794E+03  0.14731118956E+03  0.73515658346E+02 0.  0.
          6    2    1    2  501    0  0.14393344712E+03  0.11063041049E+02  0.66594926179E+02  0.23480218838E+03  0.17279454679E+03 0.  0.
         24    2    5    5    0    0  0.58682593900E+02 -0.58240128675E+02  0.32485642120E+02  0.11966674394E+03  0.80182624339E+02 0.  0.
          5    1    5    5  501    0  0.85250853217E+02  0.69303169724E+02  0.34109284059E+02  0.11513544444E+03  0.47000000000E+01 0. -1.
        -15    1    6    6    0    0  0.61152000273E+02 -0.20870741858E+02 -0.72720872346E+01  0.65047643960E+02  0.17770000000E+01 0.  1.
         16    1    6    6    0    0 -0.24694063729E+01 -0.37369386817E+02  0.39757729355E+02  0.54619099978E+02  0.00000000000E+00 0. -1.
         -5    1    3    3    0  503 -0.10407468483E+03  0.33448543452E+02 -0.10557391939E+02  0.10992676474E+03  0.47000000000E+01 0.  1.
         15    1    4    4    0    0  0.69942901021E+00  0.45957275214E+01  0.87560264642E+01  0.10071526241E+02  0.17770000000E+01 0. -1.
        -16    1    4    4    0    0 -0.40558191295E+02 -0.49107312023E+02 -0.12156574440E+03  0.13723966331E+03  0.00000000000E+00 0.  1.
<mgrwt>
<rscale>  2 0.22558395E+03</rscale>
<asrwt>0</asrwt>
<pdfrwt beam="1">  1       21 0.33482151E-01 0.22572532E+03</pdfrwt>
<pdfrwt beam="2">  1       21 0.42216333E-01 0.22572532E+03</pdfrwt>
<totfact> 0.45660547E+04</totfact>
</mgrwt>
</event>
<event>
12    2  0.4097182E-002  0.2232736E+03  0.7546771E-02  0.1132266E+00
         21   -1    0    0  503  502  0.00000000000E+00  0.00000000000E+00  0.35521811107E+03  0.35521811107E+03  0.00000000000E+00 0.  1.
         21   -1    0    0  501  503 -0.00000000000E+00 -0.00000000000E+00 -0.14494712096E+03  0.14494712096E+03  0.00000000000E+00 0.  1.
          6    2    1    2  501    0  0.70322177549E+02  0.12136673942E+03  0.47974034774E+02  0.22413735096E+03  0.16810993424E+03 0.  0.
         24    2    3    3    0    0  0.29832828372E+01  0.76169093166E+02  0.77899239694E+02  0.13756390319E+03  0.83933933467E+02 0.  0.
         -6    2    1    2    0  502 -0.70322177549E+02 -0.12136673942E+03  0.16229695533E+03  0.27602788107E+03  0.17371239256E+03 0.  0.
        -24    2    5    5    0    0 -0.37555821386E+02  0.33121446674E+01  0.96956038923E+02  0.13142503328E+03  0.80315975164E+02 0.  0.
          5    1    3    3  501    0  0.67338894712E+02  0.45197646252E+02 -0.29925204920E+02  0.86573447761E+02  0.47000000000E+01 0. -1.
        -15    1    4    4    0    0 -0.10492765046E+02  0.64306241240E+02  0.83248119737E+01  0.65710356901E+02  0.17770000000E+01 0.  1.
         16    1    4    4    0    0  0.13476047883E+02  0.11862851926E+02  0.69574427720E+02  0.71853546294E+02  0.00000000000E+00 0. -1.
         -5    1    5    5    0  502 -0.32766356163E+02 -0.12467888409E+03  0.65340916409E+02  0.14460284779E+03  0.47000000000E+01 0.  1.
         15    1    6    6    0    0  0.18719733437E+02  0.22036058866E+02  0.25790246022E+02  0.38785446100E+02  0.17770000000E+01 0. -1.
        -16    1    6    6    0    0 -0.56275554823E+02 -0.18723914198E+02  0.71165792900E+02  0.92639587179E+02  0.00000000000E+00 0.  1.
<mgrwt>
<rscale>  2 0.22218297E+03</rscale>
<asrwt>0</asrwt>
<pdfrwt beam="1">  1       21 0.54648940E-01 0.22327358E+03</pdfrwt>
<pdfrwt beam="2">  1       21 0.22299557E-01 0.22327358E+03</pdfrwt>
<totfact> 0.58672371E+04</totfact>
</mgrwt>
</event>
<event>
12    2  0.4097182E-002  0.3701191E+03  0.7546771E-02  0.1054827E+00
         21   -1    0    0  503  502  0.00000000000E+00  0.00000000000E+00  0.18284142810E+03  0.18284142810E+03  0.00000000000E+00 0.  1.
         21   -1    0    0  501  503 -0.00000000000E+00 -0.00000000000E+00 -0.82852208029E+03  0.82852208029E+03  0.00000000000E+00 0.  1.
          6    2    1    2  501    0 -0.13079959798E+03  0.29894555327E+03 -0.16194883690E+03  0.40227842580E+03  0.17065616730E+03 0.  0.
         24    2    3    3    0    0 -0.30957535852E+02  0.22307253002E+03 -0.12628439123E+03  0.27182078627E+03  0.84965108736E+02 0.  0.
         -6    2    1    2    0  502  0.13079959798E+03 -0.29894555327E+03 -0.48373181530E+03  0.60908508260E+03  0.17467452607E+03 0.  0.
        -24    2    5    5    0    0  0.60919259753E+02 -0.10029110151E+03 -0.10113968536E+03  0.17234067134E+03  0.75515626139E+02 0.  0.
          5    1    3    3  501    0 -0.99842062125E+02  0.75873023250E+02 -0.35664445671E+02  0.13045763953E+03  0.47000000000E+01 0. -1.
        -15    1    4    4    0    0 -0.22507350390E+02  0.15962922765E+03 -0.13087563840E+03  0.20765274281E+03  0.17770000000E+01 0.  1.
         16    1    4    4    0    0 -0.84501854621E+01  0.63443302375E+02  0.45912471722E+01  0.64168043458E+02  0.00000000000E+00 0. -1.
         -5    1    5    5    0  502  0.69880338224E+02 -0.19865445176E+03 -0.38259212994E+03  0.43674441126E+03  0.47000000000E+01 0.  1.
         15    1    6    6    0    0  0.36135699661E+02 -0.27130266358E-01 -0.23686264963E+02  0.43243339406E+02  0.17770000000E+01 0. -1.
        -16    1    6    6    0    0  0.24783560091E+02 -0.10026397125E+03 -0.77453420393E+02  0.12909733193E+03  0.00000000000E+00 0.  1.
<mgrwt>
<rscale>  2 0.36964838E+03</rscale>
<asrwt>0</asrwt>
<pdfrwt beam="1">  1       21 0.28129451E-01 0.37011913E+03</pdfrwt>
<pdfrwt beam="2">  1       21 0.12746493E+00 0.37011913E+03</pdfrwt>
<totfact> 0.49436425E+03</totfact>
</mgrwt>
</event>
<event>
12    2  0.4097182E-002  0.1851561E+03  0.7546771E-02  0.1162955E+00
         21   -1    0    0  503  502  0.00000000000E+00  0.00000000000E+00  0.11840224862E+03  0.11840224862E+03  0.00000000000E+00 0. -1.
         21   -1    0    0  501  503 -0.00000000000E+00 -0.00000000000E+00 -0.29009163916E+03  0.29009163916E+03  0.00000000000E+00 0. -1.
          6    2    1    2  501    0  0.17930406325E+02 -0.64871347144E+02 -0.74515919183E+02  0.19938757322E+03  0.17225850050E+03 0.  0.
         24    2    3    3    0    0 -0.38719919124E+02 -0.66728202062E+02 -0.77634592721E+01  0.11169100438E+03  0.80391069599E+02 0.  0.
         -6    2    1    2    0  502 -0.17930406325E+02  0.64871347144E+02 -0.97173471364E+02  0.20910631456E+03  0.17249051017E+03 0.  0.
        -24    2    5    5    0    0 -0.71660971159E+02  0.71063717830E+02 -0.80038582742E+02  0.15217641503E+03  0.81031720853E+02 0.  0.
          5    1    3    3  501    0  0.56650325449E+02  0.18568549180E+01 -0.66752459911E+02  0.87696568849E+02  0.47000000000E+01 0. -1.
        -15    1    4    4    0    0 -0.60879127001E+02 -0.28653031852E+02 -0.64613525724E+01  0.67617831559E+02  0.17770000000E+01 0.  1.
         16    1    4    4    0    0  0.22159207877E+02 -0.38075170210E+02 -0.13021066998E+01  0.44073172817E+02  0.00000000000E+00 0. -1.
         -5    1    5    5    0  502  0.53730564833E+02 -0.61923706858E+01 -0.17134888622E+02  0.56929899527E+02  0.47000000000E+01 0.  1.
         15    1    6    6    0    0 -0.72954444099E+02  0.84993077659E+02 -0.80867597290E+02  0.13816258605E+03  0.17770000000E+01 0. -1.
        -16    1    6    6    0    0  0.12934729403E+01 -0.13929359829E+02  0.82901454765E+00  0.14013828978E+02  0.00000000000E+00 0.  1.
<mgrwt>
<rscale>  2 0.18510201E+03</rscale>
<asrwt>0</asrwt>
<pdfrwt beam="1">  1       21 0.18215731E-01 0.18515606E+03</pdfrwt>
<pdfrwt beam="2">  1       21 0.44629482E-01 0.18515606E+03</pdfrwt>
<totfact> 0.13270454E+05</totfact>
</mgrwt>
</event>
<event>
12    2  0.4097182E-002  0.2495244E+03  0.7546771E-02  0.1116016E+00
         21   -1    0    0  501  502  0.00000000000E+00  0.00000000000E+00  0.14857050945E+03  0.14857050945E+03  0.00000000000E+00 0.  1.
         21   -1    0    0  502  503 -0.00000000000E+00 -0.00000000000E+00 -0.85316822398E+03  0.85316822398E+03  0.00000000000E+00 0. -1.
         -6    2    1    2    0  503 -0.15420201592E+03  0.91872610468E+02 -0.71442733676E+03  0.75202080361E+03  0.15136060017E+03 0.  0.
        -24    2    3    3    0    0 -0.10509986024E+03  0.45938275039E+02 -0.31025253779E+03  0.34226436011E+03  0.87931503245E+02 0.  0.
          6    2    1    2  501    0  0.15420201592E+03 -0.91872610468E+02  0.98296222256E+01  0.24971792982E+03  0.17333085338E+03 0.  0.
         24    2    5    5    0    0  0.89982946953E+02 -0.54174633622E+02  0.71277160595E+02  0.15305813338E+03  0.85525065919E+02 0.  0.
          5    1    5    5  501    0  0.64219068963E+02 -0.37697976846E+02 -0.61447538369E+02  0.96659796443E+02  0.47000000000E+01 0. -1.
        -15    1    6    6    0    0  0.41203350371E+02 -0.64009373185E+02  0.69767211182E+02  0.10327408882E+03  0.17770000000E+01 0.  1.
         16    1    6    6    0    0  0.48779596582E+02  0.98347395626E+01  0.15099494125E+01  0.49784044555E+02  0.00000000000E+00 0. -1.
         -5    1    3    3    0  503 -0.49102155675E+02  0.45934335429E+02 -0.40417479897E+03  0.40975644350E+03  0.47000000000E+01 0.  1.
         15    1    4    4    0    0 -0.23134241279E+02  0.53586490002E+02 -0.16862743463E+03  0.17845188278E+03  0.17770000000E+01 0. -1.
        -16    1    4    4    0    0 -0.81965618962E+02 -0.76482149634E+01 -0.14162510316E+03  0.16381247733E+03  0.00000000000E+00 0.  1.
<mgrwt>
<rscale>  2 0.24575770E+03</rscale>
<asrwt>0</asrwt>
<pdfrwt beam="1">  1       21 0.22857002E-01 0.24952439E+03</pdfrwt>
<pdfrwt beam="2">  1       21 0.13125665E+00 0.24952439E+03</pdfrwt>
<totfact> 0.72819537E+03</totfact>
</mgrwt>
</event>
<event>
12    2  0.4097182E-002  0.1884328E+03  0.7546771E-02  0.1160919E+00
         21   -1    0    0  501  502  0.00000000000E+00  0.00000000000E+00  0.12112049961E+03  0.12112049961E+03  0.00000000000E+00 0.  1.
         21   -1    0    0  502  503 -0.00000000000E+00 -0.00000000000E+00 -0.35872813204E+03  0.35872813204E+03  0.00000000000E+00 0. -1.
         -6    2    1    2    0  503  0.62127514353E+02 -0.40813927176E+02 -0.97922184328E+01  0.18420222984E+03  0.16825269462E+03 0.  0.
        -24    2    3    3    0    0  0.43110079052E+02 -0.10608852807E+02 -0.60723680532E+02  0.12183145789E+03  0.95835860093E+02 0.  0.
          6    2    1    2  501    0 -0.62127514353E+02  0.40813927176E+02 -0.22781541400E+03  0.29564640181E+03  0.17315116910E+03 0.  0.
         24    2    5    5    0    0  0.20749427094E+02  0.58164414398E+02 -0.14856689680E+03  0.17957726591E+03  0.79763611888E+02 0.  0.
          5    1    5    5  501    0 -0.82876941447E+02 -0.17350487221E+02 -0.79248517197E+02  0.11606913590E+03  0.47000000000E+01 0. -1.
        -15    1    6    6    0    0  0.29913865151E+02 -0.73702992171E+01 -0.26274943950E+02  0.40530125183E+02  0.17770000000E+01 0.  1.
         16    1    6    6    0    0 -0.91644380570E+01  0.65534713615E+02 -0.12229195285E+03  0.13904714073E+03  0.00000000000E+00 0. -1.
         -5    1    3    3    0  503  0.19017435302E+02 -0.30205074369E+02  0.50931462099E+02  0.62370771958E+02  0.47000000000E+01 0.  1.
         15    1    4    4    0    0 -0.25474264638E+02  0.93110670877E+01  0.13399800511E+01  0.27213735588E+02  0.17770000000E+01 0. -1.
        -16    1    4    4    0    0  0.68584343689E+02 -0.19919919895E+02 -0.62063660583E+02  0.94617722298E+02  0.00000000000E+00 0.  1.
<mgrwt>
<rscale>  2 0.18729989E+03</rscale>
<asrwt>0</asrwt>
<pdfrwt beam="1">  1       21 0.18633923E-01 0.18843283E+03</pdfrwt>
<pdfrwt beam="2">  1       21 0.55188944E-01 0.18843283E+03</pdfrwt>
<totfact> 0.81683249E+04</totfact>
</mgrwt>
</event>
<event>
12    2  0.4097182E-002  0.2105405E+03  0.7546771E-02  0.1141644E+00
         21   -1    0    0  501  502  0.00000000000E+00  0.00000000000E+00  0.28714047863E+03  0.28714047863E+03  0.00000000000E+00 0. -1.
         21   -1    0    0  502  503 -0.00000000000E+00 -0.00000000000E+00 -0.17916593874E+03  0.17916593874E+03  0.00000000000E+00 0. -1.
         -6    2    1    2    0  503  0.41096741809E+02  0.10311693887E+03 -0.36215832488E+02  0.21112383812E+03  0.17589668340E+03 0.  0.
        -24    2    3    3    0    0  0.46272209662E+02  0.12742400907E+03  0.90320733335E+01  0.15928676538E+03  0.83142647308E+02 0.  0.
          6    2    1    2  501    0 -0.41096741809E+02 -0.10311693887E+03  0.14419037237E+03  0.25518257925E+03  0.17890008384E+03 0.  0.
         24    2    5    5    0    0 -0.88673676309E+02 -0.87314833177E+02  0.13624472770E+03  0.20420714879E+03  0.87470182522E+02 0.  0.
          5    1    5    5  501    0  0.47576934499E+02 -0.15802105695E+02  0.79456446741E+01  0.50975430455E+02  0.47000000000E+01 0. -1.
        -15    1    6    6    0    0 -0.28051234440E+02 -0.16765528726E+01 -0.46472000352E+01  0.28538338779E+02  0.17770000000E+01 0.  1.
         16    1    6    6    0    0 -0.60622441869E+02 -0.85638280304E+02  0.14089192773E+03  0.17566881002E+03  0.00000000000E+00 0. -1.
         -5    1    3    3    0  503 -0.51754678526E+01 -0.24307070199E+02 -0.45247905821E+02  0.51837072741E+02  0.47000000000E+01 0.  1.
         15    1    4    4    0    0 -0.14311564596E+02  0.18156188165E+01 -0.11228357566E+02  0.18367119956E+02  0.17770000000E+01 0. -1.
        -16    1    4    4    0    0  0.60583774258E+02  0.12560839025E+03  0.20260430899E+02  0.14091964542E+03  0.00000000000E+00 0.  1.
<mgrwt>
<rscale>  2 0.20990105E+03</rscale>
<asrwt>0</asrwt>
<pdfrwt beam="1">  1       21 0.44175458E-01 0.21054046E+03</pdfrwt>
<pdfrwt beam="2">  1       21 0.27563991E-01 0.21054046E+03</pdfrwt>
<totfact> 0.61307059E+04</totfact>
</mgrwt>
</event>
<event>
12    2  0.4097182E-002  0.1891065E+03  0.7546771E-02  0.1159801E+00
         21   -1    0    0  501  502  0.00000000000E+00  0.00000000000E+00  0.27769534207E+03  0.27769534207E+03  0.00000000000E+00 0.  1.
         21   -1    0    0  502  503 -0.00000000000E+00 -0.00000000000E+00 -0.13688684292E+03  0.13688684292E+03  0.00000000000E+00 0. -1.
         -6    2    1    2    0  503  0.59982875024E+02 -0.43623269683E+02  0.14855142209E+02  0.18736972648E+03  0.17142288120E+03 0.  0.
        -24    2    3    3    0    0  0.54250181903E+02 -0.51608636941E+02 -0.49926039833E+02  0.12167862048E+03  0.81893489277E+02 0.  0.
          6    2    1    2  501    0 -0.59982875024E+02  0.43623269683E+02  0.12595335695E+03  0.22721245850E+03  0.17395493157E+03 0.  0.
         24    2    5    5    0    0 -0.63886899093E+02 -0.33109062773E+02  0.48829168069E+02  0.11824768090E+03  0.80127900700E+02 0.  0.
          5    1    5    5  501    0  0.39040240684E+01  0.76732332456E+02  0.77124188878E+02  0.10896477760E+03  0.47000000000E+01 0. -1.
        -15    1    6    6    0    0 -0.20469910241E+02 -0.25388916172E+02  0.63802782635E+02  0.71676823944E+02  0.17770000000E+01 0.  1.
         16    1    6    6    0    0 -0.43416988852E+02 -0.77201466013E+01 -0.14973614566E+02  0.46570856957E+02  0.00000000000E+00 0. -1.
         -5    1    3    3    0  503  0.57326931211E+01  0.79853672588E+01  0.64781182042E+02  0.65691105999E+02  0.47000000000E+01 0.  1.
         15    1    4    4    0    0  0.70858156625E+01 -0.43554571094E+02 -0.58264545821E+02  0.73110358196E+02  0.17770000000E+01 0. -1.
        -16    1    4    4    0    0  0.47164366241E+02 -0.80540658474E+01  0.83385059879E+01  0.48568262288E+02  0.00000000000E+00 0.  1.
<mgrwt>
<rscale>  2 0.18852212E+03</rscale>
<asrwt>0</asrwt>
<pdfrwt beam="1">  1       21 0.42722360E-01 0.18910646E+03</pdfrwt>
<pdfrwt beam="2">  1       21 0.21059514E-01 0.18910646E+03</pdfrwt>
<totfact> 0.11058452E+05</totfact>
</mgrwt>
</event>
<event>
12    2  0.4097182E-002  0.2551433E+03  0.7546771E-02  0.1112013E+00
         21   -1    0    0  501  502  0.00000000000E+00  0.00000000000E+00  0.14978401637E+03  0.14978401637E+03  0.00000000000E+00 0.  1.
         21   -1    0    0  502  503 -0.00000000000E+00 -0.00000000000E+00 -0.42001446427E+03  0.42001446427E+03  0.00000000000E+00 0.  1.
         -6    2    1    2    0  503  0.58369145259E+02 -0.16167289363E+03 -0.17187995375E+03  0.30763751219E+03  0.18855513452E+03 0.  0.
        -24    2    3    3    0    0  0.18090230098E+02 -0.15394671670E+03 -0.54736227994E+02  0.18343273249E+03  0.81392043142E+02 0.  0.
          6    2    1    2  501    0 -0.58369145259E+02  0.16167289363E+03 -0.98350494147E+02  0.26216096845E+03  0.17178612291E+03 0.  0.
         24    2    5    5    0    0 -0.82160001476E+02  0.52588127197E+02 -0.25853259408E+02  0.12895650098E+03  0.80284563640E+02 0.  0.
          5    1    5    5  501    0  0.23790856217E+02  0.10908476643E+03 -0.72497234739E+02  0.13320446746E+03  0.47000000000E+01 0. -1.
        -15    1    6    6    0    0 -0.17244626595E+02  0.52048633075E+02  0.84923609820E+01  0.55513199110E+02  0.17770000000E+01 0.  1.
         16    1    6    6    0    0 -0.64915374881E+02  0.53949412157E+00 -0.34345620390E+02  0.73443301872E+02  0.00000000000E+00 0. -1.
         -5    1    3    3    0  503  0.40278915160E+02 -0.77261769323E+01 -0.11714372576E+03  0.12420477970E+03  0.47000000000E+01 0.  1.
         15    1    4    4    0    0 -0.22263183304E+02 -0.34173850177E+02  0.91173190076E+01  0.41830426745E+02  0.17770000000E+01 0. -1.
        -16    1    4    4    0    0  0.40353413402E+02 -0.11977286652E+03 -0.63853547002E+02  0.14160230575E+03  0.00000000000E+00 0.  1.
<mgrwt>
<rscale>  2 0.25205526E+03</rscale>
<asrwt>0</asrwt>
<pdfrwt beam="1">  1       21 0.23043695E-01 0.25514333E+03</pdfrwt>
<pdfrwt beam="2">  1       21 0.64617609E-01 0.25514333E+03</pdfrwt>
<totfact> 0.37904032E+04</totfact>
</mgrwt>
</event>
<event>
12    2  0.4097182E-002  0.1852565E+03  0.7546771E-02  0.1164172E+00
         21   -1    0    0  503  502  0.00000000000E+00  0.00000000000E+00  0.32447133922E+02  0.32447133922E+02  0.00000000000E+00 0.  1.
         21   -1    0    0  501  503 -0.00000000000E+00 -0.00000000000E+00 -0.10347810494E+04  0.10347810494E+04  0.00000000000E+00 0.  1.
          6    2    1    2  501    0 -0.39790075912E+02  0.36711164407E+02 -0.56040790163E+03  0.59023467808E+03  0.17716940838E+03 0.  0.
         24    2    3    3    0    0 -0.93352211881E+02  0.49952138220E+01 -0.37652553302E+03  0.39604503001E+03  0.79627891824E+02 0.  0.
         -6    2    1    2    0  502  0.39790075912E+02 -0.36711164407E+02 -0.44192601383E+03  0.47699350522E+03  0.17115268795E+03 0.  0.
        -24    2    5    5    0    0 -0.40067230689E+02 -0.16339800598E+01 -0.19185496384E+03  0.21210632486E+03  0.81072270409E+02 0.  0.
          5    1    3    3  501    0  0.53562135969E+02  0.31715950585E+02 -0.18388236861E+03  0.19418964807E+03  0.47000000000E+01 0. -1.
        -15    1    4    4    0    0 -0.56052367369E+02 -0.26591643565E+02 -0.12212245667E+03  0.13698918040E+03  0.17770000000E+01 0.  1.
         16    1    4    4    0    0 -0.37299844512E+02  0.31586857387E+02 -0.25440307635E+03  0.25905584961E+03  0.00000000000E+00 0. -1.
         -5    1    5    5    0  502  0.79857306601E+02 -0.35077184347E+02 -0.25007104998E+03  0.26488718036E+03  0.47000000000E+01 0.  1.
         15    1    6    6    0    0 -0.44206778330E+02 -0.72674142577E+01 -0.39983530526E+02  0.60074079291E+02  0.17770000000E+01 0. -1.
        -16    1    6    6    0    0  0.41395476415E+01  0.56334341980E+01 -0.15187143332E+03  0.15203224557E+03  0.00000000000E+00 0.  1.
<mgrwt>
<rscale>  2 0.18380309E+03</rscale>
<asrwt>0</asrwt>
<pdfrwt beam="1">  1       21 0.49918673E-02 0.18525647E+03</pdfrwt>
<pdfrwt beam="2">  1       21 0.15919707E+00 0.18525647E+03</pdfrwt>
<totfact> 0.69089634E+04</totfact>
</mgrwt>
</event>
<event>
12    2  0.4097182E-002  0.2082907E+03  0.7546771E-02  0.1143301E+00
         21   -1    0    0  501  502  0.00000000000E+00  0.00000000000E+00  0.43641160909E+02  0.43641160909E+02  0.00000000000E+00 0.  1.
         21   -1    0    0  502  503 -0.00000000000E+00 -0.00000000000E+00 -0.10654395780E+04  0.10654395780E+04  0.00000000000E+00 0.  1.
         -6    2    1    2    0  503 -0.50279786602E+02  0.10359001150E+03 -0.66514425434E+03  0.69699490604E+03  0.17356863928E+03 0.  0.
        -24    2    3    3    0    0 -0.48978375673E+02 -0.88740166267E+01 -0.33434333253E+03  0.34756509741E+03  0.80860394952E+02 0.  0.
          6    2    1    2  501    0  0.50279786602E+02 -0.10359001150E+03 -0.35665416278E+03  0.41208583290E+03  0.17132890714E+03 0.  0.
         24    2    5    5    0    0  0.76343633372E+02 -0.22711474832E+02 -0.25630415457E+03  0.28050743060E+03  0.81537951449E+02 0.  0.
          5    1    5    5  501    0 -0.26063846770E+02 -0.80878536673E+02 -0.10035000821E+03  0.13157840229E+03  0.47000000000E+01 0. -1.
        -15    1    6    6    0    0  0.66031897993E+02 -0.50872832749E+02 -0.17493820734E+03  0.19379058486E+03  0.17770000000E+01 0.  1.
         16    1    6    6    0    0  0.10311735380E+02  0.28161357918E+02 -0.81365947235E+02  0.86716845744E+02  0.00000000000E+00 0. -1.
         -5    1    3    3    0  503 -0.13014109296E+01  0.11246402813E+03 -0.33080092181E+03  0.34942980864E+03  0.47000000000E+01 0.  1.
         15    1    4    4    0    0  0.19192317753E+02  0.51331785234E+01 -0.35448181197E+02  0.40674634131E+02  0.17770000000E+01 0. -1.
        -16    1    4    4    0    0 -0.68170693426E+02 -0.14007195150E+02 -0.29889515133E+03  0.30689046328E+03  0.00000000000E+00 0.  1.
<mgrwt>
<rscale>  2 0.20782348E+03</rscale>
<asrwt>0</asrwt>
<pdfrwt beam="1">  1       21 0.67140250E-02 0.20829071E+03</pdfrwt>
<pdfrwt beam="2">  1       21 0.16391378E+00 0.20829071E+03</pdfrwt>
<totfact> 0.37954720E+04</totfact>
</mgrwt>
</event>
<event>
12    2  0.4097182E-002  0.2001722E+03  0.7546771E-02  0.1150596E+00
         21   -1    0    0  503  502  0.00000000000E+00  0.00000000000E+00  0.71819062565E+02  0.71819062565E+02  0.00000000000E+00 0.  1.
         21   -1    0    0  501  503 -0.00000000000E+00 -0.00000000000E+00 -0.17999800236E+04  0.17999800236E+04  0.00000000000E+00 0.  1.
          6    2    1    2  501    0  0.25743975860E+01 -0.96574437181E+02 -0.16486716688E+04  0.16607790866E+04  0.17531586757E+03 0.  0.
         24    2    3    3    0    0  0.45565588813E+02 -0.84868577317E+02 -0.70426881236E+03  0.71531406081E+03  0.80004670007E+02 0.  0.
         -6    2    1    2    0  502 -0.25743975860E+01  0.96574437181E+02 -0.79489292219E+02  0.21101999959E+03  0.16993423201E+03 0.  0.
        -24    2    5    5    0    0 -0.61543851994E+02  0.81477688108E+02 -0.72725713277E+02  0.14959407358E+03  0.81627802253E+02 0.  0.
          5    1    3    3  501    0 -0.42991191227E+02 -0.11705859864E+02 -0.94440285649E+03  0.94546502580E+03  0.47000000000E+01 0. -1.
        -15    1    4    4    0    0  0.11504224893E+02 -0.63203162288E+02 -0.21543612914E+03  0.22481741566E+03  0.17770000000E+01 0.  1.
         16    1    4    4    0    0  0.34061363919E+02 -0.21665415029E+02 -0.48883268322E+03  0.49049664515E+03  0.00000000000E+00 0. -1.
         -5    1    5    5    0  502  0.58969454408E+02  0.15096749073E+02 -0.67635789427E+01  0.61425926008E+02  0.47000000000E+01 0.  1.
         15    1    6    6    0    0 -0.63404299829E+01  0.28955400480E+02 -0.66876566305E+02  0.73172734807E+02  0.17770000000E+01 0. -1.
        -16    1    6    6    0    0 -0.55203422011E+02  0.52522287628E+02 -0.58491469711E+01  0.76421338772E+02  0.00000000000E+00 0.  1.
<mgrwt>
<rscale>  2 0.19898768E+03</rscale>
<asrwt>0</asrwt>
<pdfrwt beam="1">  1       21 0.11049087E-01 0.20017218E+03</pdfrwt>
<pdfrwt beam="2">  1       21 0.27692000E+00 0.20017218E+03</pdfrwt>
<totfact> 0.31251665E+03</totfact>
</mgrwt>
</event>
<event>
12    2  0.4097182E-002  0.1836501E+03  0.7546771E-02  0.1164469E+00
         21   -1    0    0  501  502  0.00000000000E+00  0.00000000000E+00  0.16701422567E+03  0.16701422567E+03  0.00000000000E+00 0. -1.
         21   -1    0    0  502  503 -0.00000000000E+00 -0.00000000000E+00 -0.25270248239E+03  0.25270248239E+03  0.00000000000E+00 0. -1.
         -6    2    1    2    0  503 -0.58274790547E+02 -0.58265386868E+01  0.51926801499E+02  0.19022760248E+03  0.17337891528E+03 0.  0.
        -24    2    3    3    0    0  0.35337518767E+02 -0.11722836829E+02  0.15562688448E+02  0.89517774234E+02  0.79906629863E+02 0.  0.
          6    2    1    2  501    0  0.58274790547E+02  0.58265386868E+01 -0.13761505822E+03  0.22948910558E+03  0.17406161428E+03 0.  0.
         24    2    5    5    0    0  0.62954570309E+02 -0.38092467167E+02 -0.27737793937E+02  0.11097377906E+03  0.78303770337E+02 0.  0.
          5    1    5    5  501    0 -0.46797797620E+01  0.43919005854E+02 -0.10987726428E+03  0.11851532652E+03  0.47000000000E+01 0. -1.
        -15    1    6    6    0    0  0.29876110509E+02  0.93525078637E+01  0.18955353154E+02  0.36640340128E+02  0.17770000000E+01 0.  1.
         16    1    6    6    0    0  0.33078459800E+02 -0.47444975031E+02 -0.46693147091E+02  0.74333438934E+02  0.00000000000E+00 0. -1.
         -5    1    3    3    0  503 -0.93612309314E+02  0.58962981420E+01  0.36364113051E+02  0.10070982824E+03  0.47000000000E+01 0.  1.
         15    1    4    4    0    0  0.20973493999E+02 -0.22670389892E+02  0.45223034334E+02  0.54791555843E+02  0.17770000000E+01 0. -1.
        -16    1    4    4    0    0  0.14364024769E+02  0.10947553063E+02 -0.29660345886E+02  0.34726218391E+02  0.00000000000E+00 0.  1.
<mgrwt>
<rscale>  2 0.18348812E+03</rscale>
<asrwt>0</asrwt>
<pdfrwt beam="1">  1       21 0.25694496E-01 0.18365006E+03</pdfrwt>
<pdfrwt beam="2">  1       21 0.38877305E-01 0.18365006E+03</pdfrwt>
<totfact> 0.92013468E+04</totfact>
</mgrwt>
</event>
<event>
12    2  0.4097182E-002  0.2961405E+03  0.7546771E-02  0.1087307E+00
         21   -1    0    0  501  502  0.00000000000E+00  0.00000000000E+00  0.25727054469E+03  0.25727054469E+03  0.00000000000E+00 0.  1.
         21   -1    0    0  502  503 -0.00000000000E+00 -0.00000000000E+00 -0.60137670095E+03  0.60137670095E+03  0.00000000000E+00 0.  1.
         -6    2    1    2    0  503  0.23179187170E+03 -0.61181381629E+02 -0.45504900497E+03  0.54240759141E+03  0.17223752509E+03 0.  0.
        -24    2    3    3    0    0  0.24761313278E+03 -0.63550693717E+02 -0.37567660984E+03  0.46130276386E+03  0.79475597356E+02 0.  0.
          6    2    1    2  501    0 -0.23179187170E+03  0.61181381629E+02  0.11094284872E+03  0.31623965423E+03  0.17386365343E+03 0.  0.
         24    2    5    5    0    0 -0.65170940799E+02 -0.24580214917E+02  0.56153828308E+02  0.12094113193E+03  0.81376080450E+02 0.  0.
          5    1    5    5  501    0 -0.16662093090E+03  0.85761596546E+02  0.54789020408E+02  0.19529852230E+03  0.47000000000E+01 0. -1.
        -15    1    6    6    0    0  0.60924436065E+01 -0.18014671212E+02  0.44509925578E+02  0.48434878465E+02  0.17770000000E+01 0.  1.
         16    1    6    6    0    0 -0.71263384405E+02 -0.65655437046E+01  0.11643902730E+02  0.72506253467E+02  0.00000000000E+00 0. -1.
         -5    1    3    3    0  503 -0.15821261077E+02  0.23693120883E+01 -0.79372395134E+02  0.81104827545E+02  0.47000000000E+01 0.  1.
         15    1    4    4    0    0  0.10651213595E+03  0.12698288933E+02 -0.14661464355E+03  0.18167303894E+03  0.17770000000E+01 0. -1.
        -16    1    4    4    0    0  0.14110099683E+03 -0.76248982650E+02 -0.22906196629E+03  0.27962972493E+03  0.00000000000E+00 0.  1.
<mgrwt>
<rscale>  2 0.29590228E+03</rscale>
<asrwt>0</asrwt>
<pdfrwt beam="1">  1       21 0.39580084E-01 0.29614051E+03</pdfrwt>
<pdfrwt beam="2">  1       21 0.92519492E-01 0.29614051E+03</pdfrwt>
<totfact> 0.56794626E+03</totfact>
</mgrwt>
</event>
<event>
12    2  0.4097182E-002  0.2817142E+03  0.7546771E-02  0.1094921E+00
         21   -1    0    0  503  502  0.00000000000E+00  0.00000000000E+00  0.13719114614E+04  0.13719114614E+04  0.00000000000E+00 0.  1.
         21   -1    0    0  501  503 -0.00000000000E+00 -0.00000000000E+00 -0.14335815275E+03  0.14335815275E+03  0.00000000000E+00 0.  1.
          6    2    1    2  501    0 -0.21449070039E+03  0.58382042579E+02  0.27762071295E+02  0.28187491096E+03  0.17107895655E+03 0.  0.
         24    2    3    3    0    0 -0.11754368298E+03  0.43694138531E+02  0.82834399494E+02  0.16931599286E+03  0.77978667260E+02 0.  0.
         -6    2    1    2    0  502  0.21449070039E+03 -0.58382042579E+02  0.12007912373E+04  0.12333947032E+04  0.17305540941E+03 0.  0.
        -24    2    5    5    0    0  0.18087893597E+03 -0.18263856134E+01  0.66567262714E+03  0.69422653831E+03  0.78165943967E+02 0.  0.
          5    1    3    3  501    0 -0.96947017407E+02  0.14687904048E+02 -0.55072328200E+02  0.11255891809E+03  0.47000000000E+01 0. -1.
        -15    1    4    4    0    0 -0.33540327905E+02  0.17713615259E+02 -0.12161296553E+02  0.39872053175E+02  0.17770000000E+01 0.  1.
         16    1    4    4    0    0 -0.84003355077E+02  0.25980523272E+02  0.94995696048E+02  0.12944393969E+03  0.00000000000E+00 0. -1.
         -5    1    5    5    0  502  0.33611764415E+02 -0.56555656966E+02  0.53511861019E+03  0.53916816488E+03  0.47000000000E+01 0.  1.
         15    1    6    6    0    0  0.25895046374E+02 -0.29472644738E+02  0.11703706487E+03  0.12345048601E+03  0.17770000000E+01 0. -1.
        -16    1    6    6    0    0  0.15498388960E+03  0.27646259125E+02  0.54863556227E+03  0.57077605229E+03  0.00000000000E+00 0.  1.
<mgrwt>
<rscale>  2 0.28141128E+03</rscale>
<asrwt>0</asrwt>
<pdfrwt beam="1">  1       21 0.21106329E+00 0.28171421E+03</pdfrwt>
<pdfrwt beam="2">  1       21 0.22055101E-01 0.28171421E+03</pdfrwt>
<totfact> 0.20295447E+03</totfact>
</mgrwt>
</event>
<event>
12    2  0.4097182E-002  0.1981155E+03  0.7546771E-02  0.1153601E+00
         21   -1    0    0  501  502  0.00000000000E+00  0.00000000000E+00  0.43278409337E+03  0.43278409337E+03  0.00000000000E+00 0. -1.
         21   -1    0    0  502  503 -0.00000000000E+00 -0.00000000000E+00 -0.28006768352E+03  0.28006768352E+03  0.00000000000E+00 0.  1.
         -6    2    1    2    0  503 -0.43834460159E+02  0.59181488786E+02 -0.21965075962E+03  0.29579755887E+03  0.18391800108E+03 0.  0.
        -24    2    3    3    0    0 -0.91208257677E+02  0.23026403266E+02 -0.85877898756E+02  0.14927542674E+03  0.77839437429E+02 0.  0.
          6    2    1    2  501    0  0.43834460159E+02 -0.59181488786E+02  0.37236716947E+03  0.41705421801E+03  0.17278021689E+03 0.  0.
         24    2    5    5    0    0 -0.29748778750E+02  0.52348919749E+01  0.21368554631E+03  0.23059802829E+03  0.81249886249E+02 0.  0.
          5    1    5    5  501    0  0.73583238909E+02 -0.64416380761E+02  0.15868162316E+03  0.18645618973E+03  0.47000000000E+01 0. -1.
        -15    1    6    6    0    0 -0.15255794148E+02  0.41327729689E+02  0.79708462948E+02  0.91089611322E+02  0.17770000000E+01 0.  1.
         16    1    6    6    0    0 -0.14492984603E+02 -0.36092837714E+02  0.13397708337E+03  0.13950841696E+03  0.00000000000E+00 0. -1.
         -5    1    3    3    0  503  0.47373797518E+02  0.36155085521E+02 -0.13377286086E+03  0.14652213213E+03  0.47000000000E+01 0.  1.
         15    1    4    4    0    0 -0.81270911817E+01  0.26038206796E+02  0.30911242550E+01  0.27509100356E+02  0.17770000000E+01 0. -1.
        -16    1    4    4    0    0 -0.83081166495E+02 -0.30118035306E+01 -0.88969023011E+02  0.12176632639E+03  0.00000000000E+00 0.  1.
<mgrwt>
<rscale>  2 0.19549025E+03</rscale>
<asrwt>0</asrwt>
<pdfrwt beam="1">  1       21 0.66582168E-01 0.19811547E+03</pdfrwt>
<pdfrwt beam="2">  1       21 0.43087336E-01 0.19811547E+03</pdfrwt>
<totfact> 0.10671650E+04</totfact>
</mgrwt>
</event>
<event>
12    2  0.4097182E-002  0.2364617E+03  0.7546771E-02  0.1122258E+00
         21   -1    0    0  501  502  0.00000000000E+00  0.00000000000E+00  0.77878906968E+02  0.77878906968E+02  0.00000000000E+00 0. -1.
         21   -1    0    0  502  503 -0.00000000000E+00 -0.00000000000E+00 -0.10890737630E+04  0.10890737630E+04  0.00000000000E+00 0.  1.
         -6    2    1    2    0  503  0.11853095911E+03 -0.10833074788E+03 -0.84654468282E+03  0.87881415936E+03  0.17289096992E+03 0.  0.
        -24    2    3    3    0    0  0.15188758433E+03 -0.99331491695E+02 -0.67034220820E+03  0.69919497019E+03  0.81107007861E+02 0.  0.
          6    2    1    2  501    0 -0.11853095911E+03  0.10833074788E+03 -0.16465017325E+03  0.28813851064E+03  0.17357702198E+03 0.  0.
         24    2    5    5    0    0 -0.79812546555E+02  0.14686010662E+03 -0.12992698092E+03  0.22324307906E+03  0.70841502486E+02 0.  0.
          5    1    5    5  501    0 -0.38718412552E+02 -0.38529358732E+02 -0.34723192328E+02  0.64895431583E+02  0.47000000000E+01 0. -1.
        -15    1    6    6    0    0 -0.40261030640E+02  0.43162470882E+02 -0.85024470008E+02  0.10351940741E+03  0.17770000000E+01 0.  1.
         16    1    6    6    0    0 -0.39551515915E+02  0.10369763573E+03 -0.44902510914E+02  0.11972367165E+03  0.00000000000E+00 0. -1.
         -5    1    3    3    0  503 -0.33356625220E+02 -0.89992561894E+01 -0.17620247462E+03  0.17961918917E+03  0.47000000000E+01 0.  1.
         15    1    4    4    0    0 -0.95431085525E+01 -0.39497143688E+01 -0.52147351466E+02  0.53189991148E+02  0.17770000000E+01 0. -1.
        -16    1    4    4    0    0  0.16143069288E+03 -0.95381777326E+02 -0.61819485674E+03  0.64600497904E+03  0.00000000000E+00 0.  1.
<mgrwt>
<rscale>  2 0.23633578E+03</rscale>
<asrwt>0</asrwt>
<pdfrwt beam="1">  1       21 0.11981371E-01 0.23646167E+03</pdfrwt>
<pdfrwt beam="2">  1       21 0.16754981E+00 0.23646167E+03</pdfrwt>
<totfact> 0.12669933E+04</totfact>
</mgrwt>
</event>
<event>
12    2  0.4097182E-002  0.1768188E+03  0.7546771E-02  0.1171942E+00
         21   -1    0    0  501  502  0.00000000000E+00  0.00000000000E+00  0.16566394069E+03  0.16566394069E+03  0.00000000000E+00 0. -1.
         21   -1    0    0  502  503 -0.00000000000E+00 -0.00000000000E+00 -0.20204092967E+03  0.20204092967E+03  0.00000000000E+00 0. -1.
         -6    2    1    2    0  503 -0.26933601880E+02 -0.19999539984E+02 -0.72716829027E+02  0.19118743688E+03  0.17360731058E+03 0.  0.
        -24    2    3    3    0    0  0.27414401033E+02  0.34912271308E+02 -0.73084870869E+02  0.11378434976E+03  0.75067062209E+02 0.  0.
          6    2    1    2  501    0  0.26933601880E+02  0.19999539984E+02  0.36339840052E+02  0.17651743348E+03  0.16944739549E+03 0.  0.
         24    2    5    5    0    0  0.30369217147E+02  0.74962762799E+02  0.38484248731E+02  0.12120515815E+03  0.81657503049E+02 0.  0.
          5    1    5    5  501    0 -0.34356152671E+01 -0.54963222816E+02 -0.21444086788E+01  0.55312275338E+02  0.47000000000E+01 0. -1.
        -15    1    6    6    0    0 -0.10354195555E+02  0.31125798749E+02  0.50434344080E+02  0.60189745847E+02  0.17770000000E+01 0.  1.
         16    1    6    6    0    0  0.40723412701E+02  0.43836964051E+02 -0.11950095349E+02  0.61015412299E+02  0.00000000000E+00 0. -1.
         -5    1    3    3    0  503 -0.54348002913E+02 -0.54911811292E+02  0.36804184264E+00  0.77403087114E+02  0.47000000000E+01 0.  1.
         15    1    4    4    0    0  0.41534343519E+02  0.42540724366E+02 -0.27640581543E+02  0.65589438161E+02  0.17770000000E+01 0. -1.
        -16    1    4    4    0    0 -0.14119942486E+02 -0.76284530584E+01 -0.45444289326E+02  0.48194911601E+02  0.00000000000E+00 0.  1.
<mgrwt>
<rscale>  2 0.17578923E+03</rscale>
<asrwt>0</asrwt>
<pdfrwt beam="1">  1       21 0.25486760E-01 0.17681883E+03</pdfrwt>
<pdfrwt beam="2">  1       21 0.31083220E-01 0.17681883E+03</pdfrwt>
<totfact> 0.14590691E+05</totfact>
</mgrwt>
</event>
<event>
12    2  0.4097182E-002  0.1788405E+03  0.7546771E-02  0.1169644E+00
         21   -1    0    0  501  502  0.00000000000E+00  0.00000000000E+00  0.50339996785E+03  0.50339996785E+03  0.00000000000E+00 0.  1.
         21   -1    0    0  502  503 -0.00000000000E+00 -0.00000000000E+00 -0.89030828615E+02  0.89030828615E+02  0.00000000000E+00 0.  1.
         -6    2    1    2    0  503  0.33737192079E+02  0.29507391435E+02  0.46705942959E+02  0.18483877278E+03  0.17313301977E+03 0.  0.
        -24    2    3    3    0    0 -0.34809288639E+02  0.56459612068E+02  0.25339992016E+02  0.10800365011E+03  0.81383652359E+02 0.  0.
          6    2    1    2  501    0 -0.33737192079E+02 -0.29507391435E+02  0.36766319627E+03  0.40759202369E+03  0.17013567409E+03 0.  0.
         24    2    5    5    0    0 -0.56223154092E+02 -0.12513615999E+02  0.10964142852E+03  0.14799285280E+03  0.81012394049E+02 0.  0.
          5    1    5    5  501    0  0.22485962013E+02 -0.16993775436E+02  0.25802176775E+03  0.25959917089E+03  0.47000000000E+01 0. -1.
        -15    1    6    6    0    0 -0.52900004665E+02 -0.56572858623E+01  0.12220734943E+03  0.13329744694E+03  0.17770000000E+01 0.  1.
         16    1    6    6    0    0 -0.33231494276E+01 -0.68563301366E+01 -0.12565920909E+02  0.14695405858E+02  0.00000000000E+00 0. -1.
         -5    1    3    3    0  503  0.68546480718E+02 -0.26952220633E+02  0.21365950943E+02  0.76835122669E+02  0.47000000000E+01 0.  1.
         15    1    4    4    0    0  0.22616870639E+02  0.87203928289E+00  0.15470535764E+02  0.27473232352E+02  0.17770000000E+01 0. -1.
        -16    1    4    4    0    0 -0.57426159278E+02  0.55587572785E+02  0.98694562525E+01  0.80530417758E+02  0.00000000000E+00 0.  1.
<mgrwt>
<rscale>  2 0.17811103E+03</rscale>
<asrwt>0</asrwt>
<pdfrwt beam="1">  1       21 0.77446147E-01 0.17884051E+03</pdfrwt>
<pdfrwt beam="2">  1       21 0.13697051E-01 0.17884051E+03</pdfrwt>
<totfact> 0.68867140E+04</totfact>
</mgrwt>
</event>
<event>
12    2  0.4097182E-002  0.1819295E+03  0.7546771E-02  0.1167985E+00
         21   -1    0    0  501  502  0.00000000000E+00  0.00000000000E+00  0.10464337212E+03  0.10464337212E+03  0.00000000000E+00 0.  1.
         21   -1    0    0  502  503 -0.00000000000E+00 -0.00000000000E+00 -0.31949578879E+03  0.31949578879E+03  0.00000000000E+00 0.  1.
         -6    2    1    2    0  503 -0.30705508839E+02 -0.46648732524E+02 -0.15943190261E+03  0.24190261531E+03  0.17314563582E+03 0.  0.
        -24    2    3    3    0    0  0.42830102378E+02  0.86002119473E+01 -0.85871572781E+02  0.12403343313E+03  0.78115198309E+02 0.  0.
          6    2    1    2  501    0  0.30705508839E+02  0.46648732524E+02 -0.55420514062E+02  0.18223654560E+03  0.16437698335E+03 0.  0.
         24    2    5    5    0    0  0.53195008425E+02  0.32893715609E+00 -0.79503107399E+02  0.12519829233E+03  0.80771598934E+02 0.  0.
          5    1    5    5  501    0 -0.22489499586E+02  0.46319795368E+02  0.24082593337E+02  0.57038253273E+02  0.47000000000E+01 0. -1.
        -15    1    6    6    0    0 -0.91620056898E+01  0.10607047070E+02  0.87738508882E+01  0.16630994685E+02  0.17770000000E+01 0.  1.
         16    1    6    6    0    0  0.62357014115E+02 -0.10278109914E+02 -0.88276958287E+02  0.10856729764E+03  0.00000000000E+00 0. -1.
         -5    1    3    3    0  503 -0.73535611217E+02 -0.55248944471E+02 -0.73560329828E+02  0.11786918218E+03  0.47000000000E+01 0.  1.
         15    1    4    4    0    0  0.48005102072E+02  0.36517762329E+02 -0.50572541415E+02  0.78732308900E+02  0.17770000000E+01 0. -1.
        -16    1    4    4    0    0 -0.51749996937E+01 -0.27917550382E+02 -0.35299031366E+02  0.45301124231E+02  0.00000000000E+00 0.  1.
<mgrwt>
<rscale>  2 0.17981170E+03</rscale>
<asrwt>0</asrwt>
<pdfrwt beam="1">  1       21 0.16098980E-01 0.18192950E+03</pdfrwt>
<pdfrwt beam="2">  1       21 0.49153198E-01 0.18192950E+03</pdfrwt>
<totfact> 0.13662014E+05</totfact>
</mgrwt>
</event>
<event>
12    2  0.4097182E-002  0.1764854E+03  0.7546771E-02  0.1172013E+00
         21   -1    0    0  503  502  0.00000000000E+00  0.00000000000E+00  0.20955629692E+03  0.20955629692E+03  0.00000000000E+00 0.  1.
         21   -1    0    0  501  503 -0.00000000000E+00 -0.00000000000E+00 -0.20334857909E+03  0.20334857909E+03  0.00000000000E+00 0.  1.
          6    2    1    2  501    0  0.55866152500E+01 -0.50201023045E+01 -0.10647804006E+03  0.20351244379E+03  0.17327241576E+03 0.  0.
         24    2    3    3    0    0  0.50814450561E+02 -0.10870885787E+02 -0.12256011005E+03  0.15492734597E+03  0.79254131829E+02 0.  0.
         -6    2    1    2    0  502 -0.55866152500E+01  0.50201023045E+01  0.11268575789E+03  0.20939243223E+03  0.17632554819E+03 0.  0.
        -24    2    5    5    0    0  0.49201574979E+02  0.46556337511E+02  0.88487500100E+02  0.13635374177E+03  0.78574917611E+02 0.  0.
          5    1    3    3  501    0 -0.45227835311E+02  0.58507834826E+01  0.16082069987E+02  0.48585097811E+02  0.47000000000E+01 0. -1.
        -15    1    4    4    0    0  0.72545585655E+01  0.31986768677E+02 -0.52839829211E+02  0.62217258622E+02  0.17770000000E+01 0.  1.
         16    1    4    4    0    0  0.43559891995E+02 -0.42857654464E+02 -0.69720280838E+02  0.92710087353E+02  0.00000000000E+00 0. -1.
         -5    1    5    5    0  502 -0.54788190229E+02 -0.41536235206E+02  0.24198257795E+02  0.73038690459E+02  0.47000000000E+01 0.  1.
         15    1    6    6    0    0  0.48612068370E+01  0.29008344528E+02 -0.64036400802E+01  0.30154265361E+02  0.17770000000E+01 0. -1.
        -16    1    6    6    0    0  0.44340368142E+02  0.17547992983E+02  0.94891140180E+02  0.10619947641E+03  0.00000000000E+00 0.  1.
<mgrwt>
<rscale>  2 0.17571787E+03</rscale>
<asrwt>0</asrwt>
<pdfrwt beam="1">  1       21 0.32239430E-01 0.17648544E+03</pdfrwt>
<pdfrwt beam="2">  1       21 0.31284397E-01 0.17648544E+03</pdfrwt>
<totfact> 0.91449759E+04</totfact>
</mgrwt>
</event>
<event>
12    2  0.4097182E-002  0.2599184E+03  0.7546771E-02  0.1107452E+00
         21   -1    0    0  503  502  0.00000000000E+00  0.00000000000E+00  0.78677836642E+02  0.78677836642E+02  0.00000000000E+00 0.  1.
         21   -1    0    0  501  503 -0.00000000000E+00 -0.00000000000E+00 -0.88914545514E+03  0.88914545514E+03  0.00000000000E+00 0. -1.
          6    2    1    2  501    0 -0.14940892657E+03 -0.11993635250E+03 -0.50153508572E+03  0.56409455068E+03  0.17308224606E+03 0.  0.
         24    2    3    3    0    0 -0.78077982941E+02 -0.12751086362E+03 -0.25200853136E+03  0.30441962299E+03  0.82509485639E+02 0.  0.
         -6    2    1    2    0  502  0.14940892657E+03  0.11993635250E+03 -0.30893253278E+03  0.40372874111E+03  0.17564119847E+03 0.  0.
        -24    2    5    5    0    0  0.10279660842E+03  0.67081645066E+02 -0.29798460614E+03  0.33225654092E+03  0.80823843517E+02 0.  0.
          5    1    3    3  501    0 -0.71330943628E+02  0.75745111167E+01 -0.24952655436E+03  0.25967492769E+03  0.47000000000E+01 0. -1.
        -15    1    4    4    0    0 -0.70638989410E+02 -0.93989072033E+02 -0.11996241681E+03  0.16798199803E+03  0.17770000000E+01 0.  1.
         16    1    4    4    0    0 -0.74389935313E+01 -0.33521791588E+02 -0.13204611456E+03  0.13643762496E+03  0.00000000000E+00 0. -1.
         -5    1    5    5    0  502  0.46612318151E+02  0.52854707438E+02 -0.10947926634E+02  0.71472200186E+02  0.47000000000E+01 0.  1.
         15    1    6    6    0    0  0.23452477498E+02  0.62677809471E+02 -0.15073574564E+03  0.16493316599E+03  0.17770000000E+01 0. -1.
        -16    1    6    6    0    0  0.79344130920E+02  0.44038355948E+01 -0.14724886050E+03  0.16732337493E+03  0.00000000000E+00 0.  1.
<mgrwt>
<rscale>  2 0.25948677E+03</rscale>
<asrwt>0</asrwt>
<pdfrwt beam="1">  1       21 0.12104283E-01 0.25991842E+03</pdfrwt>
<pdfrwt beam="2">  1       21 0.13679161E+00 0.25991842E+03</pdfrwt>
<totfact> 0.21111598E+04</totfact>
</mgrwt>
</event>
<event>
12    2  0.4097182E-002  0.1892284E+03  0.7546771E-02  0.1159526E+00
         21   -1    0    0  501  502  0.00000000000E+00  0.00000000000E+00  0.80101835274E+02  0.80101835274E+02  0.00000000000E+00 0. -1.
         21   -1    0    0  502  503 -0.00000000000E+00 -0.00000000000E+00 -0.79996198204E+03  0.79996198204E+03  0.00000000000E+00 0. -1.
         -6    2    1    2    0  503 -0.76041930350E+02 -0.51651314681E+01 -0.65462809516E+03  0.68142887663E+03  0.17320022281E+03 0.  0.
        -24    2    3    3    0    0 -0.11461202665E+03  0.78435714240E+00 -0.40413023690E+03  0.42786563850E+03  0.81309435835E+02 0.  0.
          6    2    1    2  501    0  0.76041930350E+02  0.51651314681E+01 -0.65232051615E+02  0.19863494069E+03  0.17143968429E+03 0.  0.
         24    2    5    5    0    0  0.24016602520E+02  0.12073128106E+02 -0.10495109400E+03  0.13264973415E+03  0.76541898466E+02 0.  0.
          5    1    5    5  501    0  0.52025327831E+02 -0.69079966384E+01  0.39719042385E+02  0.65985206534E+02  0.47000000000E+01 0. -1.
        -15    1    6    6    0    0  0.33725579699E+01  0.27225345685E+02 -0.31425160771E+01  0.27669960810E+02  0.17770000000E+01 0.  1.
         16    1    6    6    0    0  0.20644044550E+02 -0.15152217579E+02 -0.10180857792E+03  0.10497977334E+03  0.00000000000E+00 0. -1.
         -5    1    3    3    0  503  0.38570096303E+02 -0.59494886105E+01 -0.25049785825E+03  0.25356323813E+03  0.47000000000E+01 0.  1.
         15    1    4    4    0    0 -0.93361897399E+02 -0.28578406871E+02 -0.34459627828E+03  0.35816605361E+03  0.17770000000E+01 0. -1.
        -16    1    4    4    0    0 -0.21250129254E+02  0.29362764013E+02 -0.59533958622E+02  0.69699584884E+02  0.00000000000E+00 0.  1.
<mgrwt>
<rscale>  2 0.18882455E+03</rscale>
<asrwt>0</asrwt>
<pdfrwt beam="1">  1       21 0.12323360E-01 0.18922836E+03</pdfrwt>
<pdfrwt beam="2">  1       21 0.12307107E+00 0.18922836E+03</pdfrwt>
<totfact> 0.27805364E+04</totfact>
</mgrwt>
</event>
<event>
12    2  0.4097182E-002  0.2376803E+03  0.7546771E-02  0.1121371E+00
         21   -1    0    0  503  502  0.00000000000E+00  0.00000000000E+00  0.62529178351E+03  0.62529178351E+03  0.00000000000E+00 0.  1.
         21   -1    0    0  501  503 -0.00000000000E+00 -0.00000000000E+00 -0.50970246068E+03  0.50970246068E+03  0.00000000000E+00 0. -1.
          6    2    1    2  501    0  0.15839061200E+03  0.41162281888E+02 -0.45699135957E+03  0.51504218189E+03  0.17217847422E+03 0.  0.
         24    2    3    3    0    0  0.12876750678E+03  0.53750981651E+02 -0.20054366124E+03  0.25653973373E+03  0.78260054233E+02 0.  0.
         -6    2    1    2    0  502 -0.15839061200E+03 -0.41162281888E+02  0.57258068240E+03  0.61995206230E+03  0.17236589648E+03 0.  0.
        -24    2    5    5    0    0 -0.17268181877E+02  0.28848370492E+00  0.13439857477E+03  0.15771905211E+03  0.80709659722E+02 0.  0.
          5    1    3    3  501    0  0.29623105218E+02 -0.12588699763E+02 -0.25644769834E+03  0.25850244816E+03  0.47000000000E+01 0. -1.
        -15    1    4    4    0    0 -0.10344234243E+02  0.79375668873E+01 -0.12135649871E+02  0.17900834533E+02  0.17770000000E+01 0.  1.
         16    1    4    4    0    0  0.13911174102E+03  0.45813414764E+02 -0.18840801137E+03  0.23863889920E+03  0.00000000000E+00 0. -1.
         -5    1    5    5    0  502 -0.14112243012E+03 -0.41450765593E+02  0.43818210764E+03  0.46223301018E+03  0.47000000000E+01 0.  1.
         15    1    6    6    0    0 -0.23149023540E+02 -0.28653594466E+02  0.25373594720E+02  0.44764749578E+02  0.17770000000E+01 0. -1.
        -16    1    6    6    0    0  0.58808416631E+01  0.28942078171E+02  0.10902498005E+03  0.11295430254E+03  0.00000000000E+00 0.  1.
<mgrwt>
<rscale>  2 0.23764631E+03</rscale>
<asrwt>0</asrwt>
<pdfrwt beam="1">  1       21 0.96198736E-01 0.23768029E+03</pdfrwt>
<pdfrwt beam="2">  1       21 0.78415763E-01 0.23768029E+03</pdfrwt>
<totfact> 0.12429897E+03</totfact>
</mgrwt>
</event>
<event>
12    2  0.4097182E-002  0.2499827E+03  0.7546771E-02  0.1113437E+00
         21   -1    0    0  503  502  0.00000000000E+00  0.00000000000E+00  0.16626872903E+04  0.16626872903E+04  0.00000000000E+00 0.  1.
         21   -1    0    0  501  503 -0.00000000000E+00 -0.00000000000E+00 -0.69282094086E+02  0.69282094086E+02  0.00000000000E+00 0.  1.
          6    2    1    2  501    0 -0.17878728274E+03  0.27771408366E+02  0.20922549873E+03  0.32539739193E+03  0.17138264138E+03 0.  0.
         24    2    3    3    0    0 -0.43607635195E+02  0.46316208703E+01  0.14930908193E+03  0.17566077691E+03  0.81488826472E+02 0.  0.
         -6    2    1    2    0  502  0.17878728274E+03 -0.27771408366E+02  0.13841796975E+04  0.14065719924E+04  0.17249693162E+03 0.  0.
        -24    2    5    5    0    0  0.15124676904E+03 -0.81354146605E+02  0.10795538164E+04  0.10960102318E+04  0.79422310819E+02 0.  0.
          5    1    3    3  501    0 -0.13517964755E+03  0.23139787496E+02  0.59916416794E+02  0.14973661502E+03  0.47000000000E+01 0. -1.
        -15    1    4    4    0    0 -0.64262696086E+02 -0.61350789631E+01  0.81634284587E+02  0.10408961260E+03  0.17770000000E+01 0.  1.
         16    1    4    4    0    0  0.20655060891E+02  0.10766699833E+02  0.67674797345E+02  0.71571164315E+02  0.00000000000E+00 0. -1.
         -5    1    5    5    0  502  0.27540513705E+02  0.53582738238E+02  0.30462588111E+03  0.31056176064E+03  0.47000000000E+01 0.  1.
         15    1    6    6    0    0  0.41383039288E+02 -0.18384989266E+02  0.12247038035E+03  0.13058604659E+03  0.17770000000E+01 0. -1.
        -16    1    6    6    0    0  0.10986372975E+03 -0.62969157339E+02  0.95708343602E+03  0.96542418521E+03  0.00000000000E+00 0.  1.
<mgrwt>
<rscale>  2 0.24979055E+03</rscale>
<asrwt>0</asrwt>
<pdfrwt beam="1">  1       21 0.25579801E+00 0.24998267E+03</pdfrwt>
<pdfrwt beam="2">  1       21 0.10658785E-01 0.24998267E+03</pdfrwt>
<totfact> 0.42200113E+03</totfact>
</mgrwt>
</event>
<event>
12    2  0.4097182E-002  0.2185516E+03  0.7546771E-02  0.1135192E+00
         21   -1    0    0  501  502  0.00000000000E+00  0.00000000000E+00  0.33941122364E+03  0.33941122364E+03  0.00000000000E+00 0.  1.
         21   -1    0    0  502  503 -0.00000000000E+00 -0.00000000000E+00 -0.14930713288E+03  0.14930713288E+03  0.00000000000E+00 0.  1.
         -6    2    1    2    0  503  0.51658957787E+02  0.12227083963E+03  0.34168014363E+02  0.22120637659E+03  0.17362603980E+03 0.  0.
        -24    2    3    3    0    0  0.80861348659E+02  0.10688226005E+03 -0.20587526988E+02  0.15709828566E+03  0.79332527193E+02 0.  0.
          6    2    1    2  501    0 -0.51658957787E+02 -0.12227083963E+03  0.15593607640E+03  0.26751197993E+03  0.17212725914E+03 0.  0.
         24    2    5    5    0    0 -0.10812553147E+02 -0.10520923321E+03  0.17661997120E+03  0.21842592601E+03  0.73002581231E+02 0.  0.
          5    1    5    5  501    0 -0.40846404639E+02 -0.17061606420E+02 -0.20683894799E+02  0.49086053922E+02  0.47000000000E+01 0. -1.
        -15    1    6    6    0    0 -0.36831599272E+02 -0.83996842378E+02  0.14890271118E+03  0.17489199913E+03  0.17770000000E+01 0.  1.
         16    1    6    6    0    0  0.26019046125E+02 -0.21212390834E+02  0.27717260021E+02  0.43533926876E+02  0.00000000000E+00 0. -1.
         -5    1    3    3    0  503 -0.29202390873E+02  0.15388579585E+02  0.54755541351E+02  0.64108090932E+02  0.47000000000E+01 0.  1.
         15    1    4    4    0    0  0.25456096778E+02  0.61489078133E+02 -0.46196275651E+02  0.81031927078E+02  0.17770000000E+01 0. -1.
        -16    1    4    4    0    0  0.55405251881E+02  0.45393181914E+02  0.25608748663E+02  0.76066358585E+02  0.00000000000E+00 0.  1.
<mgrwt>
<rscale>  2 0.21825381E+03</rscale>
<asrwt>0</asrwt>
<pdfrwt beam="1">  1       21 0.52217111E-01 0.21855161E+03</pdfrwt>
<pdfrwt beam="2">  1       21 0.22970328E-01 0.21855161E+03</pdfrwt>
<totfact> 0.61190413E+04</totfact>
</mgrwt>
</event>
<event>
12    2  0.4097182E-002  0.1749499E+03  0.7546771E-02  0.1173225E+00
         21   -1    0    0  503  502  0.00000000000E+00  0.00000000000E+00  0.16407586890E+03  0.16407586890E+03  0.00000000000E+00 0.  1.
         21   -1    0    0  501  503 -0.00000000000E+00 -0.00000000000E+00 -0.18621356584E+03  0.18621356584E+03  0.00000000000E+00 0.  1.
          6    2    1    2  501    0  0.80087503176E+01  0.96644909742E+01  0.47726815215E+01  0.17501500036E+03  0.17449908136E+03 0.  0.
         24    2    3    3    0    0 -0.11550073633E+02 -0.56209348430E+02  0.30952273487E+02  0.10133073238E+03  0.77569188725E+02 0.  0.
         -6    2    1    2    0  502 -0.80087503176E+01 -0.96644909742E+01 -0.26910378462E+02  0.17527443438E+03  0.17274089385E+03 0.  0.
        -24    2    5    5    0    0 -0.65026156778E+02  0.14387683645E+02  0.61559624937E+01  0.10495399177E+03  0.80882865981E+02 0.  0.
          5    1    3    3  501    0  0.19558823950E+02  0.65873839404E+02 -0.26179591965E+02  0.73684267979E+02  0.47000000000E+01 0. -1.
        -15    1    4    4    0    0  0.33003926767E+02 -0.30896272455E+02  0.14253771602E+02  0.47435920646E+02  0.17770000000E+01 0.  1.
         16    1    4    4    0    0 -0.44554000400E+02 -0.25313075975E+02  0.16698501885E+02  0.53894811737E+02  0.00000000000E+00 0. -1.
         -5    1    5    5    0  502  0.57017406460E+02 -0.24052174619E+02 -0.33066340956E+02  0.70320442601E+02  0.47000000000E+01 0.  1.
         15    1    6    6    0    0 -0.70688184594E+01  0.13578983144E+02 -0.32028787084E+02  0.35543746408E+02  0.17770000000E+01 0. -1.
        -16    1    6    6    0    0 -0.57957338318E+02  0.80870050067E+00  0.38184749578E+02  0.69410245366E+02  0.00000000000E+00 0.  1.
<mgrwt>
<rscale>  2 0.17450985E+03</rscale>
<asrwt>0</asrwt>
<pdfrwt beam="1">  1       21 0.25242441E-01 0.17494991E+03</pdfrwt>
<pdfrwt beam="2">  1       21 0.28648241E-01 0.17494991E+03</pdfrwt>
<totfact> 0.17424875E+05</totfact>
</mgrwt>
</event>
<event>
12    2  0.4097182E-002  0.1929704E+03  0.7546771E-02  0.1155859E+00
         21   -1    0    0  503  502  0.00000000000E+00  0.00000000000E+00  0.96149407388E+03  0.96149407388E+03  0.00000000000E+00 0. -1.
         21   -1    0    0  501  503 -0.00000000000E+00 -0.00000000000E+00 -0.10886427905E+03  0.10886427905E+03  0.00000000000E+00 0. -1.
          6    2    1    2  501    0 -0.29047425922E+02  0.80478575381E+02 -0.34751551855E+01  0.19277458734E+03  0.17271193003E+03 0.  0.
         24    2    3    3    0    0 -0.66633824640E+02  0.26814698610E+01 -0.14652882943E+02  0.10552690202E+03  0.80460942109E+02 0.  0.
         -6    2    1    2    0  502  0.29047425922E+02 -0.80478575381E+02  0.85610495001E+03  0.87758376559E+03  0.17296539004E+03 0.  0.
        -24    2    5    5    0    0 -0.39506195458E+02 -0.17417511760E+02  0.52083197844E+03  0.52958038599E+03  0.85588119872E+02 0.  0.
          5    1    3    3  501    0  0.37586398718E+02  0.77797105520E+02  0.11177727757E+02  0.87247685320E+02  0.47000000000E+01 0. -1.
        -15    1    4    4    0    0 -0.40735670891E+02 -0.70361291757E+01  0.31306089718E+02  0.51885749288E+02  0.17770000000E+01 0.  1.
         16    1    4    4    0    0 -0.25898153749E+02  0.97175990367E+01 -0.45958972660E+02  0.53641152734E+02  0.00000000000E+00 0. -1.
         -5    1    5    5    0  502  0.68553621380E+02 -0.63061063621E+02  0.33527297156E+03  0.34800337960E+03  0.47000000000E+01 0.  1.
         15    1    6    6    0    0 -0.40676754470E+02  0.19423055845E+01  0.49781621640E+03  0.49948224588E+03  0.17770000000E+01 0. -1.
        -16    1    6    6    0    0  0.11705590115E+01 -0.19359817344E+02  0.23015762040E+02  0.30098140113E+02  0.00000000000E+00 0.  1.
<mgrwt>
<rscale>  2 0.19291360E+03</rscale>
<asrwt>0</asrwt>
<pdfrwt beam="1">  1       21 0.14792216E+00 0.19297041E+03</pdfrwt>
<pdfrwt beam="2">  1       21 0.16748351E-01 0.19297041E+03</pdfrwt>
<totfact> 0.99399500E+03</totfact>
</mgrwt>
</event>
<event>
12    2  0.4097182E-002  0.1745053E+03  0.7546771E-02  0.1173556E+00
         21   -1    0    0  501  502  0.00000000000E+00  0.00000000000E+00  0.46945931023E+02  0.46945931023E+02  0.00000000000E+00 0.  1.
         21   -1    0    0  502  503 -0.00000000000E+00 -0.00000000000E+00 -0.11376276528E+04  0.11376276528E+04  0.00000000000E+00 0.  1.
         -6    2    1    2    0  503 -0.20862762556E+02  0.47762913507E+01 -0.93439466358E+03  0.95031357059E+03  0.17188492462E+03 0.  0.
        -24    2    3    3    0    0 -0.46150669528E+02 -0.41731991759E+01 -0.27652613162E+03  0.29188159464E+03  0.81122524187E+02 0.  0.
          6    2    1    2  501    0  0.20862762556E+02 -0.47762913507E+01 -0.15628705815E+03  0.23426001318E+03  0.17318787893E+03 0.  0.
         24    2    5    5    0    0  0.18265881959E+02 -0.65987875124E+02 -0.63304603314E+02  0.12280854982E+03  0.79915111226E+02 0.  0.
          5    1    5    5  501    0  0.25968805969E+01  0.61211583773E+02 -0.92982454838E+02  0.11145146336E+03  0.47000000000E+01 0. -1.
        -15    1    6    6    0    0  0.26287946838E+02 -0.30288180492E+02  0.95650155147E+01  0.41268356852E+02  0.17770000000E+01 0.  1.
         16    1    6    6    0    0 -0.80220648797E+01 -0.35699694632E+02 -0.72869618829E+02  0.81540192972E+02  0.00000000000E+00 0. -1.
         -5    1    3    3    0  503  0.25287906972E+02  0.89494905267E+01 -0.65786853196E+03  0.65843197596E+03  0.47000000000E+01 0.  1.
         15    1    4    4    0    0 -0.13001707206E+02 -0.41481524824E+02 -0.13085682459E+03  0.13790006368E+03  0.17770000000E+01 0. -1.
        -16    1    4    4    0    0 -0.33148962322E+02  0.37308325649E+02 -0.14566930702E+03  0.15398153095E+03  0.00000000000E+00 0.  1.
<mgrwt>
<rscale>  2 0.17418116E+03</rscale>
<asrwt>0</asrwt>
<pdfrwt beam="1">  1       21 0.72224511E-02 0.17450533E+03</pdfrwt>
<pdfrwt beam="2">  1       21 0.17501963E+00 0.17450533E+03</pdfrwt>
<totfact> 0.28563430E+04</totfact>
</mgrwt>
</event>
<event>
12    2  0.4097182E-002  0.3089062E+03  0.7546771E-02  0.1081967E+00
         21   -1    0    0  503  502  0.00000000000E+00  0.00000000000E+00  0.68948996873E+03  0.68948996873E+03  0.00000000000E+00 0.  1.
         21   -1    0    0  501  503 -0.00000000000E+00 -0.00000000000E+00 -0.14542111827E+03  0.14542111827E+03  0.00000000000E+00 0.  1.
          6    2    1    2  501    0 -0.18614799854E+03 -0.15926032030E+03  0.38319372787E+03  0.48662407808E+03  0.17306251269E+03 0.  0.
         24    2    3    3    0    0 -0.13517047330E+03 -0.45904541547E+02  0.28654233885E+03  0.32910639127E+03  0.76329686465E+02 0.  0.
         -6    2    1    2    0  502  0.18614799854E+03  0.15926032030E+03  0.16087512259E+03  0.34828700893E+03  0.18817042419E+03 0.  0.
        -24    2    5    5    0    0  0.13464698950E+03  0.17273894939E+03  0.77294655984E+02  0.24908110299E+03  0.89990975138E+02 0.  0.
          5    1    3    3  501    0 -0.50977525244E+02 -0.11335577875E+03  0.96651389022E+02  0.15751768680E+03  0.47000000000E+01 0. -1.
        -15    1    4    4    0    0 -0.93594005434E+02 -0.67042740260E+02  0.19877182783E+03  0.22971278620E+03  0.17770000000E+01 0.  1.
         16    1    4    4    0    0 -0.41576467865E+02  0.21138198713E+02  0.87770511019E+02  0.99393605074E+02  0.00000000000E+00 0. -1.
         -5    1    5    5    0  502  0.51501009046E+02 -0.13478629099E+02  0.83580466602E+02  0.99205905936E+02  0.47000000000E+01 0.  1.
         15    1    6    6    0    0 -0.96272371085E+01  0.41518120145E+01 -0.58320048240E+01  0.12128118016E+02  0.17770000000E+01 0. -1.
        -16    1    6    6    0    0  0.14427422660E+03  0.16858713738E+03  0.83126660808E+02  0.23695298498E+03  0.00000000000E+00 0.  1.
<mgrwt>
<rscale>  2 0.30664049E+03</rscale>
<asrwt>0</asrwt>
<pdfrwt beam="1">  1       21 0.10607538E+00 0.30890619E+03</pdfrwt>
<pdfrwt beam="2">  1       21 0.22372480E-01 0.30890619E+03</pdfrwt>
<totfact> 0.12508397E+04</totfact>
</mgrwt>
</event>
<event>
12    2  0.4097182E-002  0.2281219E+03  0.7546771E-02  0.1128351E+00
         21   -1    0    0  503  502  0.00000000000E+00  0.00000000000E+00  0.72823327159E+03  0.72823327159E+03  0.00000000000E+00 0. -1.
         21   -1    0    0  501  503 -0.00000000000E+00 -0.00000000000E+00 -0.76757261873E+02  0.76757261873E+02  0.00000000000E+00 0.  1.
          6    2    1    2  501    0  0.10313362353E+03 -0.10783211720E+03  0.21212012542E+03  0.30994186893E+03  0.16971948829E+03 0.  0.
         24    2    3    3    0    0 -0.11941973277E+02 -0.57939248630E+02  0.95212081129E+02  0.13841556735E+03  0.81203211970E+02 0.  0.
         -6    2    1    2    0  502 -0.10313362353E+03  0.10783211720E+03  0.43935588429E+03  0.49504866453E+03  0.17255514303E+03 0.  0.
        -24    2    5    5    0    0 -0.98669021967E+02  0.44330904386E+02  0.16390619460E+03  0.21229973305E+03  0.80654392611E+02 0.  0.
          5    1    3    3  501    0  0.11507559681E+03 -0.49892868572E+02  0.11690804429E+03  0.17152630158E+03  0.47000000000E+01 0. -1.
        -15    1    4    4    0    0  0.28860492035E+02 -0.15746019787E+02  0.63917319930E+02  0.71898864077E+02  0.17770000000E+01 0.  1.
         16    1    4    4    0    0 -0.40802465312E+02 -0.42193228843E+02  0.31294761199E+02  0.66516703272E+02  0.00000000000E+00 0. -1.
         -5    1    5    5    0  502 -0.44646015626E+01  0.63501212816E+02  0.27544968970E+03  0.28274893148E+03  0.47000000000E+01 0.  1.
         15    1    6    6    0    0 -0.60850909740E+02  0.56711228496E+02  0.14731629210E+03  0.16918700984E+03  0.17770000000E+01 0. -1.
        -16    1    6    6    0    0 -0.37818112227E+02 -0.12380324110E+02  0.16589902499E+02  0.43112723208E+02  0.00000000000E+00 0.  1.
<mgrwt>
<rscale>  2 0.22758565E+03</rscale>
<asrwt>0</asrwt>
<pdfrwt beam="1">  1       21 0.11203588E+00 0.22812187E+03</pdfrwt>
<pdfrwt beam="2">  1       21 0.11808810E-01 0.22812187E+03</pdfrwt>
<totfact> 0.37019988E+04</totfact>
</mgrwt>
</event>
<event>
12    2  0.4097182E-002  0.2751130E+03  0.7546771E-02  0.1098625E+00
         21   -1    0    0  501  502  0.00000000000E+00  0.00000000000E+00  0.74817471520E+03  0.74817471520E+03  0.00000000000E+00 0.  1.
         21   -1    0    0  502  503 -0.00000000000E+00 -0.00000000000E+00 -0.15818442103E+03  0.15818442103E+03  0.00000000000E+00 0. -1.
         -6    2    1    2    0  503  0.20984239629E+03 -0.39188047050E+02  0.22010750771E+02  0.27599210459E+03  0.17354432960E+03 0.  0.
        -24    2    3    3    0    0  0.23100372291E+03 -0.45044143265E+02  0.69736954742E+01  0.24896806642E+03  0.80899757890E+02 0.  0.
          6    2    1    2  501    0 -0.20984239629E+03  0.39188047050E+02  0.56797954340E+03  0.63036703165E+03  0.17085753878E+03 0.  0.
         24    2    5    5    0    0 -0.10801198270E+03 -0.89241789257E+00  0.44779014949E+03  0.46775258823E+03  0.81296254488E+02 0.  0.
          5    1    5    5  501    0 -0.10183041359E+03  0.40080464943E+02  0.12018939391E+03  0.16261444342E+03  0.47000000000E+01 0. -1.
        -15    1    6    6    0    0 -0.39468801265E+02  0.36153052681E+02  0.23828044039E+03  0.24422439578E+03  0.17770000000E+01 0.  1.
         16    1    6    6    0    0 -0.68543181438E+02 -0.37045470574E+02  0.20950970910E+03  0.22352819245E+03  0.00000000000E+00 0. -1.
         -5    1    3    3    0  503 -0.21161326620E+02  0.58560962147E+01  0.15037055297E+02  0.27024038173E+02  0.47000000000E+01 0.  1.
         15    1    4    4    0    0  0.86188515936E+02  0.22642005800E+01  0.36746705315E+02  0.93739345870E+02  0.17770000000E+01 0. -1.
        -16    1    4    4    0    0  0.14481520697E+03 -0.47308343845E+02 -0.29773009840E+02  0.15522872055E+03  0.00000000000E+00 0.  1.
<mgrwt>
<rscale>  2 0.27469031E+03</rscale>
<asrwt>0</asrwt>
<pdfrwt beam="1">  1       21 0.11510380E+00 0.27511301E+03</pdfrwt>
<pdfrwt beam="2">  1       21 0.24336065E-01 0.27511301E+03</pdfrwt>
<totfact> 0.88563657E+03</totfact>
</mgrwt>
</event>
<event>
12    2  0.4097182E-002  0.3787926E+03  0.7546771E-02  0.1051399E+00
         21   -1    0    0  503  502  0.00000000000E+00  0.00000000000E+00  0.42010380560E+03  0.42010380560E+03  0.00000000000E+00 0. -1.
         21   -1    0    0  501  503 -0.00000000000E+00 -0.00000000000E+00 -0.38650756826E+03  0.38650756826E+03  0.00000000000E+00 0.  1.
          6    2    1    2  501    0 -0.33084321991E+03  0.65912621559E+02 -0.12103713379E+03  0.39747168975E+03  0.17184890619E+03 0.  0.
         24    2    3    3    0    0 -0.32695208817E+03  0.86013409186E+02 -0.13290997515E+03  0.37334210352E+03  0.86158518144E+02 0.  0.
         -6    2    1    2    0  502  0.33084321991E+03 -0.65912621559E+02  0.15463337113E+03  0.40913968410E+03  0.17228491461E+03 0.  0.
        -24    2    5    5    0    0  0.62441068178E+02 -0.50567876745E+01  0.36272403672E+02  0.10951565938E+03  0.82179889787E+02 0.  0.
          5    1    3    3  501    0 -0.38911317386E+01 -0.20100787627E+02  0.11872841367E+02  0.24129586228E+02  0.47000000000E+01 0. -1.
        -15    1    4    4    0    0 -0.65445753746E+02 -0.51873239626E+01  0.10695674842E+01  0.65683762963E+02  0.17770000000E+01 0.  1.
         16    1    4    4    0    0 -0.26150633442E+03  0.91200733149E+02 -0.13397954264E+03  0.30765834056E+03  0.00000000000E+00 0. -1.
         -5    1    5    5    0  502  0.26840215173E+03 -0.60855833885E+02  0.11836096746E+03  0.29962402472E+03  0.47000000000E+01 0.  1.
         15    1    6    6    0    0 -0.52967406890E+01 -0.20994339274E+02  0.33431403918E+02  0.39870217461E+02  0.17770000000E+01 0. -1.
        -16    1    6    6    0    0  0.67737808867E+02  0.15937551600E+02  0.28409997544E+01  0.69645441923E+02  0.00000000000E+00 0.  1.
<mgrwt>
<rscale>  2 0.37874302E+03</rscale>
<asrwt>0</asrwt>
<pdfrwt beam="1">  1       21 0.64631354E-01 0.37879256E+03</pdfrwt>
<pdfrwt beam="2">  1       21 0.59462703E-01 0.37879256E+03</pdfrwt>
<totfact> 0.52654457E+03</totfact>
</mgrwt>
</event>
<event>
12    2  0.4097182E-002  0.3692814E+03  0.7546771E-02  0.1055018E+00
         21   -1    0    0  501  502  0.00000000000E+00  0.00000000000E+00  0.15581487216E+03  0.15581487216E+03  0.00000000000E+00 0.  1.
         21   -1    0    0  502  503 -0.00000000000E+00 -0.00000000000E+00 -0.88623213278E+03  0.88623213278E+03  0.00000000000E+00 0. -1.
         -6    2    1    2    0  503  0.32077020131E+03  0.59801524732E+02 -0.30414351448E+03  0.47840571580E+03  0.17291329360E+03 0.  0.
        -24    2    3    3    0    0  0.24189541122E+03 -0.32740886011E+01 -0.15623715420E+03  0.29924615864E+03  0.81327150980E+02 0.  0.
          6    2    1    2  501    0 -0.32077020131E+03 -0.59801524732E+02 -0.42627374614E+03  0.56364128915E+03  0.17179188505E+03 0.  0.
         24    2    5    5    0    0 -0.11417491472E+03  0.35145125125E+02 -0.17090734011E+03  0.22169016678E+03  0.75273635289E+02 0.  0.
          5    1    5    5  501    0 -0.20659528659E+03 -0.94946649858E+02 -0.25536640603E+03  0.34195112237E+03  0.47000000000E+01 0. -1.
        -15    1    6    6    0    0 -0.22466979473E+02 -0.63437655199E+01 -0.79568960635E-01  0.23413085825E+02  0.17770000000E+01 0.  1.
         16    1    6    6    0    0 -0.91707935252E+02  0.41488890645E+02 -0.17082777115E+03  0.19827708095E+03  0.00000000000E+00 0. -1.
         -5    1    3    3    0  503  0.78874790091E+02  0.63075613334E+02 -0.14790636028E+03  0.17915955716E+03  0.47000000000E+01 0.  1.
         15    1    4    4    0    0  0.19099673529E+03 -0.16050161396E+02 -0.15540569590E+03  0.24676192700E+03  0.17770000000E+01 0. -1.
        -16    1    4    4    0    0  0.50898675934E+02  0.12776072795E+02 -0.83145829282E+00  0.52484231640E+02  0.00000000000E+00 0.  1.
<mgrwt>
<rscale>  2 0.36915039E+03</rscale>
<asrwt>0</asrwt>
<pdfrwt beam="1">  1       21 0.23971519E-01 0.36928140E+03</pdfrwt>
<pdfrwt beam="2">  1       21 0.13634341E+00 0.36928140E+03</pdfrwt>
<totfact> 0.56718782E+03</totfact>
</mgrwt>
</event>
<event>
12    2  0.4097182E-002  0.4308499E+03  0.7546771E-02  0.1033621E+00
         21   -1    0    0  503  502  0.00000000000E+00  0.00000000000E+00  0.27465876687E+04  0.27465876687E+04  0.00000000000E+00 0. -1.
         21   -1    0    0  501  503 -0.00000000000E+00 -0.00000000000E+00 -0.72435459217E+02  0.72435459217E+02  0.00000000000E+00 0.  1.
          6    2    1    2  501    0  0.21027946311E+03 -0.33198540244E+03  0.17045210887E+04  0.17581307664E+04  0.17663490568E+03 0.  0.
         24    2    3    3    0    0  0.22271192861E+03 -0.26169652581E+03  0.12893597768E+04  0.13368516460E+04  0.81474012119E+02 0.  0.
         -6    2    1    2    0  502 -0.21027946311E+03  0.33198540244E+03  0.96963112083E+03  0.10608923616E+04  0.17571662500E+03 0.  0.
        -24    2    5    5    0    0 -0.16194612093E+03  0.24949129714E+03  0.86842996071E+03  0.92158997757E+03  0.81762073562E+02 0.  0.
          5    1    3    3  501    0 -0.12432465504E+02 -0.70288876623E+02  0.41516131190E+03  0.42127912038E+03  0.47000000000E+01 0. -1.
        -15    1    4    4    0    0 -0.47234123226E+00 -0.68055965604E+01  0.52196254274E+01  0.87716286621E+01  0.17770000000E+01 0.  1.
         16    1    4    4    0    0  0.22318426985E+03 -0.25489092925E+03  0.12841401514E+04  0.13280800173E+04  0.00000000000E+00 0. -1.
         -5    1    5    5    0  502 -0.48333342177E+02  0.82494105301E+02  0.10120116012E+03  0.13930238399E+03  0.47000000000E+01 0.  1.
         15    1    6    6    0    0 -0.17812962478E+02  0.60050735414E+02  0.27815424927E+03  0.28512512441E+03  0.17770000000E+01 0. -1.
        -16    1    6    6    0    0 -0.14413315845E+03  0.18944056172E+03  0.59027571144E+03  0.63646485316E+03  0.00000000000E+00 0.  1.
<mgrwt>
<rscale>  2 0.43075597E+03</rscale>
<asrwt>0</asrwt>
<pdfrwt beam="1">  1       21 0.42255187E+00 0.43084992E+03</pdfrwt>
<pdfrwt beam="2">  1       21 0.11143919E-01 0.43084992E+03</pdfrwt>
<totfact> 0.32672371E+02</totfact>
</mgrwt>
</event>
<event>
12    2  0.4097182E-002  0.1804795E+03  0.7546771E-02  0.1167457E+00
         21   -1    0    0  503  502  0.00000000000E+00  0.00000000000E+00  0.70456067629E+02  0.70456067629E+02  0.00000000000E+00 0.  1.
         21   -1    0    0  501  503 -0.00000000000E+00 -0.00000000000E+00 -0.47435452939E+03  0.47435452939E+03  0.00000000000E+00 0.  1.
          6    2    1    2  501    0  0.49310216431E+02 -0.12875427393E+02 -0.24778999181E+03  0.30654971305E+03  0.17313455015E+03 0.  0.
         24    2    3    3    0    0 -0.22798270287E+01  0.68090968213E+01 -0.23599394864E+03  0.24989064747E+03  0.81857378966E+02 0.  0.
         -6    2    1    2    0  502 -0.49310216431E+02  0.12875427393E+02 -0.15610846996E+03  0.23826088397E+03  0.17263001003E+03 0.  0.
        -24    2    5    5    0    0 -0.84407687949E+02 -0.28767654132E+02 -0.13188270261E+03  0.17846994361E+03  0.80661253496E+02 0.  0.
          5    1    3    3  501    0  0.51590043460E+02 -0.19684524214E+02 -0.11796043175E+02  0.56659065579E+02  0.47000000000E+01 0. -1.
        -15    1    4    4    0    0  0.23027167899E+02 -0.56594727845E+01 -0.21058485734E+03  0.21192314636E+03  0.17770000000E+01 0.  1.
         16    1    4    4    0    0 -0.25306994927E+02  0.12468569606E+02 -0.25409091297E+02  0.37967501114E+02  0.00000000000E+00 0. -1.
         -5    1    5    5    0  502  0.35097471517E+02  0.41643081525E+02 -0.24225767349E+02  0.59790940363E+02  0.47000000000E+01 0.  1.
         15    1    6    6    0    0 -0.49909361139E+02  0.24978217896E+02 -0.53138014614E+02  0.77082177089E+02  0.17770000000E+01 0. -1.
        -16    1    6    6    0    0 -0.34498326810E+02 -0.53745872029E+02 -0.78744687992E+02  0.10138776652E+03  0.00000000000E+00 0.  1.
<mgrwt>
<rscale>  2 0.18035838E+03</rscale>
<asrwt>0</asrwt>
<pdfrwt beam="1">  1       21 0.10839395E-01 0.18047949E+03</pdfrwt>
<pdfrwt beam="2">  1       21 0.72977619E-01 0.18047949E+03</pdfrwt>
<totfact> 0.11940072E+05</totfact>
</mgrwt>
</event>
<event>
12    2  0.4097182E-002  0.2576231E+03  0.7546771E-02  0.1108805E+00
         21   -1    0    0  501  502  0.00000000000E+00  0.00000000000E+00  0.13757356481E+03  0.13757356481E+03  0.00000000000E+00 0. -1.
         21   -1    0    0  502  503 -0.00000000000E+00 -0.00000000000E+00 -0.69258540765E+03  0.69258540765E+03  0.00000000000E+00 0. -1.
         -6    2    1    2    0  503  0.21986434767E+02  0.18745676068E+03 -0.50819890029E+03  0.56976820290E+03  0.17534606454E+03 0.  0.
        -24    2    3    3    0    0  0.78309531652E+02  0.84789795981E+02 -0.28196017332E+03  0.31497642819E+03  0.79918200215E+02 0.  0.
          6    2    1    2  501    0 -0.21986434767E+02 -0.18745676068E+03 -0.46812942563E+02  0.26039076956E+03  0.17317176687E+03 0.  0.
         24    2    5    5    0    0 -0.39570379146E+02 -0.77610007619E+02 -0.79493058724E+02  0.14434946549E+03  0.83237573324E+02 0.  0.
          5    1    5    5  501    0  0.17583944378E+02 -0.10984675306E+03  0.32680116161E+02  0.11604130407E+03  0.47000000000E+01 0. -1.
        -15    1    6    6    0    0 -0.28406936081E+02  0.63890295397E+01 -0.43292459895E+02  0.52203146732E+02  0.17770000000E+01 0.  1.
         16    1    6    6    0    0 -0.11163443065E+02 -0.83999037159E+02 -0.36200598829E+02  0.92146318756E+02  0.00000000000E+00 0. -1.
         -5    1    3    3    0  503 -0.56323096885E+02  0.10266696470E+03 -0.22623872696E+03  0.25479177471E+03  0.47000000000E+01 0.  1.
         15    1    4    4    0    0  0.14556212817E+02 -0.20574193379E+01 -0.11711781929E+03  0.11805023351E+03  0.17770000000E+01 0. -1.
        -16    1    4    4    0    0  0.63753318835E+02  0.86847215318E+02 -0.16484235403E+03  0.19692619469E+03  0.00000000000E+00 0.  1.
<mgrwt>
<rscale>  2 0.25725361E+03</rscale>
<asrwt>0</asrwt>
<pdfrwt beam="1">  1       21 0.21165164E-01 0.25762314E+03</pdfrwt>
<pdfrwt beam="2">  1       21 0.10655160E+00 0.25762314E+03</pdfrwt>
<totfact> 0.14086240E+04</totfact>
</mgrwt>
</event>
<event>
12    2  0.4097182E-002  0.2187295E+03  0.7546771E-02  0.1135068E+00
         21   -1    0    0  501  502  0.00000000000E+00  0.00000000000E+00  0.69154544242E+02  0.69154544242E+02  0.00000000000E+00 0. -1.
         21   -1    0    0  502  503 -0.00000000000E+00 -0.00000000000E+00 -0.12926078259E+04  0.12926078259E+04  0.00000000000E+00 0. -1.
         -6    2    1    2    0  503 -0.10122000728E+03  0.86609285508E+02 -0.10783569862E+04  0.11003164985E+04  0.17348184001E+03 0.  0.
        -24    2    3    3    0    0 -0.60041583476E+02  0.10129945657E+03 -0.49325565116E+03  0.51356516611E+03  0.81126264488E+02 0.  0.
          6    2    1    2  501    0  0.10122000728E+03 -0.86609285508E+02 -0.14509629543E+03  0.26144587169E+03  0.17191378847E+03 0.  0.
         24    2    5    5    0    0  0.55369895215E+02  0.15871332699E+02 -0.34610153544E+02  0.10385847551E+03  0.79189618698E+02 0.  0.
          5    1    5    5  501    0  0.45850112068E+02 -0.10248061821E+03 -0.11048614189E+03  0.15758739618E+03  0.47000000000E+01 0. -1.
        -15    1    6    6    0    0  0.29529291268E+02  0.79419920441E+00 -0.58509022597E+02  0.65567318455E+02  0.17770000000E+01 0.  1.
         16    1    6    6    0    0  0.25840603947E+02  0.15077133494E+02  0.23898869053E+02  0.38291157056E+02  0.00000000000E+00 0. -1.
         -5    1    3    3    0  503 -0.41178423807E+02 -0.14690171059E+02 -0.58510133507E+03  0.58675133235E+03  0.47000000000E+01 0.  1.
         15    1    4    4    0    0 -0.37626638977E+02  0.21679023019E+02 -0.70703728714E+02  0.82993487593E+02  0.17770000000E+01 0. -1.
        -16    1    4    4    0    0 -0.22414944498E+02  0.79620433548E+02 -0.42255192244E+03  0.43057167851E+03  0.00000000000E+00 0.  1.
<mgrwt>
<rscale>  2 0.21841847E+03</rscale>
<asrwt>0</asrwt>
<pdfrwt beam="1">  1       21 0.10639162E-01 0.21872953E+03</pdfrwt>
<pdfrwt beam="2">  1       21 0.19886272E+00 0.21872953E+03</pdfrwt>
<totfact> 0.97210364E+03</totfact>
</mgrwt>
</event>
<event>
12    2  0.4097182E-002  0.1781282E+03  0.7546771E-02  0.1170228E+00
         21   -1    0    0  503  502  0.00000000000E+00  0.00000000000E+00  0.12325133890E+03  0.12325133890E+03  0.00000000000E+00 0. -1.
         21   -1    0    0  501  503 -0.00000000000E+00 -0.00000000000E+00 -0.30042580696E+03  0.30042580696E+03  0.00000000000E+00 0. -1.
          6    2    1    2  501    0 -0.37132127604E+02 -0.15514653110E+02 -0.17243621731E+03  0.24791915736E+03  0.17352279442E+03 0.  0.
         24    2    3    3    0    0 -0.36557643522E+00  0.52097808642E+02 -0.64982594763E+02  0.11566336252E+03  0.80255594801E+02 0.  0.
         -6    2    1    2    0  502  0.37132127604E+02  0.15514653110E+02 -0.47382507519E+01  0.17575798850E+03  0.17102315673E+03 0.  0.
        -24    2    5    5    0    0  0.87040405382E+02  0.30146521803E+02 -0.88500774958E+01  0.12337550200E+03  0.81598686737E+02 0.  0.
          5    1    3    3  501    0 -0.36766551169E+02 -0.67612461752E+02 -0.10745362254E+03  0.13225579483E+03  0.47000000000E+01 0. -1.
        -15    1    4    4    0    0 -0.25239991219E+02  0.61790097861E+02 -0.34544250233E+02  0.75176700537E+02  0.17770000000E+01 0.  1.
         16    1    4    4    0    0  0.24874414784E+02 -0.96922892193E+01 -0.30438344530E+02  0.40486661988E+02  0.00000000000E+00 0. -1.
         -5    1    5    5    0  502 -0.49908277778E+02 -0.14631868693E+02  0.41118267439E+01  0.52382486495E+02  0.47000000000E+01 0.  1.
         15    1    6    6    0    0  0.49718186731E+02 -0.21976130536E+02  0.12502160744E+02  0.55806004672E+02  0.17770000000E+01 0. -1.
        -16    1    6    6    0    0  0.37322218651E+02  0.52122652339E+02 -0.21352238240E+02  0.67569497332E+02  0.00000000000E+00 0.  1.
<mgrwt>
<rscale>  2 0.17751654E+03</rscale>
<asrwt>0</asrwt>
<pdfrwt beam="1">  1       21 0.18961745E-01 0.17812821E+03</pdfrwt>
<pdfrwt beam="2">  1       21 0.46219354E-01 0.17812821E+03</pdfrwt>
<totfact> 0.11493963E+05</totfact>
</mgrwt>
</event>
<event>
12    2  0.4097182E-002  0.1931782E+03  0.7546771E-02  0.1156133E+00
         21   -1    0    0  503  502  0.00000000000E+00  0.00000000000E+00  0.56626868546E+02  0.56626868546E+02  0.00000000000E+00 0.  1.
         21   -1    0    0  501  503 -0.00000000000E+00 -0.00000000000E+00 -0.76183773710E+03  0.76183773710E+03  0.00000000000E+00 0.  1.
          6    2    1    2  501    0 -0.81468448388E+02  0.30593131089E+02 -0.19847532342E+03  0.27696620437E+03  0.17246674057E+03 0.  0.
         24    2    3    3    0    0 -0.36442593571E+02 -0.32069022167E+02 -0.41267499622E+02  0.10177983813E+03  0.79370297440E+02 0.  0.
         -6    2    1    2    0  502  0.81468448388E+02 -0.30593131089E+02 -0.50673554514E+03  0.54149840128E+03  0.16990161309E+03 0.  0.
        -24    2    5    5    0    0 -0.10778285105E+02  0.21587075930E+02 -0.27639398564E+03  0.28790116574E+03  0.76884801206E+02 0.  0.
          5    1    3    3  501    0 -0.45025854817E+02  0.62662153255E+02 -0.15720782380E+03  0.17518636624E+03  0.47000000000E+01 0. -1.
        -15    1    4    4    0    0 -0.49738069179E+02  0.65198255377E+01 -0.33182857994E+02  0.60171782791E+02  0.17770000000E+01 0.  1.
         16    1    4    4    0    0  0.13295475608E+02 -0.38588847704E+02 -0.80846416287E+01  0.41608055338E+02  0.00000000000E+00 0. -1.
         -5    1    5    5    0  502  0.92246733493E+02 -0.52180207019E+02 -0.23034155949E+03  0.25359723554E+03  0.47000000000E+01 0.  1.
         15    1    6    6    0    0 -0.20493980898E+02 -0.18311939314E+02 -0.44011330870E+02  0.51918063797E+02  0.17770000000E+01 0. -1.
        -16    1    6    6    0    0  0.97156957937E+01  0.39899015244E+02 -0.23238265477E+03  0.23598310194E+03  0.00000000000E+00 0.  1.
<mgrwt>
<rscale>  2 0.19260401E+03</rscale>
<asrwt>0</asrwt>
<pdfrwt beam="1">  1       21 0.87118268E-02 0.19317822E+03</pdfrwt>
<pdfrwt beam="2">  1       21 0.11720579E+00 0.19317822E+03</pdfrwt>
<totfact> 0.57866610E+04</totfact>
</mgrwt>
</event>
<event>
12    2  0.4097182E-002  0.2225658E+03  0.7546771E-02  0.1132033E+00
         21   -1    0    0  503  502  0.00000000000E+00  0.00000000000E+00  0.27560350412E+03  0.27560350412E+03  0.00000000000E+00 0.  1.
         21   -1    0    0  501  503 -0.00000000000E+00 -0.00000000000E+00 -0.29131612068E+03  0.29131612068E+03  0.00000000000E+00 0.  1.
          6    2    1    2  501    0  0.28114151579E+02  0.13709117857E+03 -0.18345572381E+03  0.28842946818E+03  0.17306403079E+03 0.  0.
         24    2    3    3    0    0 -0.40336614073E+02  0.29892220309E+02 -0.74016439958E+02  0.12057187728E+03  0.80861343902E+02 0.  0.
         -6    2    1    2    0  502 -0.28114151579E+02 -0.13709117857E+03  0.16774310725E+03  0.27849015663E+03  0.17272701164E+03 0.  0.
        -24    2    5    5    0    0 -0.29222567295E+02 -0.14690236030E+03  0.76177214747E+02  0.18627361505E+03  0.80378042494E+02 0.  0.
          5    1    3    3  501    0  0.68450765652E+02  0.10719895826E+03 -0.10943928385E+03  0.16785759089E+03  0.47000000000E+01 0. -1.
        -15    1    4    4    0    0  0.24947507529E+02  0.97616332056E+01 -0.21817667530E+02  0.34595317027E+02  0.17770000000E+01 0.  1.
         16    1    4    4    0    0 -0.65284121602E+02  0.20130587104E+02 -0.52198772428E+02  0.85976560256E+02  0.00000000000E+00 0. -1.
         -5    1    5    5    0  502  0.11084157156E+01  0.98111817299E+01  0.91565892502E+02  0.92216541585E+02  0.47000000000E+01 0.  1.
         15    1    6    6    0    0  0.47715305509E+01  0.88877893297E-01  0.27169552709E+02  0.27642679438E+02  0.17770000000E+01 0. -1.
        -16    1    6    6    0    0 -0.33994097846E+02 -0.14699123819E+03  0.49007662038E+02  0.15863093561E+03  0.00000000000E+00 0.  1.
<mgrwt>
<rscale>  2 0.22250033E+03</rscale>
<asrwt>0</asrwt>
<pdfrwt beam="1">  1       21 0.42400539E-01 0.22256585E+03</pdfrwt>
<pdfrwt beam="2">  1       21 0.44817864E-01 0.22256585E+03</pdfrwt>
<totfact> 0.25153974E+04</totfact>
</mgrwt>
</event>
<event>
12    2  0.4097182E-002  0.1972918E+03  0.7546771E-02  0.1152118E+00
         21   -1    0    0  501  502  0.00000000000E+00  0.00000000000E+00  0.28230747135E+03  0.28230747135E+03  0.00000000000E+00 0.  1.
         21   -1    0    0  502  503 -0.00000000000E+00 -0.00000000000E+00 -0.21991055369E+03  0.21991055369E+03  0.00000000000E+00 0.  1.
         -6    2    1    2    0  503 -0.30419232949E+01  0.94873307217E+02 -0.12237539770E+03  0.23216325515E+03  0.17295618336E+03 0.  0.
        -24    2    3    3    0    0  0.61755129837E+01  0.98876416841E+02 -0.18969275057E+02  0.12816372526E+03  0.79065949109E+02 0.  0.
          6    2    1    2  501    0  0.30419232949E+01 -0.94873307217E+02  0.18477231536E+03  0.27005476988E+03  0.17256469075E+03 0.  0.
         24    2    5    5    0    0  0.38676276245E+02 -0.31133392276E+02  0.17179737741E+03  0.19573772687E+03  0.79585026096E+02 0.  0.
          5    1    5    5  501    0 -0.35634352951E+02 -0.63739914941E+02  0.12974937955E+02  0.74317043011E+02  0.47000000000E+01 0. -1.
        -15    1    6    6    0    0  0.10127737079E+02 -0.11447659223E+02  0.15746470929E+03  0.15821476657E+03  0.17770000000E+01 0.  1.
         16    1    6    6    0    0  0.28548539167E+02 -0.19685733052E+02  0.14332668113E+02  0.37522960299E+02  0.00000000000E+00 0. -1.
         -5    1    3    3    0  503 -0.92174362787E+01 -0.40031096241E+01 -0.10340612264E+03  0.10399952989E+03  0.47000000000E+01 0.  1.
         15    1    4    4    0    0  0.30746082134E+02  0.30504753570E+02  0.17651208252E+02  0.46803679756E+02  0.17770000000E+01 0. -1.
        -16    1    4    4    0    0 -0.24570569150E+02  0.68371663272E+02 -0.36620483309E+02  0.81360045505E+02  0.00000000000E+00 0.  1.
<mgrwt>
<rscale>  2 0.19720593E+03</rscale>
<asrwt>0</asrwt>
<pdfrwt beam="1">  1       21 0.43431919E-01 0.19729176E+03</pdfrwt>
<pdfrwt beam="2">  1       21 0.33832393E-01 0.19729176E+03</pdfrwt>
<totfact> 0.42788104E+04</totfact>
</mgrwt>
</event>
<event>
12    2  0.4097182E-002  0.1888469E+03  0.7546771E-02  0.1159647E+00
         21   -1    0    0  501  502  0.00000000000E+00  0.00000000000E+00  0.45173700436E+02  0.45173700436E+02  0.00000000000E+00 0. -1.
         21   -1    0    0  502  503 -0.00000000000E+00 -0.00000000000E+00 -0.10077634536E+04  0.10077634536E+04  0.00000000000E+00 0. -1.
         -6    2    1    2    0  503 -0.31341610920E+02 -0.67461529464E+02 -0.23543430979E+03  0.30181525602E+03  0.17357931906E+03 0.  0.
        -24    2    3    3    0    0  0.88650065847E+01  0.27303654300E+02 -0.10555021200E+03  0.13601724335E+03  0.80844080522E+02 0.  0.
          6    2    1    2  501    0  0.31341610920E+02  0.67461529464E+02 -0.72715544339E+03  0.75112189804E+03  0.17290376609E+03 0.  0.
         24    2    5    5    0    0  0.12484099415E+02 -0.29983730765E+02 -0.32820078325E+03  0.33997947098E+03  0.82555494739E+02 0.  0.
          5    1    5    5  501    0  0.18857511504E+02  0.97445260228E+02 -0.39895466014E+03  0.41114242706E+03  0.47000000000E+01 0. -1.
        -15    1    6    6    0    0  0.30607929233E+02  0.65744005307E+01 -0.51564059939E+02  0.60349631984E+02  0.17770000000E+01 0.  1.
         16    1    6    6    0    0 -0.18123829818E+02 -0.36558131295E+02 -0.27663672331E+03  0.27962983899E+03  0.00000000000E+00 0. -1.
         -5    1    3    3    0  503 -0.40206617504E+02 -0.94765183764E+02 -0.12988409779E+03  0.16579801267E+03  0.47000000000E+01 0.  1.
         15    1    4    4    0    0  0.11136091919E+02 -0.27984240653E+02 -0.42632766430E+02  0.52228735105E+02  0.17770000000E+01 0. -1.
        -16    1    4    4    0    0 -0.22710853345E+01  0.55287894953E+02 -0.62917445570E+02  0.83788508246E+02  0.00000000000E+00 0.  1.
<mgrwt>
<rscale>  2 0.18869148E+03</rscale>
<asrwt>0</asrwt>
<pdfrwt beam="1">  1       21 0.69497996E-02 0.18884685E+03</pdfrwt>
<pdfrwt beam="2">  1       21 0.15504054E+00 0.18884685E+03</pdfrwt>
<totfact> 0.42041716E+04</totfact>
</mgrwt>
</event>
<event>
12    2  0.4097182E-002  0.2132223E+03  0.7546771E-02  0.1139364E+00
         21   -1    0    0  503  502  0.00000000000E+00  0.00000000000E+00  0.38039543508E+03  0.38039543508E+03  0.00000000000E+00 0.  1.
         21   -1    0    0  501  503 -0.00000000000E+00 -0.00000000000E+00 -0.14585305536E+03  0.14585305536E+03  0.00000000000E+00 0.  1.
          6    2    1    2  501    0  0.10175398861E+03 -0.66049234510E+02  0.31318017950E+01  0.21158264281E+03  0.17332348651E+03 0.  0.
         24    2    3    3    0    0  0.37440685769E+02  0.96834021139E+01 -0.47077186606E+02  0.10016152412E+03  0.79501548342E+02 0.  0.
         -6    2    1    2    0  502 -0.10175398861E+03  0.66049234510E+02  0.23141057792E+03  0.31466584763E+03  0.17534926437E+03 0.  0.
        -24    2    5    5    0    0 -0.15094681642E+02  0.51524024718E+02  0.42033039907E+02  0.10584353295E+03  0.80953705827E+02 0.  0.
          5    1    3    3  501    0  0.64313302837E+02 -0.75732636624E+02  0.50208988401E+02  0.11142111868E+03  0.47000000000E+01 0. -1.
        -15    1    4    4    0    0 -0.16639388399E+02  0.14357637042E+02  0.73993957940E+01  0.23257682061E+02  0.17770000000E+01 0.  1.
         16    1    4    4    0    0  0.54080074168E+02 -0.46742349279E+01 -0.54476582400E+02  0.76903842064E+02  0.00000000000E+00 0. -1.
         -5    1    5    5    0  502 -0.86659306964E+02  0.14525209792E+02  0.18937753802E+03  0.20882231468E+03  0.47000000000E+01 0.  1.
         15    1    6    6    0    0 -0.31478765486E+02  0.42506270859E+02  0.59933594019E+02  0.79955544897E+02  0.17770000000E+01 0. -1.
        -16    1    6    6    0    0  0.16384083844E+02  0.90177538592E+01 -0.17900554112E+02  0.25887988056E+02  0.00000000000E+00 0.  1.
<mgrwt>
<rscale>  2 0.21280535E+03</rscale>
<asrwt>0</asrwt>
<pdfrwt beam="1">  1       21 0.58522374E-01 0.21322228E+03</pdfrwt>
<pdfrwt beam="2">  1       21 0.22438932E-01 0.21322228E+03</pdfrwt>
<totfact> 0.50331382E+04</totfact>
</mgrwt>
</event>
<event>
12    2  0.4097182E-002  0.2376338E+03  0.7546771E-02  0.1123653E+00
         21   -1    0    0  503  502  0.00000000000E+00  0.00000000000E+00  0.95650668409E+03  0.95650668409E+03  0.00000000000E+00 0. -1.
         21   -1    0    0  501  503 -0.00000000000E+00 -0.00000000000E+00 -0.49816381097E+03  0.49816381097E+03  0.00000000000E+00 0. -1.
          6    2    1    2  501    0 -0.12505151278E+03 -0.71920206518E+02 -0.45688921621E+03  0.50909152072E+03  0.17209306674E+03 0.  0.
         24    2    3    3    0    0 -0.10703617056E+03 -0.60812692612E+01 -0.18317765374E+03  0.22695781545E+03  0.80387023342E+02 0.  0.
         -6    2    1    2    0  502  0.12505151278E+03  0.71920206518E+02  0.91523208933E+03  0.94557897435E+03  0.18883702611E+03 0.  0.
        -24    2    5    5    0    0  0.14032654263E+02  0.83624565262E+01  0.59488724178E+03  0.60060406819E+03  0.81040546773E+02 0.  0.
          5    1    3    3  501    0 -0.18015342219E+02 -0.65838937256E+02 -0.27371156247E+03  0.28213370526E+03  0.47000000000E+01 0. -1.
        -15    1    4    4    0    0 -0.46952157524E+02 -0.39956651443E+02 -0.61564063263E+02  0.87145457168E+02  0.17770000000E+01 0.  1.
         16    1    4    4    0    0 -0.60084013033E+02  0.33875382181E+02 -0.12161359048E+03  0.13981235828E+03  0.00000000000E+00 0. -1.
         -5    1    5    5    0  502  0.11101885851E+03  0.63557749991E+02  0.32034484755E+03  0.34497490616E+03  0.47000000000E+01 0.  1.
         15    1    6    6    0    0  0.26032574511E+02  0.35314277216E+02  0.47945221379E+03  0.48145859235E+03  0.17770000000E+01 0. -1.
        -16    1    6    6    0    0 -0.11999920248E+02 -0.26951820690E+02  0.11543502799E+03  0.11914547583E+03  0.00000000000E+00 0.  1.
<mgrwt>
<rscale>  2 0.23429521E+03</rscale>
<asrwt>0</asrwt>
<pdfrwt beam="1">  1       21 0.14715487E+00 0.23763379E+03</pdfrwt>
<pdfrwt beam="2">  1       21 0.76640586E-01 0.23763379E+03</pdfrwt>
<totfact> 0.45407190E+02</totfact>
</mgrwt>
</event>
<event>
12    2  0.4097182E-002  0.1927133E+03  0.7546771E-02  0.1156320E+00
         21   -1    0    0  503  502  0.00000000000E+00  0.00000000000E+00  0.17372351466E+03  0.17372351466E+03  0.00000000000E+00 0. -1.
         21   -1    0    0  501  503 -0.00000000000E+00 -0.00000000000E+00 -0.25377454249E+03  0.25377454249E+03  0.00000000000E+00 0. -1.
          6    2    1    2  501    0  0.20365003442E+02 -0.82320188695E+02  0.46205202063E+02  0.19817498418E+03  0.17305217948E+03 0.  0.
         24    2    3    3    0    0  0.20048614984E+02 -0.12389195755E+03  0.48971649117E+02  0.15624581418E+03  0.79141442530E+02 0.  0.
         -6    2    1    2    0  502 -0.20365003442E+02  0.82320188695E+02 -0.12625622989E+03  0.22932307297E+03  0.17163067727E+03 0.  0.
        -24    2    5    5    0    0  0.40687944584E+02  0.46404332123E+02 -0.24330980385E+02  0.10511253517E+03  0.81533904410E+02 0.  0.
          5    1    3    3  501    0  0.31638845860E+00  0.41571768850E+02 -0.27664470540E+01  0.41929169993E+02  0.47000000000E+01 0. -1.
        -15    1    4    4    0    0  0.23554734830E+02  0.60158323207E+00  0.10832651991E+02  0.25994066889E+02  0.17770000000E+01 0.  1.
         16    1    4    4    0    0 -0.35061198464E+01 -0.12449354078E+03  0.38138997126E+02  0.13025174729E+03  0.00000000000E+00 0. -1.
         -5    1    5    5    0  502 -0.61052948026E+02  0.35915856572E+02 -0.10192524950E+03  0.12421053781E+03  0.47000000000E+01 0.  1.
         15    1    6    6    0    0  0.11127582884E+02 -0.79331559667E+01  0.23280352418E+02  0.27053476711E+02  0.17770000000E+01 0. -1.
        -16    1    6    6    0    0  0.29560361700E+02  0.54337488090E+02 -0.47611332803E+02  0.78059058456E+02  0.00000000000E+00 0.  1.
<mgrwt>
<rscale>  2 0.19239361E+03</rscale>
<asrwt>0</asrwt>
<pdfrwt beam="1">  1       21 0.26726695E-01 0.19271327E+03</pdfrwt>
<pdfrwt beam="2">  1       21 0.39042237E-01 0.19271327E+03</pdfrwt>
<totfact> 0.84303690E+04</totfact>
</mgrwt>
</event>
<event>
12    2  0.4097182E-002  0.1930775E+03  0.7546771E-02  0.1155853E+00
         21   -1    0    0  501  502  0.00000000000E+00  0.00000000000E+00  0.95035744487E+03  0.95035744487E+03  0.00000000000E+00 0.  1.
         21   -1    0    0  502  503 -0.00000000000E+00 -0.00000000000E+00 -0.74374990294E+02  0.74374990294E+02  0.00000000000E+00 0.  1.
         -6    2    1    2    0  503  0.38424623130E+02  0.77642187281E+02  0.85502284822E+02  0.21116240540E+03  0.17255190476E+03 0.  0.
        -24    2    3    3    0    0  0.17611742933E+02  0.11760621505E+03  0.44361682878E+02  0.14996650173E+03  0.79878641858E+02 0.  0.
          6    2    1    2  501    0 -0.38424623130E+02 -0.77642187281E+02  0.79048016976E+03  0.81357002977E+03  0.17185032340E+03 0.  0.
         24    2    5    5    0    0 -0.34567612869E+02 -0.11797999660E+03  0.67233184922E+03  0.68857750586E+03  0.83634123635E+02 0.  0.
          5    1    5    5  501    0 -0.38570102614E+01  0.40337809320E+02  0.11814832054E+03  0.12499252391E+03  0.47000000000E+01 0. -1.
        -15    1    6    6    0    0 -0.29601276163E+02 -0.37209841677E+02  0.10222394783E+03  0.11275504914E+03  0.17770000000E+01 0.  1.
         16    1    6    6    0    0 -0.49663367053E+01 -0.80770154924E+02  0.57010790139E+03  0.57582245672E+03  0.00000000000E+00 0. -1.
         -5    1    3    3    0  503  0.20812880197E+02 -0.39964027770E+02  0.41140601944E+02  0.61195903670E+02  0.47000000000E+01 0.  1.
         15    1    4    4    0    0 -0.12851950863E+02  0.22724264003E+02  0.42962633286E+02  0.50304178786E+02  0.17770000000E+01 0. -1.
        -16    1    4    4    0    0  0.30463693796E+02  0.94881951049E+02  0.13990495916E+01  0.99662322942E+02  0.00000000000E+00 0.  1.
<mgrwt>
<rscale>  2 0.19292062E+03</rscale>
<asrwt>0</asrwt>
<pdfrwt beam="1">  1       21 0.14620883E+00 0.19307750E+03</pdfrwt>
<pdfrwt beam="2">  1       21 0.11442307E-01 0.19307750E+03</pdfrwt>
<totfact> 0.20417797E+04</totfact>
</mgrwt>
</event>
<event>
12    2  0.4097182E-002  0.2510724E+03  0.7546771E-02  0.1113141E+00
         21   -1    0    0  501  502  0.00000000000E+00  0.00000000000E+00  0.19256878073E+03  0.19256878073E+03  0.00000000000E+00 0.  1.
         21   -1    0    0  502  503 -0.00000000000E+00 -0.00000000000E+00 -0.33606017822E+03  0.33606017822E+03  0.00000000000E+00 0.  1.
         -6    2    1    2    0  503 -0.11406587904E+03  0.13563009651E+03 -0.12311686266E+03  0.27673117780E+03  0.17325078660E+03 0.  0.
        -24    2    3    3    0    0 -0.49610482445E+02  0.14968124514E+03 -0.11838756196E+03  0.21042590491E+03  0.73469527820E+02 0.  0.
          6    2    1    2  501    0  0.11406587904E+03 -0.13563009651E+03 -0.20374534828E+02  0.25189778115E+03  0.17785056265E+03 0.  0.
         24    2    5    5    0    0  0.11785114352E+03 -0.69769731967E+02 -0.64942795441E+02  0.17214606832E+03  0.81608790148E+02 0.  0.
          5    1    5    5  501    0 -0.37852644783E+01 -0.65860364544E+02  0.44568260612E+02  0.79751712828E+02  0.47000000000E+01 0. -1.
        -15    1    6    6    0    0  0.75363598470E+02 -0.43471625405E+02  0.38679342334E+01  0.87106675025E+02  0.17770000000E+01 0.  1.
         16    1    6    6    0    0  0.42487545051E+02 -0.26298106562E+02 -0.68810729674E+02  0.85039393292E+02  0.00000000000E+00 0. -1.
         -5    1    3    3    0  503 -0.64455396598E+02 -0.14051148624E+02 -0.47293006993E+01  0.66305272893E+02  0.47000000000E+01 0.  1.
         15    1    4    4    0    0  0.59400642423E+01  0.95123506682E+01  0.78312645366E+01  0.13793317646E+02  0.17770000000E+01 0. -1.
        -16    1    4    4    0    0 -0.55550546687E+02  0.14016889447E+03 -0.12621882649E+03  0.19663258727E+03  0.00000000000E+00 0.  1.
<mgrwt>
<rscale>  2 0.25025924E+03</rscale>
<asrwt>0</asrwt>
<pdfrwt beam="1">  1       21 0.29625967E-01 0.25107244E+03</pdfrwt>
<pdfrwt beam="2">  1       21 0.51701565E-01 0.25107244E+03</pdfrwt>
<totfact> 0.37736879E+04</totfact>
</mgrwt>
</event>
<event>
12    2  0.4097182E-002  0.2161220E+03  0.7546771E-02  0.1137013E+00
         21   -1    0    0  503  502  0.00000000000E+00  0.00000000000E+00  0.16106417115E+03  0.16106417115E+03  0.00000000000E+00 0.  1.
         21   -1    0    0  501  503 -0.00000000000E+00 -0.00000000000E+00 -0.44561853153E+03  0.44561853153E+03  0.00000000000E+00 0. -1.
          6    2    1    2  501    0  0.47470637118E+02  0.11982882650E+03 -0.32213227421E+03  0.38731810005E+03  0.17214441462E+03 0.  0.
         24    2    3    3    0    0  0.12923289974E+02 -0.14497504353E+01 -0.18033704930E+03  0.19750243097E+03  0.79477328149E+02 0.  0.
         -6    2    1    2    0  502 -0.47470637118E+02 -0.11982882650E+03  0.37577913828E+02  0.21936460264E+03  0.17348291049E+03 0.  0.
        -24    2    5    5    0    0 -0.26235952368E+01 -0.12128862475E+03 -0.19678484161E+02  0.14646896980E+03  0.79674981199E+02 0.  0.
          5    1    3    3  501    0  0.34547347144E+02  0.12127857694E+03 -0.14179522492E+03  0.18981566908E+03  0.47000000000E+01 0. -1.
        -15    1    4    4    0    0  0.15650698159E+02  0.28013906081E+02 -0.28963228667E+02  0.43263721876E+02  0.17770000000E+01 0.  1.
         16    1    4    4    0    0 -0.27274081849E+01 -0.29463656516E+02 -0.15137382063E+03  0.15423870909E+03  0.00000000000E+00 0. -1.
         -5    1    5    5    0  502 -0.44847041882E+02  0.14597982479E+01  0.57256397989E+02  0.72895632840E+02  0.47000000000E+01 0.  1.
         15    1    6    6    0    0 -0.80101117413E+01  0.51399665568E+01 -0.17391695140E+02  0.19905022862E+02  0.17770000000E+01 0. -1.
        -16    1    6    6    0    0  0.53865165045E+01 -0.12642859131E+03 -0.22867890214E+01  0.12656394694E+03  0.00000000000E+00 0.  1.
<mgrwt>
<rscale>  2 0.21585329E+03</rscale>
<asrwt>0</asrwt>
<pdfrwt beam="1">  1       21 0.24779103E-01 0.21612202E+03</pdfrwt>
<pdfrwt beam="2">  1       21 0.68556698E-01 0.21612202E+03</pdfrwt>
<totfact> 0.29504329E+04</totfact>
</mgrwt>
</event>
<event>
12    2  0.4097182E-002  0.2266279E+03  0.7546771E-02  0.1129652E+00
         21   -1    0    0  501  502  0.00000000000E+00  0.00000000000E+00  0.90186233991E+02  0.90186233991E+02  0.00000000000E+00 0.  1.
         21   -1    0    0  502  503 -0.00000000000E+00 -0.00000000000E+00 -0.56101082077E+03  0.56101082077E+03  0.00000000000E+00 0. -1.
         -6    2    1    2    0  503 -0.13751339005E+03 -0.32067758538E+02 -0.23431404045E+03  0.32598050931E+03  0.17726237423E+03 0.  0.
        -24    2    3    3    0    0 -0.33176469734E+02 -0.67199898910E+02 -0.15449069813E+03  0.18991318698E+03  0.81136540604E+02 0.  0.
          6    2    1    2  501    0  0.13751339005E+03  0.32067758538E+02 -0.23651054633E+03  0.32521654545E+03  0.17288808325E+03 0.  0.
         24    2    5    5    0    0  0.74279165620E+02 -0.18580516771E+02 -0.21362896635E+03  0.24089886265E+03  0.80822625010E+02 0.  0.
          5    1    5    5  501    0  0.63234224428E+02  0.50648275309E+02 -0.22881579980E+02  0.84317682802E+02  0.47000000000E+01 0. -1.
        -15    1    6    6    0    0  0.35533913269E+02 -0.26433301846E+02 -0.31119298881E+02  0.54156688696E+02  0.17770000000E+01 0.  1.
         16    1    6    6    0    0  0.38745252352E+02  0.78527850753E+01 -0.18250966747E+03  0.18674217396E+03  0.00000000000E+00 0. -1.
         -5    1    3    3    0  503 -0.10433692032E+03  0.35132140372E+02 -0.79823342320E+02  0.13606732233E+03  0.47000000000E+01 0.  1.
         15    1    4    4    0    0 -0.39998300945E+02 -0.25988313385E+02 -0.13618119807E+03  0.14430430676E+03  0.17770000000E+01 0. -1.
        -16    1    4    4    0    0  0.68218312112E+01 -0.41211585525E+02 -0.18309500059E+02  0.45608880221E+02  0.00000000000E+00 0.  1.
<mgrwt>
<rscale>  2 0.22577190E+03</rscale>
<asrwt>0</asrwt>
<pdfrwt beam="1">  1       21 0.13874805E-01 0.22662794E+03</pdfrwt>
<pdfrwt beam="2">  1       21 0.86309356E-01 0.22662794E+03</pdfrwt>
<totfact> 0.51444464E+04</totfact>
</mgrwt>
</event>
<event>
12    2  0.4097182E-002  0.2191915E+03  0.7546771E-02  0.1134806E+00
         21   -1    0    0  503  502  0.00000000000E+00  0.00000000000E+00  0.11761863899E+03  0.11761863899E+03  0.00000000000E+00 0.  1.
         21   -1    0    0  501  503 -0.00000000000E+00 -0.00000000000E+00 -0.42946260650E+03  0.42946260650E+03  0.00000000000E+00 0.  1.
          6    2    1    2  501    0  0.20462862827E+02  0.12935326567E+03 -0.90501293572E+02  0.23557283192E+03  0.17364641921E+03 0.  0.
         24    2    3    3    0    0 -0.47725215656E+02  0.50413455916E+02 -0.74114590361E+02  0.12987646654E+03  0.80967347181E+02 0.  0.
         -6    2    1    2    0  502 -0.20462862827E+02 -0.12935326567E+03 -0.22134267394E+03  0.31150841358E+03  0.17576665306E+03 0.  0.
        -24    2    5    5    0    0 -0.72332440170E+02 -0.87190596890E+02 -0.90022362148E+02  0.16407959014E+03  0.77355698732E+02 0.  0.
          5    1    3    3  501    0  0.68188078483E+02  0.78939809757E+02 -0.16386703212E+02  0.10569636538E+03  0.47000000000E+01 0. -1.
        -15    1    4    4    0    0 -0.32471094951E+02  0.25304863750E+02  0.86054296004E+01  0.42094171619E+02  0.17770000000E+01 0.  1.
         16    1    4    4    0    0 -0.15254120705E+02  0.25108592167E+02 -0.82720019961E+02  0.87782294920E+02  0.00000000000E+00 0. -1.
         -5    1    5    5    0  502  0.51869577343E+02 -0.42162668783E+02 -0.13132031179E+03  0.14742882344E+03  0.47000000000E+01 0.  1.
         15    1    6    6    0    0  0.40359184948E+00 -0.70297023098E+01  0.12844192181E+02  0.14755019577E+02  0.17770000000E+01 0. -1.
        -16    1    6    6    0    0 -0.72736032019E+02 -0.80160894581E+02 -0.10286655433E+03  0.14932457056E+03  0.00000000000E+00 0.  1.
<mgrwt>
<rscale>  2 0.21876614E+03</rscale>
<asrwt>0</asrwt>
<pdfrwt beam="1">  1       21 0.18095175E-01 0.21919150E+03</pdfrwt>
<pdfrwt beam="2">  1       21 0.66071170E-01 0.21919150E+03</pdfrwt>
<totfact> 0.57761620E+04</totfact>
</mgrwt>
</event>
<event>
12    2  0.4097182E-002  0.2138555E+03  0.7546771E-02  0.1139395E+00
         21   -1    0    0  501  502  0.00000000000E+00  0.00000000000E+00  0.10923968561E+04  0.10923968561E+04  0.00000000000E+00 0.  1.
         21   -1    0    0  502  503 -0.00000000000E+00 -0.00000000000E+00 -0.41170793678E+02  0.41170793678E+02  0.00000000000E+00 0.  1.
         -6    2    1    2    0  503 -0.11987602395E+03  0.34896674748E+02  0.55427522398E+03  0.59255535290E+03  0.16826402857E+03 0.  0.
        -24    2    3    3    0    0 -0.45845043352E+02  0.77955154146E+02  0.28011174214E+03  0.30528836296E+03  0.80991495959E+02 0.  0.
          6    2    1    2  501    0  0.11987602395E+03 -0.34896674748E+02  0.49695083843E+03  0.54101229686E+03  0.17362641076E+03 0.  0.
         24    2    5    5    0    0  0.11137116911E+03 -0.50408743041E+02  0.50133046564E+03  0.52219135233E+03  0.80043700484E+02 0.  0.
          5    1    5    5  501    0  0.85048548379E+01  0.15512068293E+02 -0.43796272085E+01  0.18820944531E+02  0.47000000000E+01 0. -1.
        -15    1    6    6    0    0  0.91381756586E+02 -0.13939688052E+02  0.23327483990E+03  0.25092877276E+03  0.17770000000E+01 0.  1.
         16    1    6    6    0    0  0.19989412525E+02 -0.36469054989E+02  0.26805562574E+03  0.27126257957E+03  0.00000000000E+00 0. -1.
         -5    1    3    3    0  503 -0.74030980596E+02 -0.43058479399E+02  0.27416348183E+03  0.28726698994E+03  0.47000000000E+01 0.  1.
         15    1    4    4    0    0  0.68315128729E+01  0.28214679393E+02  0.20055383260E+02  0.35328654490E+02  0.17770000000E+01 0. -1.
        -16    1    4    4    0    0 -0.52676556225E+02  0.49740474753E+02  0.26005635888E+03  0.26995970847E+03  0.00000000000E+00 0.  1.
<mgrwt>
<rscale>  2 0.21276460E+03</rscale>
<asrwt>0</asrwt>
<pdfrwt beam="1">  1       21 0.16806103E+00 0.21385549E+03</pdfrwt>
<pdfrwt beam="2">  1       21 0.63339691E-02 0.21385549E+03</pdfrwt>
<totfact> 0.39058799E+04</totfact>
</mgrwt>
</event>
<event>
12    2  0.4097182E-002  0.2327703E+03  0.7546771E-02  0.1125395E+00
         21   -1    0    0  503  502  0.00000000000E+00  0.00000000000E+00  0.12951061349E+04  0.12951061349E+04  0.00000000000E+00 0. -1.
         21   -1    0    0  501  503 -0.00000000000E+00 -0.00000000000E+00 -0.51000481583E+02  0.51000481583E+02  0.00000000000E+00 0.  1.
          6    2    1    2  501    0 -0.14779286800E+03 -0.51868247399E+01  0.91385527899E+03  0.94206786496E+03  0.17461602528E+03 0.  0.
         24    2    3    3    0    0 -0.12213208550E+03 -0.62541910511E+02  0.54312132193E+03  0.56601755113E+03  0.81039255739E+02 0.  0.
         -6    2    1    2    0  502  0.14779286800E+03  0.51868247399E+01  0.33025037432E+03  0.40403875151E+03  0.17975641296E+03 0.  0.
        -24    2    5    5    0    0  0.10521864926E+03 -0.66549581277E+02  0.19692168803E+03  0.24669421034E+03  0.81117638498E+02 0.  0.
          5    1    3    3  501    0 -0.25660782501E+02  0.57355085771E+02  0.37073395705E+03  0.37605031383E+03  0.47000000000E+01 0. -1.
        -15    1    4    4    0    0  0.73859284973E+01 -0.56510366451E+01  0.76407478623E+01  0.12166548887E+02  0.17770000000E+01 0.  1.
         16    1    4    4    0    0 -0.12951801399E+03 -0.56890873866E+02  0.53548057407E+03  0.55385100224E+03  0.00000000000E+00 0. -1.
         -5    1    5    5    0  502  0.42574218739E+02  0.71736406017E+02  0.13332868628E+03  0.15734454117E+03  0.47000000000E+01 0.  1.
         15    1    6    6    0    0  0.88066956475E+02 -0.72807792576E+02  0.11265178721E+03  0.16046914461E+03  0.17770000000E+01 0. -1.
        -16    1    6    6    0    0  0.17151692783E+02  0.62582112984E+01  0.84269900824E+02  0.86225065722E+02  0.00000000000E+00 0.  1.
<mgrwt>
<rscale>  2 0.23177736E+03</rscale>
<asrwt>0</asrwt>
<pdfrwt beam="1">  1       21 0.19924707E+00 0.23277028E+03</pdfrwt>
<pdfrwt beam="2">  1       21 0.78462289E-02 0.23277028E+03</pdfrwt>
<totfact> 0.16362398E+04</totfact>
</mgrwt>
</event>
<event>
12    2  0.4097182E-002  0.1773337E+03  0.7546771E-02  0.1171317E+00
         21   -1    0    0  501  502  0.00000000000E+00  0.00000000000E+00  0.34070772516E+03  0.34070772516E+03  0.00000000000E+00 0. -1.
         21   -1    0    0  502  503 -0.00000000000E+00 -0.00000000000E+00 -0.14030242051E+03  0.14030242051E+03  0.00000000000E+00 0. -1.
         -6    2    1    2    0  503 -0.13656072442E+02 -0.61345399480E+01 -0.43876847647E+02  0.17914755866E+03  0.17304493381E+03 0.  0.
        -24    2    3    3    0    0  0.48748088961E+02  0.33870349793E+02 -0.24645485652E+02  0.10242333922E+03  0.79746872556E+02 0.  0.
          6    2    1    2  501    0  0.13656072442E+02  0.61345399480E+01  0.24428215230E+03  0.30186258701E+03  0.17670068083E+03 0.  0.
         24    2    5    5    0    0  0.66206218700E+02 -0.32741203940E+02  0.13797167559E+03  0.17697524260E+03  0.82636574217E+02 0.  0.
          5    1    5    5  501    0 -0.52550146258E+02  0.38875743888E+02  0.10631047671E+03  0.12488734441E+03  0.47000000000E+01 0. -1.
        -15    1    6    6    0    0  0.18504286304E+02 -0.17593829659E+02 -0.44826480116E+01  0.25984674635E+02  0.17770000000E+01 0.  1.
         16    1    6    6    0    0  0.47701932395E+02 -0.15147374281E+02  0.14245432360E+03  0.15099056796E+03  0.00000000000E+00 0. -1.
         -5    1    3    3    0  503 -0.62404161402E+02 -0.40004889741E+02 -0.19231361995E+02  0.76724219434E+02  0.47000000000E+01 0.  1.
         15    1    4    4    0    0  0.15872708652E+02 -0.26305190077E+02 -0.58729774186E+01  0.31329786110E+02  0.17770000000E+01 0. -1.
        -16    1    4    4    0    0  0.32875380309E+02  0.60175539870E+02 -0.18772508233E+02  0.71093553115E+02  0.00000000000E+00 0.  1.
<mgrwt>
<rscale>  2 0.17641602E+03</rscale>
<asrwt>0</asrwt>
<pdfrwt beam="1">  1       21 0.52416573E-01 0.17733373E+03</pdfrwt>
<pdfrwt beam="2">  1       21 0.21584988E-01 0.17733373E+03</pdfrwt>
<totfact> 0.69525527E+04</totfact>
</mgrwt>
</event>
<event>
12    2  0.4097182E-002  0.2825138E+03  0.7546771E-02  0.1094513E+00
         21   -1    0    0  501  502  0.00000000000E+00  0.00000000000E+00  0.32600935979E+03  0.32600935979E+03  0.00000000000E+00 0. -1.
         21   -1    0    0  502  503 -0.00000000000E+00 -0.00000000000E+00 -0.24628484502E+03  0.24628484502E+03  0.00000000000E+00 0. -1.
         -6    2    1    2    0  503  0.15337763268E+03 -0.16101664199E+03  0.69771926929E+02  0.29100203077E+03  0.17424982905E+03 0.  0.
        -24    2    3    3    0    0  0.23406108281E+02 -0.20014066917E+02  0.44702043509E+02  0.97546835999E+02  0.81047540001E+02 0.  0.
          6    2    1    2  501    0 -0.15337763268E+03  0.16101664199E+03  0.99525878407E+01  0.28129217403E+03  0.17197434682E+03 0.  0.
         24    2    5    5    0    0 -0.93583542880E+02  0.13256477397E+03 -0.54895811226E+02  0.18848998209E+03  0.78636025217E+02 0.  0.
          5    1    5    5  501    0 -0.59794089795E+02  0.28451868018E+02  0.64848399067E+02  0.92802191944E+02  0.47000000000E+01 0. -1.
        -15    1    6    6    0    0 -0.52982755246E+01  0.55651815982E+02  0.64523883451E+01  0.56302641057E+02  0.17770000000E+01 0.  1.
         16    1    6    6    0    0 -0.88285267356E+02  0.76912957990E+02 -0.61348199571E+02  0.13218734103E+03  0.00000000000E+00 0. -1.
         -5    1    3    3    0  503  0.12997152439E+03 -0.14100257507E+03  0.25069883421E+02  0.19345519477E+03  0.47000000000E+01 0.  1.
         15    1    4    4    0    0  0.53657728424E+02 -0.16591748743E+02  0.30775829672E+02  0.64068302357E+02  0.17770000000E+01 0. -1.
        -16    1    4    4    0    0 -0.30251620143E+02 -0.34223181745E+01  0.13926213837E+02  0.33478533642E+02  0.00000000000E+00 0.  1.
<mgrwt>
<rscale>  2 0.28216373E+03</rscale>
<asrwt>0</asrwt>
<pdfrwt beam="1">  1       21 0.50155286E-01 0.28251382E+03</pdfrwt>
<pdfrwt beam="2">  1       21 0.37889976E-01 0.28251382E+03</pdfrwt>
<totfact> 0.24336624E+04</totfact>
</mgrwt>
</event>
<event>
12    2  0.4097182E-002  0.2010176E+03  0.7546771E-02  0.1150224E+00
         21   -1    0    0  501  502  0.00000000000E+00  0.00000000000E+00  0.35875346503E+02  0.35875346503E+02  0.00000000000E+00 0. -1.
         21   -1    0    0  502  503 -0.00000000000E+00 -0.00000000000E+00 -0.14340891963E+04  0.14340891963E+04  0.00000000000E+00 0. -1.
         -6    2    1    2    0  503  0.53294276207E+02  0.87393361341E+02 -0.10668282270E+04  0.10856014614E+04  0.17300343231E+03 0.  0.
        -24    2    3    3    0    0 -0.28586953900E+02  0.80787182982E+01 -0.50531804305E+03  0.51261705924E+03  0.80916284930E+02 0.  0.
          6    2    1    2  501    0 -0.53294276207E+02 -0.87393361341E+02 -0.33138562276E+03  0.38436308136E+03  0.16565224979E+03 0.  0.
         24    2    5    5    0    0 -0.24216879493E+02  0.17393203368E+02 -0.12036246274E+03  0.14692133438E+03  0.78802127416E+02 0.  0.
          5    1    5    5  501    0 -0.29077396714E+02 -0.10478656471E+03 -0.21102316002E+03  0.23744174698E+03  0.47000000000E+01 0. -1.
        -15    1    6    6    0    0  0.20633856255E+02 -0.53382350764E+01 -0.63445680276E+01  0.22308385198E+02  0.17770000000E+01 0.  1.
         16    1    6    6    0    0 -0.44850735748E+02  0.22731438444E+02 -0.11401789471E+03  0.12461294919E+03  0.00000000000E+00 0. -1.
         -5    1    3    3    0  503  0.81881230107E+02  0.79314643043E+02 -0.56151018399E+03  0.57298440220E+03  0.47000000000E+01 0.  1.
         15    1    4    4    0    0  0.18879657620E+02 -0.10155898821E+02 -0.31143407641E+03  0.31217611284E+03  0.17770000000E+01 0. -1.
        -16    1    4    4    0    0 -0.47466611520E+02  0.18234617119E+02 -0.19388396664E+03  0.20044094639E+03  0.00000000000E+00 0.  1.
<mgrwt>
<rscale>  2 0.19942610E+03</rscale>
<asrwt>0</asrwt>
<pdfrwt beam="1">  1       21 0.55192840E-02 0.20101758E+03</pdfrwt>
<pdfrwt beam="2">  1       21 0.22062911E+00 0.20101758E+03</pdfrwt>
<totfact> 0.22525035E+04</totfact>
</mgrwt>
</event>
<event>
11    2  0.4097182E-002  0.4184208E+03  0.7546771E-02  0.1038399E+00
         21   -1    0    0  501  502  0.00000000000E+00  0.00000000000E+00  0.17791979436E+04  0.17791979436E+04  0.00000000000E+00 0.  1.
         21   -1    0    0  502  503 -0.00000000000E+00 -0.00000000000E+00 -0.25094109482E+03  0.25094109482E+03  0.00000000000E+00 0. -1.
         -6    2    1    2    0  503 -0.89687977660E+02  0.35912242938E+03 -0.36715155609E+02  0.41019665173E+03  0.17291743063E+03 0.  0.
        -24    2    3    3    0    0 -0.91597778258E+02  0.25490077679E+03 -0.85250015579E+02  0.29511614582E+03  0.80382929649E+02 0.  0.
          6    2    1    2  501    0  0.89687977660E+02 -0.35912242938E+03  0.15649720044E+04  0.16199423867E+04  0.19509769110E+03 0.  0.
          5    1    5    5  501    0  0.66492379501E+02 -0.41133613954E+02  0.33372555199E+03  0.34279446433E+03  0.47000000000E+01 0. -1.
        -15    1    5    5    0    0  0.65443333951E+02 -0.12357141841E+03  0.54348339619E+03  0.56118631939E+03  0.17770000000E+01 0.  1.
         16    1    5    5    0    0 -0.42247735791E+02 -0.19441739702E+03  0.68776305618E+03  0.71596160295E+03  0.00000000000E+00 0. -1.
         -5    1    3    3    0  503  0.19098005980E+01  0.10422165259E+03  0.48534859970E+02  0.11508050590E+03  0.47000000000E+01 0.  1.
         15    1    4    4    0    0 -0.40366664233E+01  0.10494019942E+03 -0.88647061289E+01  0.10540626582E+03  0.17770000000E+01 0. -1.
        -16    1    4    4    0    0 -0.87561111835E+02  0.14996057737E+03 -0.76385309450E+02  0.18970988000E+03  0.00000000000E+00 0.  1.
<mgrwt>
<rscale>  2 0.41593102E+03</rscale>
<asrwt>0</asrwt>
<pdfrwt beam="1">  1       21 0.27372275E+00 0.41842080E+03</pdfrwt>
<pdfrwt beam="2">  1       21 0.38606323E-01 0.41842080E+03</pdfrwt>
<totfact> 0.25309136E+02</totfact>
</mgrwt>
</event>
<event>
12    2  0.4097182E-002  0.2083781E+03  0.7546771E-02  0.1143525E+00
         21   -1    0    0  501  502  0.00000000000E+00  0.00000000000E+00  0.67942362006E+03  0.67942362006E+03  0.00000000000E+00 0.  1.
         21   -1    0    0  502  503 -0.00000000000E+00 -0.00000000000E+00 -0.63494366639E+02  0.63494366639E+02  0.00000000000E+00 0. -1.
         -6    2    1    2    0  503  0.98706141733E+02 -0.66233762353E+02  0.27437181315E+03  0.34453061035E+03  0.17114799422E+03 0.  0.
        -24    2    3    3    0    0  0.72458235704E+01  0.13303921737E+01  0.49607944752E+02  0.92596509219E+02  0.77838894099E+02 0.  0.
          6    2    1    2  501    0 -0.98706141733E+02  0.66233762353E+02  0.34155744027E+03  0.39838737634E+03  0.16709638817E+03 0.  0.
         24    2    5    5    0    0 -0.87564329287E+01  0.19454709823E+02  0.75320636130E+02  0.11346044581E+03  0.82127423456E+02 0.  0.
          5    1    5    5  501    0 -0.89949708804E+02  0.46779052530E+02  0.26623680414E+03  0.28492693054E+03  0.47000000000E+01 0. -1.
        -15    1    6    6    0    0 -0.36722894044E+02 -0.18650185027E+01  0.68316229865E+02  0.77603571007E+02  0.17770000000E+01 0.  1.
         16    1    6    6    0    0  0.27966461116E+02  0.21319728326E+02  0.70044062643E+01  0.35856874799E+02  0.00000000000E+00 0. -1.
         -5    1    3    3    0  503  0.91460318162E+02 -0.67564154527E+02  0.22476386840E+03  0.25193410113E+03  0.47000000000E+01 0.  1.
         15    1    4    4    0    0  0.21098530508E+01 -0.29939284582E+02 -0.39919927074E+01  0.30329951797E+02  0.17770000000E+01 0. -1.
        -16    1    4    4    0    0  0.51359705197E+01  0.31269676756E+02  0.53599937459E+02  0.62266557422E+02  0.00000000000E+00 0.  1.
<mgrwt>
<rscale>  2 0.20754448E+03</rscale>
<asrwt>0</asrwt>
<pdfrwt beam="1">  1       21 0.10452671E+00 0.20837814E+03</pdfrwt>
<pdfrwt beam="2">  1       21 0.97683646E-02 0.20837814E+03</pdfrwt>
<totfact> 0.61984951E+04</totfact>
</mgrwt>
</event>
<event>
12    2  0.4097182E-002  0.2538992E+03  0.7546771E-02  0.1111073E+00
         21   -1    0    0  503  502  0.00000000000E+00  0.00000000000E+00  0.11710525266E+03  0.11710525266E+03  0.00000000000E+00 0.  1.
         21   -1    0    0  501  503 -0.00000000000E+00 -0.00000000000E+00 -0.20052879677E+04  0.20052879677E+04  0.00000000000E+00 0. -1.
          6    2    1    2  501    0  0.12272492269E+03  0.13712801264E+03 -0.18495511222E+04  0.18668969288E+04  0.17492652920E+03 0.  0.
         24    2    3    3    0    0  0.77704211462E+02  0.13572494115E+03 -0.95580759550E+03  0.97200675979E+03  0.82278656718E+02 0.  0.
         -6    2    1    2    0  502 -0.12272492269E+03 -0.13712801264E+03 -0.38631592809E+02  0.25549629154E+03  0.17297530612E+03 0.  0.
        -24    2    5    5    0    0 -0.15351400222E+02 -0.75013898898E+01 -0.29727507539E+02  0.86873910501E+02  0.79821145583E+02 0.  0.
          5    1    3    3  501    0  0.45020711223E+02  0.14030714891E+01 -0.89374352669E+03  0.89489016898E+03  0.47000000000E+01 0. -1.
        -15    1    4    4    0    0  0.46167176577E+02  0.12269942281E+03 -0.86722588478E+03  0.87708064026E+03  0.17770000000E+01 0.  1.
         16    1    4    4    0    0  0.31537034885E+02  0.13025518336E+02 -0.88581710714E+02  0.94926119537E+02  0.00000000000E+00 0. -1.
         -5    1    5    5    0  502 -0.10737352246E+03 -0.12962662275E+03 -0.89040852706E+01  0.16862238104E+03  0.47000000000E+01 0.  1.
         15    1    6    6    0    0 -0.85868100591E+01  0.10336625467E+02 -0.54185605188E+02  0.55855319099E+02  0.17770000000E+01 0. -1.
        -16    1    6    6    0    0 -0.67645901629E+01 -0.17838015357E+02  0.24458097649E+02  0.31018591402E+02  0.00000000000E+00 0.  1.
<mgrwt>
<rscale>  2 0.25356342E+03</rscale>
<asrwt>0</asrwt>
<pdfrwt beam="1">  1       21 0.18016193E-01 0.25389917E+03</pdfrwt>
<pdfrwt beam="2">  1       21 0.30850584E+00 0.25389917E+03</pdfrwt>
<totfact> 0.79330553E+02</totfact>
</mgrwt>
</event>
<event>
12    2  0.4097182E-002  0.1769804E+03  0.7546771E-02  0.1170856E+00
         21   -1    0    0  503  502  0.00000000000E+00  0.00000000000E+00  0.15499426995E+04  0.15499426995E+04  0.00000000000E+00 0.  1.
         21   -1    0    0  501  503 -0.00000000000E+00 -0.00000000000E+00 -0.56068947242E+02  0.56068947242E+02  0.00000000000E+00 0.  1.
          6    2    1    2  501    0 -0.97611556627E+01 -0.38526010083E+02  0.10403507383E+03  0.20495003975E+03  0.17205141265E+03 0.  0.
         24    2    3    3    0    0 -0.67014923356E+02  0.18603898009E+01  0.47957867720E+02  0.11508459447E+03  0.80312177192E+02 0.  0.
         -6    2    1    2    0  502  0.97611556627E+01  0.38526010083E+02  0.13898386784E+04  0.14010616070E+04  0.17246025897E+03 0.  0.
        -24    2    5    5    0    0 -0.51813503829E+02  0.43550800103E+02  0.10202619558E+04  0.10263273930E+04  0.88499422949E+02 0.  0.
          5    1    3    3  501    0  0.57253767693E+02 -0.40386399884E+02  0.56077206114E+02  0.89865445284E+02  0.47000000000E+01 0. -1.
        -15    1    4    4    0    0 -0.43641224695E+02 -0.19779744746E+02 -0.99733730830E+01  0.48973673486E+02  0.17770000000E+01 0.  1.
         16    1    4    4    0    0 -0.23373698661E+02  0.21640134546E+02  0.57931240803E+02  0.66110920983E+02  0.00000000000E+00 0. -1.
         -5    1    5    5    0  502  0.61574659492E+02 -0.50247900200E+01  0.36957672268E+03  0.37473421401E+03  0.47000000000E+01 0.  1.
         15    1    6    6    0    0 -0.59288217136E+02  0.46704625025E+02  0.47152919135E+03  0.47753465917E+03  0.17770000000E+01 0. -1.
        -16    1    6    6    0    0  0.74747133070E+01 -0.31538249220E+01  0.54873276440E+03  0.54879273381E+03  0.00000000000E+00 0.  1.
<mgrwt>
<rscale>  2 0.17688076E+03</rscale>
<asrwt>0</asrwt>
<pdfrwt beam="1">  1       21 0.23845269E+00 0.17698044E+03</pdfrwt>
<pdfrwt beam="2">  1       21 0.86259931E-02 0.17698044E+03</pdfrwt>
<totfact> 0.83151600E+03</totfact>
</mgrwt>
</event>
<event>
12    2  0.4097182E-002  0.2125034E+03  0.7546771E-02  0.1139906E+00
         21   -1    0    0  501  502  0.00000000000E+00  0.00000000000E+00  0.12216016836E+04  0.12216016836E+04  0.00000000000E+00 0. -1.
         21   -1    0    0  502  503 -0.00000000000E+00 -0.00000000000E+00 -0.48539247292E+02  0.48539247292E+02  0.00000000000E+00 0.  1.
         -6    2    1    2    0  503 -0.14650178706E+01 -0.11996929506E+03  0.27116209685E+03  0.34354396545E+03  0.17349004410E+03 0.  0.
        -24    2    3    3    0    0 -0.36488716530E+01 -0.62091306380E+02  0.49223472872E+02  0.11412410232E+03  0.82053128252E+02 0.  0.
          6    2    1    2  501    0  0.14650178706E+01  0.11996929506E+03  0.90190033950E+03  0.92659696548E+03  0.17539366010E+03 0.  0.
         24    2    5    5    0    0  0.15723856249E+02  0.90227687859E+02  0.87542509749E+03  0.88404222296E+03  0.82299911034E+02 0.  0.
          5    1    5    5  501    0 -0.14258838379E+02  0.29741607200E+02  0.26475242012E+02  0.42554742513E+02  0.47000000000E+01 0. -1.
        -15    1    6    6    0    0 -0.23370626369E+02  0.33275295781E+02  0.15297420757E+03  0.15829623305E+03  0.17770000000E+01 0.  1.
         16    1    6    6    0    0  0.39094482618E+02  0.56952392078E+02  0.72245088992E+03  0.72574598992E+03  0.00000000000E+00 0. -1.
         -5    1    3    3    0  503  0.21838537825E+01 -0.57877988679E+02  0.22193862397E+03  0.22941986314E+03  0.47000000000E+01 0.  1.
         15    1    4    4    0    0 -0.22278279830E+02  0.12528026503E+02  0.78740448696E+01  0.26803572744E+02  0.17770000000E+01 0. -1.
        -16    1    4    4    0    0  0.18629408177E+02 -0.74619332883E+02  0.41349428003E+02  0.87320529574E+02  0.00000000000E+00 0.  1.
<mgrwt>
<rscale>  2 0.21211024E+03</rscale>
<asrwt>0</asrwt>
<pdfrwt beam="1">  1       21 0.18793870E+00 0.21250344E+03</pdfrwt>
<pdfrwt beam="2">  1       21 0.74675775E-02 0.21250344E+03</pdfrwt>
<totfact> 0.21461317E+04</totfact>
</mgrwt>
</event>
<event>
12    2  0.4097182E-002  0.2187514E+03  0.7546771E-02  0.1134829E+00
         21   -1    0    0  501  502  0.00000000000E+00  0.00000000000E+00  0.17104583621E+03  0.17104583621E+03  0.00000000000E+00 0.  1.
         21   -1    0    0  502  503 -0.00000000000E+00 -0.00000000000E+00 -0.38002455178E+03  0.38002455178E+03  0.00000000000E+00 0. -1.
         -6    2    1    2    0  503 -0.84573970936E+02 -0.10367806278E+03 -0.24606070460E+03  0.32919821834E+03  0.17298467952E+03 0.  0.
        -24    2    3    3    0    0 -0.70490634722E+02 -0.83629101325E+02 -0.26518868422E+03  0.29776144340E+03  0.79837852977E+02 0.  0.
          6    2    1    2  501    0  0.84573970936E+02  0.10367806278E+03  0.37081989024E+02  0.22187216965E+03  0.17306151651E+03 0.  0.
         24    2    5    5    0    0  0.12471307944E+03  0.63989846789E+02  0.18057841011E+02  0.16212009247E+03  0.79427867185E+02 0.  0.
          5    1    5    5  501    0 -0.40139108504E+02  0.39688215992E+02  0.19024148013E+02  0.59752077183E+02  0.47000000000E+01 0. -1.
        -15    1    6    6    0    0  0.71951823220E+02  0.72220317879E+02  0.32119697992E+02  0.10690028956E+03  0.17770000000E+01 0.  1.
         16    1    6    6    0    0  0.52761256219E+02 -0.82304710899E+01 -0.14061856981E+02  0.55219802915E+02  0.00000000000E+00 0. -1.
         -5    1    3    3    0  503 -0.14083336214E+02 -0.20048961456E+02  0.19127979619E+02  0.31436774941E+02  0.47000000000E+01 0.  1.
         15    1    4    4    0    0 -0.34275405522E+02 -0.79327674828E+02 -0.23508831499E+03  0.25047426413E+03  0.17770000000E+01 0. -1.
        -16    1    4    4    0    0 -0.36215229200E+02 -0.43014264967E+01 -0.30100369226E+02  0.47287179272E+02  0.00000000000E+00 0.  1.
<mgrwt>
<rscale>  2 0.21873623E+03</rscale>
<asrwt>0</asrwt>
<pdfrwt beam="1">  1       21 0.26314744E-01 0.21875142E+03</pdfrwt>
<pdfrwt beam="2">  1       21 0.58465316E-01 0.21875142E+03</pdfrwt>
<totfact> 0.37112154E+04</totfact>
</mgrwt>
</event>
<event>
12    2  0.4097182E-002  0.3030735E+03  0.7546771E-02  0.1083952E+00
         21   -1    0    0  503  502  0.00000000000E+00  0.00000000000E+00  0.63925055937E+03  0.63925055937E+03  0.00000000000E+00 0. -1.
         21   -1    0    0  501  503 -0.00000000000E+00 -0.00000000000E+00 -0.16017203066E+03  0.16017203066E+03  0.00000000000E+00 0. -1.
          6    2    1    2  501    0 -0.23856438629E+03  0.55370648953E+02  0.10714828147E+03  0.31964594938E+03  0.17525382609E+03 0.  0.
         24    2    3    3    0    0 -0.43798661455E+02  0.10990327411E+02  0.69415461547E+02  0.11630103006E+03  0.81659740695E+02 0.  0.
         -6    2    1    2    0  502  0.23856438629E+03 -0.55370648953E+02  0.37193024724E+03  0.47977664066E+03  0.17853470512E+03 0.  0.
        -24    2    5    5    0    0  0.24221568649E+03 -0.84196650667E+02  0.30348166302E+03  0.40526778849E+03  0.79895843667E+02 0.  0.
          5    1    3    3  501    0 -0.19476572484E+03  0.44380321541E+02  0.37732819919E+02  0.20334491931E+03  0.47000000000E+01 0. -1.
        -15    1    4    4    0    0 -0.25836177847E+02 -0.33539409608E+02  0.18259783815E+02  0.46140844342E+02  0.17770000000E+01 0.  1.
         16    1    4    4    0    0 -0.17962483608E+02  0.44529737020E+02  0.51155677732E+02  0.70160185723E+02  0.00000000000E+00 0. -1.
         -5    1    5    5    0  502 -0.36513002030E+01  0.28826001714E+02  0.68448584228E+02  0.74508852164E+02  0.47000000000E+01 0.  1.
         15    1    6    6    0    0  0.84114909815E+02  0.92377831716E+01  0.10484764798E+03  0.13474732541E+03  0.17770000000E+01 0. -1.
        -16    1    6    6    0    0  0.15810077668E+03 -0.93434433839E+02  0.19863401504E+03  0.27052046308E+03  0.00000000000E+00 0.  1.
<mgrwt>
<rscale>  2 0.30259205E+03</rscale>
<asrwt>0</asrwt>
<pdfrwt beam="1">  1       21 0.98346239E-01 0.30307345E+03</pdfrwt>
<pdfrwt beam="2">  1       21 0.24641851E-01 0.30307345E+03</pdfrwt>
<totfact> 0.12512004E+04</totfact>
</mgrwt>
</event>
<event>
12    2  0.4097182E-002  0.1815519E+03  0.7546771E-02  0.1166361E+00
         21   -1    0    0  501  502  0.00000000000E+00  0.00000000000E+00  0.21807574359E+03  0.21807574359E+03  0.00000000000E+00 0.  1.
         21   -1    0    0  502  503 -0.00000000000E+00 -0.00000000000E+00 -0.38316464417E+03  0.38316464417E+03  0.00000000000E+00 0.  1.
         -6    2    1    2    0  503 -0.49450249663E+02 -0.27641977040E+02 -0.31654603304E+03  0.36480780322E+03  0.17226124396E+03 0.  0.
        -24    2    3    3    0    0 -0.74920888005E+02 -0.52355692931E+02 -0.14588271270E+03  0.19043010947E+03  0.81410089568E+02 0.  0.
          6    2    1    2  501    0  0.49450249663E+02  0.27641977040E+02  0.15145713246E+03  0.23643258454E+03  0.17248680521E+03 0.  0.
         24    2    5    5    0    0  0.65556157147E+02 -0.19035610129E+02  0.15432049079E+03  0.18674872176E+03  0.80001918778E+02 0.  0.
          5    1    5    5  501    0 -0.16105907484E+02  0.46677587169E+02 -0.28633583303E+01  0.49683862780E+02  0.47000000000E+01 0. -1.
        -15    1    6    6    0    0 -0.14462351328E+02 -0.20471361601E+02  0.35846424184E+02  0.43776250496E+02  0.17770000000E+01 0.  1.
         16    1    6    6    0    0  0.80018508475E+02  0.14357514715E+01  0.11847406660E+03  0.14297247126E+03  0.00000000000E+00 0. -1.
         -5    1    3    3    0  503  0.25470638342E+02  0.24713715891E+02 -0.17066332034E+03  0.17437769376E+03  0.47000000000E+01 0.  1.
         15    1    4    4    0    0 -0.21180526857E+02 -0.21510776631E+02  0.17807721506E+01  0.30292855720E+02  0.17770000000E+01 0. -1.
        -16    1    4    4    0    0 -0.53740361149E+02 -0.30844916300E+02 -0.14766348485E+03  0.16013725375E+03  0.00000000000E+00 0.  1.
<mgrwt>
<rscale>  2 0.18149834E+03</rscale>
<asrwt>0</asrwt>
<pdfrwt beam="1">  1       21 0.33550115E-01 0.18155193E+03</pdfrwt>
<pdfrwt beam="2">  1       21 0.58948406E-01 0.18155193E+03</pdfrwt>
<totfact> 0.23177105E+04</totfact>
</mgrwt>
</event>
<event>
12    2  0.4097182E-002  0.2066948E+03  0.7546771E-02  0.1144987E+00
         21   -1    0    0  503  502  0.00000000000E+00  0.00000000000E+00  0.52735989594E+03  0.52735989594E+03  0.00000000000E+00 0.  1.
         21   -1    0    0  501  503 -0.00000000000E+00 -0.00000000000E+00 -0.96545978441E+02  0.96545978441E+02  0.00000000000E+00 0.  1.
          6    2    1    2  501    0  0.90319645130E+02  0.56007178446E+02  0.82790878819E+02  0.21913090803E+03  0.17282818898E+03 0.  0.
         24    2    3    3    0    0  0.81823341584E+02  0.37411241598E+02 -0.14062065276E+02  0.12003207443E+03  0.78200364367E+02 0.  0.
         -6    2    1    2    0  502 -0.90319645130E+02 -0.56007178446E+02  0.34802303868E+03  0.40477496635E+03  0.17728027413E+03 0.  0.
        -24    2    5    5    0    0 -0.99017376453E+02 -0.84063406657E+02  0.34010237843E+03  0.37399137770E+03  0.85608560311E+02 0.  0.
          5    1    3    3  501    0  0.84963035464E+01  0.18595936849E+02  0.96852944095E+02  0.99098833601E+02  0.47000000000E+01 0. -1.
        -15    1    4    4    0    0  0.60237365038E+02 -0.15200431371E+02 -0.10696772182E+02  0.63064823196E+02  0.17770000000E+01 0.  1.
         16    1    4    4    0    0  0.21585976546E+02  0.52611672969E+02 -0.33652930935E+01  0.56967251238E+02  0.00000000000E+00 0. -1.
         -5    1    5    5    0  502  0.86977313228E+01  0.28056228211E+02  0.79206602540E+01  0.30783588655E+02  0.47000000000E+01 0.  1.
         15    1    6    6    0    0  0.11259516377E+02 -0.24081040755E+02  0.94256625320E+02  0.97949693101E+02  0.17770000000E+01 0. -1.
        -16    1    6    6    0    0 -0.11027689283E+03 -0.59982365902E+02  0.24584575311E+03  0.27604168459E+03  0.00000000000E+00 0.  1.
<mgrwt>
<rscale>  2 0.20573675E+03</rscale>
<asrwt>0</asrwt>
<pdfrwt beam="1">  1       21 0.81132290E-01 0.20669479E+03</pdfrwt>
<pdfrwt beam="2">  1       21 0.14853228E-01 0.20669479E+03</pdfrwt>
<totfact> 0.52841409E+04</totfact>
</mgrwt>
</event>
<event>
12    2  0.4097182E-002  0.4041261E+03  0.7546771E-02  0.1043169E+00
         21   -1    0    0  503  502  0.00000000000E+00  0.00000000000E+00  0.15470724730E+04  0.15470724730E+04  0.00000000000E+00 0.  1.
         21   -1    0    0  501  503 -0.00000000000E+00 -0.00000000000E+00 -0.11842934500E+03  0.11842934500E+03  0.00000000000E+00 0.  1.
          6    2    1    2  501    0 -0.22818576119E+03 -0.28437004986E+03  0.42239494994E+03  0.58458140259E+03  0.17430678603E+03 0.  0.
         24    2    3    3    0    0 -0.89042876017E+02 -0.11247803818E+03  0.95838037010E+02  0.19015889619E+03  0.79972080259E+02 0.  0.
         -6    2    1    2    0  502  0.22818576119E+03  0.28437004986E+03  0.10062481780E+04  0.10809204154E+04  0.15138851259E+03 0.  0.
        -24    2    5    5    0    0  0.17412642247E+03  0.27066453172E+03  0.91881316866E+03  0.97710700492E+03  0.83313626876E+02 0.  0.
          5    1    3    3  501    0 -0.13914288517E+03 -0.17189201168E+03  0.32655691293E+03  0.39442250640E+03  0.47000000000E+01 0. -1.
        -15    1    4    4    0    0 -0.10384057697E+03 -0.92439434481E+02  0.77055094019E+02  0.15896087480E+03  0.17770000000E+01 0.  1.
         16    1    4    4    0    0  0.14797700952E+02 -0.20038603699E+02  0.18782942991E+02  0.31198021397E+02  0.00000000000E+00 0. -1.
         -5    1    5    5    0  502  0.54059338714E+02  0.13705518141E+02  0.87435009389E+02  0.10381341049E+03  0.47000000000E+01 0.  1.
         15    1    6    6    0    0 -0.17742311984E+00 -0.54064162441E+01  0.21517243007E+02  0.22257814160E+02  0.17770000000E+01 0. -1.
        -16    1    6    6    0    0  0.17430384559E+03  0.27607094796E+03  0.89729592565E+03  0.95484919076E+03  0.00000000000E+00 0.  1.
<mgrwt>
<rscale>  2 0.40176979E+03</rscale>
<asrwt>0</asrwt>
<pdfrwt beam="1">  1       21 0.23801113E+00 0.40412612E+03</pdfrwt>
<pdfrwt beam="2">  1       21 0.18219900E-01 0.40412612E+03</pdfrwt>
<totfact> 0.18323735E+03</totfact>
</mgrwt>
</event>
<event>
12    2  0.4097182E-002  0.2632060E+03  0.7546771E-02  0.1105262E+00
         21   -1    0    0  501  502  0.00000000000E+00  0.00000000000E+00  0.43233914248E+03  0.43233914248E+03  0.00000000000E+00 0.  1.
         21   -1    0    0  502  503 -0.00000000000E+00 -0.00000000000E+00 -0.26518521651E+03  0.26518521651E+03  0.00000000000E+00 0.  1.
         -6    2    1    2    0  503 -0.11168687235E+02  0.19813701587E+03 -0.13597264551E+03  0.29607312304E+03  0.17259118525E+03 0.  0.
        -24    2    3    3    0    0 -0.25147182639E+02  0.23596507399E+02 -0.59812257529E+02  0.10506976671E+03  0.79202107101E+02 0.  0.
          6    2    1    2  501    0  0.11168687235E+02 -0.19813701587E+03  0.30312657148E+03  0.40145123595E+03  0.17289985504E+03 0.  0.
         24    2    5    5    0    0  0.50096743456E+02 -0.19351228537E+03  0.20930639733E+03  0.29966176316E+03  0.77661548023E+02 0.  0.
          5    1    5    5  501    0 -0.38928056221E+02 -0.46247305030E+01  0.93820174153E+02  0.10178947279E+03  0.47000000000E+01 0. -1.
        -15    1    6    6    0    0  0.27205368172E+02 -0.12385250369E+03  0.18112380191E+03  0.22110758484E+03  0.17770000000E+01 0.  1.
         16    1    6    6    0    0  0.22891375284E+02 -0.69659781680E+02  0.28182595421E+02  0.78554178315E+02  0.00000000000E+00 0. -1.
         -5    1    3    3    0  503  0.13978495404E+02  0.17454050848E+03 -0.76160387983E+02  0.19100335633E+03  0.47000000000E+01 0.  1.
         15    1    4    4    0    0  0.25427474173E+02  0.21704257216E+02 -0.12341197609E+02  0.35680444385E+02  0.17770000000E+01 0. -1.
        -16    1    4    4    0    0 -0.50574656813E+02  0.18922501837E+01 -0.47471059919E+02  0.69389322322E+02  0.00000000000E+00 0.  1.
<mgrwt>
<rscale>  2 0.26315528E+03</rscale>
<asrwt>0</asrwt>
<pdfrwt beam="1">  1       21 0.66513714E-01 0.26320596E+03</pdfrwt>
<pdfrwt beam="2">  1       21 0.40797726E-01 0.26320596E+03</pdfrwt>
<totfact> 0.11506262E+04</totfact>
</mgrwt>
</event>
<event>
12    2  0.4097182E-002  0.1827932E+03  0.7546771E-02  0.1165299E+00
         21   -1    0    0  503  502  0.00000000000E+00  0.00000000000E+00  0.93225163578E+02  0.93225163578E+02  0.00000000000E+00 0.  1.
         21   -1    0    0  501  503 -0.00000000000E+00 -0.00000000000E+00 -0.35906934709E+03  0.35906934709E+03  0.00000000000E+00 0.  1.
          6    2    1    2  501    0  0.29659464415E+02  0.50630018399E+02 -0.14984204891E+03  0.23580008110E+03  0.17235415874E+03 0.  0.
         24    2    3    3    0    0 -0.25643595471E+01  0.49462049246E+02 -0.13275237037E+02  0.95399500304E+02  0.80447265239E+02 0.  0.
         -6    2    1    2    0  502 -0.29659464415E+02 -0.50630018399E+02 -0.11600213460E+03  0.21649442957E+03  0.17311920809E+03 0.  0.
        -24    2    5    5    0    0 -0.14063349408E+02  0.21663508956E+02 -0.11534779594E+03  0.14238565101E+03  0.79381825171E+02 0.  0.
          5    1    3    3  501    0  0.32223823962E+02  0.11679691536E+01 -0.13656681188E+03  0.14040058080E+03  0.47000000000E+01 0. -1.
        -15    1    4    4    0    0  0.78613342928E+01  0.37160869936E+02 -0.45541194306E+02  0.59328651924E+02  0.17770000000E+01 0.  1.
         16    1    4    4    0    0 -0.10425693840E+02  0.12301179310E+02  0.32265957269E+02  0.36070848381E+02  0.00000000000E+00 0. -1.
         -5    1    5    5    0  502 -0.15596115007E+02 -0.72293527355E+02 -0.65433866103E+00  0.74108778561E+02  0.47000000000E+01 0.  1.
         15    1    6    6    0    0 -0.22093056462E+02  0.49267000349E+02 -0.83801077207E+02  0.99705159030E+02  0.17770000000E+01 0. -1.
        -16    1    6    6    0    0  0.80297070538E+01 -0.27603491394E+02 -0.31546718735E+02  0.42680491977E+02  0.00000000000E+00 0.  1.
<mgrwt>
<rscale>  2 0.18261180E+03</rscale>
<asrwt>0</asrwt>
<pdfrwt beam="1">  1       21 0.14342333E-01 0.18279317E+03</pdfrwt>
<pdfrwt beam="2">  1       21 0.55241438E-01 0.18279317E+03</pdfrwt>
<totfact> 0.13197027E+05</totfact>
</mgrwt>
</event>
<event>
12    2  0.4097182E-002  0.1911840E+03  0.7546771E-02  0.1158480E+00
         21   -1    0    0  501  502  0.00000000000E+00  0.00000000000E+00  0.19640008035E+03  0.19640008035E+03  0.00000000000E+00 0.  1.
         21   -1    0    0  502  503 -0.00000000000E+00 -0.00000000000E+00 -0.19427749285E+03  0.19427749285E+03  0.00000000000E+00 0.  1.
         -6    2    1    2    0  503 -0.72880247107E+02 -0.34090749070E+02 -0.49065062068E+02  0.19275968590E+03  0.16815233154E+03 0.  0.
        -24    2    3    3    0    0 -0.38803029293E+02 -0.61589343518E+01 -0.93767984591E+02  0.12981618481E+03  0.80722979074E+02 0.  0.
          6    2    1    2  501    0  0.72880247107E+02  0.34090749070E+02  0.51187649576E+02  0.19791788730E+03  0.17342896255E+03 0.  0.
         24    2    5    5    0    0  0.61639384348E+02 -0.41928213478E+02  0.11264145060E+02  0.11119294351E+03  0.81728825598E+02 0.  0.
          5    1    5    5  501    0  0.11240862758E+02  0.76018962549E+02  0.39923504516E+02  0.86724943790E+02  0.47000000000E+01 0. -1.
        -15    1    6    6    0    0  0.76553904757E+02 -0.36733408879E+02 -0.91075306110E+01  0.85416324577E+02  0.17770000000E+01 0.  1.
         16    1    6    6    0    0 -0.14914520409E+02 -0.51948045988E+01  0.20371675671E+02  0.25776618931E+02  0.00000000000E+00 0. -1.
         -5    1    3    3    0  503 -0.34077217814E+02 -0.27931814719E+02  0.44702922523E+02  0.62943501090E+02  0.47000000000E+01 0.  1.
         15    1    4    4    0    0  0.81384397138E+01 -0.23258833130E+02 -0.13298102766E+01  0.24741334724E+02  0.17770000000E+01 0. -1.
        -16    1    4    4    0    0 -0.46941469007E+02  0.17099898778E+02 -0.92438174314E+02  0.10507485009E+03  0.00000000000E+00 0.  1.
<mgrwt>
<rscale>  2 0.18997930E+03</rscale>
<asrwt>0</asrwt>
<pdfrwt beam="1">  1       21 0.30215397E-01 0.19118398E+03</pdfrwt>
<pdfrwt beam="2">  1       21 0.29888845E-01 0.19118398E+03</pdfrwt>
<totfact> 0.11285871E+05</totfact>
</mgrwt>
</event>
<event>
12    2  0.4097182E-002  0.2303747E+03  0.7546771E-02  0.1126487E+00
         21   -1    0    0  503  502  0.00000000000E+00  0.00000000000E+00  0.68896149626E+03  0.68896149626E+03  0.00000000000E+00 0. -1.
         21   -1    0    0  501  503 -0.00000000000E+00 -0.00000000000E+00 -0.79324206470E+02  0.79324206470E+02  0.00000000000E+00 0. -1.
          6    2    1    2  501    0  0.15068863897E+03 -0.14854995237E+02  0.23620213829E+03  0.32950750311E+03  0.17278891073E+03 0.  0.
         24    2    3    3    0    0  0.83751571234E+02 -0.62300660186E+02  0.20717314213E+03  0.24234997459E+03  0.70122046581E+02 0.  0.
         -6    2    1    2    0  502 -0.15068863897E+03  0.14854995237E+02  0.37343515149E+03  0.43877819962E+03  0.17362246195E+03 0.  0.
        -24    2    5    5    0    0 -0.15701985905E+03 -0.32691069364E+02  0.32119673914E+03  0.36770320872E+03  0.79462961912E+02 0.  0.
          5    1    3    3  501    0  0.66937067738E+02  0.47445664949E+02  0.29028996160E+02  0.87157528521E+02  0.47000000000E+01 0. -1.
        -15    1    4    4    0    0  0.33157834860E+02 -0.64810088518E+02  0.14408531755E+03  0.16144202071E+03  0.17770000000E+01 0.  1.
         16    1    4    4    0    0  0.50593736373E+02  0.25094283317E+01  0.63087824579E+02  0.80907953879E+02  0.00000000000E+00 0. -1.
         -5    1    5    5    0  502  0.63312200749E+01  0.47546064601E+02  0.52238412357E+02  0.71074990906E+02  0.47000000000E+01 0.  1.
         15    1    6    6    0    0 -0.14844199098E+03 -0.92995748321E+01  0.23622315996E+03  0.27915237024E+03  0.17770000000E+01 0. -1.
        -16    1    6    6    0    0 -0.85778680651E+01 -0.23391494532E+02  0.84973579176E+02  0.88550838477E+02  0.00000000000E+00 0.  1.
<mgrwt>
<rscale>  2 0.23021764E+03</rscale>
<asrwt>0</asrwt>
<pdfrwt beam="1">  1       21 0.10599407E+00 0.23037469E+03</pdfrwt>
<pdfrwt beam="2">  1       21 0.12203725E-01 0.23037469E+03</pdfrwt>
<totfact> 0.39882709E+04</totfact>
</mgrwt>
</event>
<event>
12    2  0.4097182E-002  0.1790547E+03  0.7546771E-02  0.1168779E+00
         21   -1    0    0  503  502  0.00000000000E+00  0.00000000000E+00  0.27338650733E+02  0.27338650733E+02  0.00000000000E+00 0.  1.
         21   -1    0    0  501  503 -0.00000000000E+00 -0.00000000000E+00 -0.14176077758E+04  0.14176077758E+04  0.00000000000E+00 0.  1.
          6    2    1    2  501    0 -0.44249042160E+02 -0.13015481013E+02 -0.99675551033E+03  0.10127102894E+04  0.17301214537E+03 0.  0.
         24    2    3    3    0    0  0.51893887452E+01  0.29429686703E+02 -0.27679461036E+03  0.28979152622E+03  0.80441507477E+02 0.  0.
         -6    2    1    2    0  502  0.44249042160E+02  0.13015481013E+02 -0.39351361471E+03  0.43223613708E+03  0.17276496393E+03 0.  0.
        -24    2    5    5    0    0  0.31934616608E+02  0.80104683525E+01 -0.40487570895E+03  0.41412861340E+03  0.80586483961E+02 0.  0.
          5    1    3    3  501    0 -0.49438430906E+02 -0.42445167716E+02 -0.71996089997E+03  0.72291876321E+03  0.47000000000E+01 0. -1.
        -15    1    4    4    0    0 -0.19629122941E+02 -0.20775287873E+02 -0.72246309329E+02  0.77714876274E+02  0.17770000000E+01 0.  1.
         16    1    4    4    0    0  0.24818511686E+02  0.50204974576E+02 -0.20454830103E+03  0.21207664994E+03  0.00000000000E+00 0. -1.
         -5    1    5    5    0  502  0.12314425552E+02  0.50050126602E+01  0.11362094242E+02  0.18107523684E+02  0.47000000000E+01 0.  1.
         15    1    6    6    0    0 -0.20168509380E+02  0.19317960708E+02 -0.76602940515E+02  0.81554402708E+02  0.17770000000E+01 0. -1.
        -16    1    6    6    0    0  0.52103125988E+02 -0.11307492355E+02 -0.32827276844E+03  0.33257421069E+03  0.00000000000E+00 0.  1.
<mgrwt>
<rscale>  2 0.17899496E+03</rscale>
<asrwt>0</asrwt>
<pdfrwt beam="1">  1       21 0.42059463E-02 0.17905469E+03</pdfrwt>
<pdfrwt beam="2">  1       21 0.21809350E+00 0.17905469E+03</pdfrwt>
<totfact> 0.37600758E+04</totfact>
</mgrwt>
</event>
<event>
12    2  0.4097182E-002  0.2444048E+03  0.7546771E-02  0.1116924E+00
         21   -1    0    0  503  502  0.00000000000E+00  0.00000000000E+00  0.32532566664E+03  0.32532566664E+03  0.00000000000E+00 0. -1.
         21   -1    0    0  501  503 -0.00000000000E+00 -0.00000000000E+00 -0.55084434528E+03  0.55084434528E+03  0.00000000000E+00 0.  1.
          6    2    1    2  501    0 -0.10319678982E+03  0.13904889576E+03 -0.47053988497E+03  0.53022775027E+03  0.17248046547E+03 0.  0.
         24    2    3    3    0    0 -0.12473346921E+03  0.83036856256E+02 -0.26864267025E+03  0.31954848588E+03  0.86537810906E+02 0.  0.
         -6    2    1    2    0  502  0.10319678982E+03 -0.13904889576E+03  0.24502120634E+03  0.34594226165E+03  0.17221058038E+03 0.  0.
        -24    2    5    5    0    0  0.28758430764E+02 -0.13949835014E+03  0.20308814949E+03  0.26037508006E+03  0.79142585392E+02 0.  0.
          5    1    3    3  501    0  0.21536679391E+02  0.56012039506E+02 -0.20189721473E+03  0.21067926439E+03  0.47000000000E+01 0. -1.
        -15    1    4    4    0    0 -0.13057189224E+03  0.91639574874E+02 -0.23270825524E+03  0.28214024972E+03  0.17770000000E+01 0.  1.
         16    1    4    4    0    0  0.58384230308E+01 -0.86027186182E+01 -0.35934415006E+02  0.37408236164E+02  0.00000000000E+00 0. -1.
         -5    1    5    5    0  502  0.74438359054E+02  0.44945437682E+00  0.41933056854E+02  0.85567181589E+02  0.47000000000E+01 0.  1.
         15    1    6    6    0    0  0.49309898941E+02 -0.59206494300E+02  0.12280450966E+03  0.14498613872E+03  0.17770000000E+01 0. -1.
        -16    1    6    6    0    0 -0.20551468177E+02 -0.80291855840E+02  0.80283639831E+02  0.11538894134E+03  0.00000000000E+00 0.  1.
<mgrwt>
<rscale>  2 0.24435714E+03</rscale>
<asrwt>0</asrwt>
<pdfrwt beam="1">  1       21 0.50050103E-01 0.24440475E+03</pdfrwt>
<pdfrwt beam="2">  1       21 0.84745283E-01 0.24440475E+03</pdfrwt>
<totfact> 0.44178029E+03</totfact>
</mgrwt>
</event>
<event>
12    2  0.4097182E-002  0.1876862E+03  0.7546771E-02  0.1160695E+00
         21   -1    0    0  503  502  0.00000000000E+00  0.00000000000E+00  0.48551799988E+02  0.48551799988E+02  0.00000000000E+00 0. -1.
         21   -1    0    0  501  503 -0.00000000000E+00 -0.00000000000E+00 -0.72417974207E+03  0.72417974207E+03  0.00000000000E+00 0. -1.
          6    2    1    2  501    0 -0.73393656904E+02  0.28138212303E+01 -0.35144273107E+03  0.39841949679E+03  0.17271813956E+03 0.  0.
         24    2    3    3    0    0 -0.83122128189E+01  0.55486460262E+02 -0.23758499748E+03  0.25701343339E+03  0.80383043986E+02 0.  0.
         -6    2    1    2    0  502  0.73393656904E+02 -0.28138212303E+01 -0.32418521101E+03  0.37431204527E+03  0.17210145187E+03 0.  0.
        -24    2    5    5    0    0  0.47226719000E+02  0.46312011668E+02 -0.10601211652E+03  0.14910182069E+03  0.81348747204E+02 0.  0.
          5    1    3    3  501    0 -0.65081444085E+02 -0.52672639031E+02 -0.11385773360E+03  0.14140606340E+03  0.47000000000E+01 0. -1.
        -15    1    4    4    0    0 -0.27455433914E+02  0.16764834547E+01 -0.14958964716E+03  0.15210796072E+03  0.17770000000E+01 0.  1.
         16    1    4    4    0    0  0.19143221095E+02  0.53809976807E+02 -0.87995350320E+02  0.10490547267E+03  0.00000000000E+00 0. -1.
         -5    1    5    5    0  502  0.26166937904E+02 -0.49125832898E+02 -0.21817309449E+03  0.22521022459E+03  0.47000000000E+01 0.  1.
         15    1    6    6    0    0  0.48715791993E+02  0.40199738571E+02 -0.11896407644E+03  0.13470284549E+03  0.17770000000E+01 0. -1.
        -16    1    6    6    0    0 -0.14890729928E+01  0.61122730969E+01  0.12951959925E+02  0.14398975196E+02  0.00000000000E+00 0.  1.
<mgrwt>
<rscale>  2 0.18754418E+03</rscale>
<asrwt>0</asrwt>
<pdfrwt beam="1">  1       21 0.74695077E-02 0.18768618E+03</pdfrwt>
<pdfrwt beam="2">  1       21 0.11141227E+00 0.18768618E+03</pdfrwt>
<totfact> 0.85795760E+04</totfact>
</mgrwt>
</event>
<event>
12    2  0.4097182E-002  0.1862046E+03  0.7546771E-02  0.1161956E+00
         21   -1    0    0  501  502  0.00000000000E+00  0.00000000000E+00  0.74384501721E+02  0.74384501721E+02  0.00000000000E+00 0. -1.
         21   -1    0    0  502  503 -0.00000000000E+00 -0.00000000000E+00 -0.57894493170E+03  0.57894493170E+03  0.00000000000E+00 0. -1.
         -6    2    1    2    0  503 -0.20984689689E+02 -0.65113335523E+02 -0.10783099268E+03  0.21507561779E+03  0.17306037883E+03 0.  0.
        -24    2    3    3    0    0 -0.29847566490E+01  0.36514066081E+01  0.60123994330E+01  0.80781182771E+02  0.80418959210E+02 0.  0.
          6    2    1    2  501    0  0.20984689689E+02  0.65113335523E+02 -0.39672943730E+03  0.43825381563E+03  0.17318214928E+03 0.  0.
         24    2    5    5    0    0  0.27555372992E+02  0.33733134281E+02 -0.87136320144E+02  0.12696957398E+03  0.81432864985E+02 0.  0.
          5    1    5    5  501    0 -0.65706833037E+01  0.31380201242E+02 -0.30959311716E+03  0.31128424165E+03  0.47000000000E+01 0. -1.
        -15    1    6    6    0    0 -0.42881548997E+01 -0.23478264434E+02 -0.10398398446E+02  0.26094091142E+02  0.17770000000E+01 0.  1.
         16    1    6    6    0    0  0.31843527892E+02  0.57211398715E+02 -0.76737921699E+02  0.10087548284E+03  0.00000000000E+00 0. -1.
         -5    1    3    3    0  503 -0.17999933040E+02 -0.68764742131E+02 -0.11384339211E+03  0.13429443502E+03  0.47000000000E+01 0.  1.
         15    1    4    4    0    0  0.20548022152E+02 -0.95651656685E+01  0.34641369194E+02  0.41435441318E+02  0.17770000000E+01 0. -1.
        -16    1    4    4    0    0 -0.23532778801E+02  0.13216572277E+02 -0.28628969761E+02  0.39345741452E+02  0.00000000000E+00 0.  1.
<mgrwt>
<rscale>  2 0.18617630E+03</rscale>
<asrwt>0</asrwt>
<pdfrwt beam="1">  1       21 0.11443769E-01 0.18620462E+03</pdfrwt>
<pdfrwt beam="2">  1       21 0.89068452E-01 0.18620462E+03</pdfrwt>
<totfact> 0.68935960E+04</totfact>
</mgrwt>
</event>
<event>
12    2  0.4097182E-002  0.3118088E+03  0.7546771E-02  0.1079544E+00
         21   -1    0    0  503  502  0.00000000000E+00  0.00000000000E+00  0.21541406351E+03  0.21541406351E+03  0.00000000000E+00 0. -1.
         21   -1    0    0  501  503 -0.00000000000E+00 -0.00000000000E+00 -0.71819102192E+03  0.71819102192E+03  0.00000000000E+00 0. -1.
          6    2    1    2  501    0 -0.24435541822E+03  0.86146794246E+02 -0.53646168477E+03  0.62049645067E+03  0.17347583548E+03 0.  0.
         24    2    3    3    0    0 -0.53040678556E+02 -0.47526738362E+01 -0.13085840140E+03  0.16289383224E+03  0.81083770729E+02 0.  0.
         -6    2    1    2    0  502  0.24435541822E+03 -0.86146794246E+02  0.33684726353E+02  0.31310863477E+03  0.17254424304E+03 0.  0.
        -24    2    5    5    0    0  0.18809975782E+03 -0.99854557028E+00  0.51710854958E+02  0.20936879241E+03  0.76018173685E+02 0.  0.
          5    1    3    3  501    0 -0.19131473966E+03  0.90899468082E+02 -0.40560328337E+03  0.45760261843E+03  0.47000000000E+01 0. -1.
        -15    1    4    4    0    0 -0.15298459436E+02 -0.33581943786E+02 -0.99094569755E+02  0.10575765359E+03  0.17770000000E+01 0.  1.
         16    1    4    4    0    0 -0.37742219119E+02  0.28829269949E+02 -0.31763831640E+02  0.57136178647E+02  0.00000000000E+00 0. -1.
         -5    1    5    5    0  502  0.56255660396E+02 -0.85148248676E+02 -0.18026128606E+02  0.10373984235E+03  0.47000000000E+01 0.  1.
         15    1    6    6    0    0  0.41500029855E+02  0.15874536983E+02  0.42504122207E+02  0.61514319764E+02  0.17770000000E+01 0. -1.
        -16    1    6    6    0    0  0.14659972797E+03 -0.16873082553E+02  0.92067327513E+01  0.14785447265E+03  0.00000000000E+00 0.  1.
<mgrwt>
<rscale>  2 0.31167935E+03</rscale>
<asrwt>0</asrwt>
<pdfrwt beam="1">  1       21 0.33140625E-01 0.31180877E+03</pdfrwt>
<pdfrwt beam="2">  1       21 0.11049093E+00 0.31180877E+03</pdfrwt>
<totfact> 0.52544334E+03</totfact>
</mgrwt>
</event>
<event>
12    2  0.4097182E-002  0.1895602E+03  0.7546771E-02  0.1158873E+00
         21   -1    0    0  503  502  0.00000000000E+00  0.00000000000E+00  0.73023324646E+02  0.73023324646E+02  0.00000000000E+00 0.  1.
         21   -1    0    0  501  503 -0.00000000000E+00 -0.00000000000E+00 -0.49246310724E+03  0.49246310724E+03  0.00000000000E+00 0.  1.
          6    2    1    2  501    0 -0.13319829107E+02  0.75168814208E+02 -0.20027126832E+03  0.27575651381E+03  0.17350880530E+03 0.  0.
         24    2    3    3    0    0  0.41156868013E+02  0.61960760508E+02 -0.19026313392E+03  0.21862144607E+03  0.77860470868E+02 0.  0.
         -6    2    1    2    0  502  0.13319829107E+02 -0.75168814208E+02 -0.21916851428E+03  0.28972991808E+03  0.17343822907E+03 0.  0.
        -24    2    5    5    0    0 -0.15630171278E+02 -0.27609281713E+02 -0.29589304902E+02  0.92087872246E+02  0.81228532914E+02 0.  0.
          5    1    3    3  501    0 -0.54476697121E+02  0.13208053699E+02 -0.10008134397E+02  0.57135067741E+02  0.47000000000E+01 0. -1.
        -15    1    4    4    0    0  0.25460677491E+02 -0.29239521638E+01 -0.11580153844E+03  0.11861681849E+03  0.17770000000E+01 0.  1.
         16    1    4    4    0    0  0.15696190522E+02  0.64884712672E+02 -0.74461595482E+02  0.10000462758E+03  0.00000000000E+00 0. -1.
         -5    1    5    5    0  502  0.28950000386E+02 -0.47559532495E+02 -0.18957920938E+03  0.19764204583E+03  0.47000000000E+01 0.  1.
         15    1    6    6    0    0  0.28415638780E+02 -0.31559887193E+02 -0.19315700227E+02  0.46687568058E+02  0.17770000000E+01 0. -1.
        -16    1    6    6    0    0 -0.44045810059E+02  0.39506054802E+01 -0.10273604676E+02  0.45400304189E+02  0.00000000000E+00 0.  1.
<mgrwt>
<rscale>  2 0.18954406E+03</rscale>
<asrwt>0</asrwt>
<pdfrwt beam="1">  1       21 0.11234357E-01 0.18956021E+03</pdfrwt>
<pdfrwt beam="2">  1       21 0.75763557E-01 0.18956021E+03</pdfrwt>
<totfact> 0.10272665E+05</totfact>
</mgrwt>
</event>
<event>
12    2  0.4097182E-002  0.1870771E+03  0.7546771E-02  0.1161171E+00
         21   -1    0    0  503  502  0.00000000000E+00  0.00000000000E+00  0.23043231760E+03  0.23043231760E+03  0.00000000000E+00 0.  1.
         21   -1    0    0  501  503 -0.00000000000E+00 -0.00000000000E+00 -0.35918933474E+03  0.35918933474E+03  0.00000000000E+00 0.  1.
          6    2    1    2  501    0 -0.47679455499E+02 -0.52967761434E+02 -0.28845332303E+03  0.34380686688E+03  0.17297088749E+03 0.  0.
         24    2    3    3    0    0 -0.19704620223E+02 -0.94886943071E+02 -0.24930101191E+03  0.27981622175E+03  0.82184666407E+02 0.  0.
         -6    2    1    2    0  502  0.47679455499E+02  0.52967761434E+02  0.15969630589E+03  0.24581478547E+03  0.17275151060E+03 0.  0.
        -24    2    5    5    0    0  0.82068765616E+02  0.81869109399E+02  0.13077109112E+03  0.19218018271E+03  0.79964435777E+02 0.  0.
          5    1    3    3  501    0 -0.27974835276E+02  0.41919181637E+02 -0.39152311115E+02  0.63990645125E+02  0.47000000000E+01 0. -1.
        -15    1    4    4    0    0  0.26447823868E+02 -0.81948594733E+01 -0.71485147432E+02  0.76680682975E+02  0.17770000000E+01 0.  1.
         16    1    4    4    0    0 -0.46152444091E+02 -0.86692083597E+02 -0.17781586448E+03  0.20313553878E+03  0.00000000000E+00 0. -1.
         -5    1    5    5    0  502 -0.34389310117E+02 -0.28901347965E+02  0.28925214763E+02  0.53634602763E+02  0.47000000000E+01 0.  1.
         15    1    6    6    0    0  0.18487501443E+02  0.30213740027E+02 -0.27064949480E+01  0.35568815554E+02  0.17770000000E+01 0. -1.
        -16    1    6    6    0    0  0.63581264173E+02  0.51655369372E+02  0.13347758607E+03  0.15661136715E+03  0.00000000000E+00 0.  1.
<mgrwt>
<rscale>  2 0.18702638E+03</rscale>
<asrwt>0</asrwt>
<pdfrwt beam="1">  1       21 0.35451126E-01 0.18707710E+03</pdfrwt>
<pdfrwt beam="2">  1       21 0.55259898E-01 0.18707710E+03</pdfrwt>
<totfact> 0.23767186E+04</totfact>
</mgrwt>
</event>
<event>
11    2  0.4097182E-002  0.2894646E+03  0.7546771E-02  0.1090830E+00
         21   -1    0    0  503  502  0.00000000000E+00  0.00000000000E+00  0.60059101167E+03  0.60059101167E+03  0.00000000000E+00 0. -1.
         21   -1    0    0  501  503 -0.00000000000E+00 -0.00000000000E+00 -0.23835065555E+03  0.23835065555E+03  0.00000000000E+00 0.  1.
          6    2    1    2  501    0 -0.22781798188E+03  0.38483746573E+02 -0.90281746125E+02  0.30175824355E+03  0.17182902040E+03 0.  0.
         24    2    3    3    0    0 -0.21527367679E+03  0.40875311004E+02 -0.25681070456E+02  0.23573993951E+03  0.83067771944E+02 0.  0.
         -6    2    1    2    0  502  0.22781798188E+03 -0.38483746573E+02  0.45252210224E+03  0.53718342367E+03  0.17437816961E+03 0.  0.
          5    1    3    3  501    0 -0.12544305089E+02 -0.23915644317E+01 -0.64600675669E+02  0.66018304034E+02  0.47000000000E+01 0. -1.
        -15    1    4    4    0    0 -0.82966180019E+02  0.54258951166E+02 -0.26966593099E+02  0.10275103737E+03  0.17770000000E+01 0.  1.
         16    1    4    4    0    0 -0.13230749677E+03 -0.13383640161E+02  0.12855226433E+01  0.13298890214E+03  0.00000000000E+00 0. -1.
         -5    1    5    5    0  502 -0.52809362677E+01 -0.23323401153E+02  0.53653019715E+02  0.58928820230E+02  0.47000000000E+01 0.  1.
         15    1    5    5    0    0  0.18109152503E+03  0.42656629231E+02  0.27683233878E+03  0.33354614370E+03  0.17770000000E+01 0. -1.
        -16    1    5    5    0    0  0.52007393113E+02 -0.57816974651E+02  0.12203674375E+03  0.14470845974E+03  0.00000000000E+00 0.  1.
<mgrwt>
<rscale>  2 0.28908177E+03</rscale>
<asrwt>0</asrwt>
<pdfrwt beam="1">  1       21 0.92398617E-01 0.28946464E+03</pdfrwt>
<pdfrwt beam="2">  1       21 0.36669332E-01 0.28946464E+03</pdfrwt>
<totfact> 0.66732114E+03</totfact>
</mgrwt>
</event>
<event>
12    2  0.4097182E-002  0.2482324E+03  0.7546771E-02  0.1114522E+00
         21   -1    0    0  503  502  0.00000000000E+00  0.00000000000E+00  0.57980657653E+03  0.57980657653E+03  0.00000000000E+00 0. -1.
         21   -1    0    0  501  503 -0.00000000000E+00 -0.00000000000E+00 -0.20491108227E+03  0.20491108227E+03  0.00000000000E+00 0.  1.
          6    2    1    2  501    0 -0.13233996293E+03 -0.11794734814E+03 -0.85238345367E+02  0.26189599230E+03  0.17291180567E+03 0.  0.
         24    2    3    3    0    0 -0.10114564109E+03 -0.12818524410E+03 -0.11917727205E+03  0.21444242580E+03  0.71557209942E+02 0.  0.
         -6    2    1    2    0  502  0.13233996293E+03  0.11794734814E+03  0.46013383962E+03  0.52282166650E+03  0.17376392569E+03 0.  0.
        -24    2    5    5    0    0  0.11427740459E+03  0.14842396201E+03  0.34168556956E+03  0.39909954767E+03  0.86269477831E+02 0.  0.
          5    1    3    3  501    0 -0.31194321843E+02  0.10237895962E+02  0.33938926683E+02  0.47453566497E+02  0.47000000000E+01 0. -1.
        -15    1    4    4    0    0 -0.28470753146E+02 -0.70986871362E+02 -0.88544856256E+02  0.11701738755E+03  0.17770000000E+01 0.  1.
         16    1    4    4    0    0 -0.72674887942E+02 -0.57198372742E+02 -0.30632415794E+02  0.97425038256E+02  0.00000000000E+00 0. -1.
         -5    1    5    5    0  502  0.18062558344E+02 -0.30476613871E+02  0.11844827006E+03  0.12372211883E+03  0.47000000000E+01 0.  1.
         15    1    6    6    0    0  0.11935224464E+03  0.96476606787E+02  0.24174576310E+03  0.28635094842E+03  0.17770000000E+01 0. -1.
        -16    1    6    6    0    0 -0.50748400513E+01  0.51947355225E+02  0.99939806460E+02  0.11274859924E+03  0.00000000000E+00 0.  1.
<mgrwt>
<rscale>  2 0.24808337E+03</rscale>
<asrwt>0</asrwt>
<pdfrwt beam="1">  1       21 0.89201011E-01 0.24823244E+03</pdfrwt>
<pdfrwt beam="2">  1       21 0.31524782E-01 0.24823244E+03</pdfrwt>
<totfact> 0.10013778E+04</totfact>
</mgrwt>
</event>
<event>
11    2  0.4097182E-002  0.1938823E+03  0.7546771E-02  0.1156178E+00
         21   -1    0    0  501  502  0.00000000000E+00  0.00000000000E+00  0.44490932500E+02  0.44490932500E+02  0.00000000000E+00 0.  1.
         21   -1    0    0  502  503 -0.00000000000E+00 -0.00000000000E+00 -0.12268172668E+04  0.12268172668E+04  0.00000000000E+00 0.  1.
         -6    2    1    2    0  503  0.28703968185E+01 -0.76621431909E+02 -0.95077456993E+03  0.96930395189E+03  0.17233335521E+03 0.  0.
        -24    2    3    3    0    0 -0.39359771312E+02 -0.46828583890E+02 -0.31536133693E+03  0.33177507602E+03  0.82944682603E+02 0.  0.
          6    2    1    2  501    0 -0.28703968185E+01  0.76621431909E+02 -0.23155176436E+03  0.30200424740E+03  0.17807656461E+03 0.  0.
          5    1    5    5  501    0 -0.32788834749E+02  0.26559129667E+02 -0.12795484460E+03  0.13481478891E+03  0.47000000000E+01 0. -1.
        -15    1    5    5    0    0 -0.29728008608E+02  0.42994413174E+02 -0.60724854169E+01  0.52652700483E+02  0.17770000000E+01 0.  1.
         16    1    5    5    0    0  0.59646446539E+02  0.70678890684E+01 -0.97524434343E+02  0.11453675801E+03  0.00000000000E+00 0. -1.
         -5    1    3    3    0  503  0.42230168131E+02 -0.29792848020E+02 -0.63541323300E+03  0.63752887587E+03  0.47000000000E+01 0.  1.
         15    1    4    4    0    0 -0.56708764130E+02 -0.49624705925E+02 -0.29677036861E+03  0.30619324744E+03  0.17770000000E+01 0. -1.
        -16    1    4    4    0    0  0.17348992818E+02  0.27961220350E+01 -0.18590968320E+02  0.25581828576E+02  0.00000000000E+00 0.  1.
<mgrwt>
<rscale>  2 0.19255336E+03</rscale>
<asrwt>0</asrwt>
<pdfrwt beam="1">  1       21 0.68447595E-02 0.19388230E+03</pdfrwt>
<pdfrwt beam="2">  1       21 0.18874110E+00 0.19388230E+03</pdfrwt>
<totfact> 0.24976572E+04</totfact>
</mgrwt>
</event>
<event>
11    2  0.4097182E-002  0.2329035E+03  0.7546771E-02  0.1124778E+00
         21   -1    0    0  503  502  0.00000000000E+00  0.00000000000E+00  0.82407897978E+02  0.82407897978E+02  0.00000000000E+00 0. -1.
         21   -1    0    0  501  503 -0.00000000000E+00 -0.00000000000E+00 -0.12616094327E+04  0.12616094327E+04  0.00000000000E+00 0.  1.
          6    2    1    2  501    0  0.15481987038E+02  0.15482863421E+03 -0.10547414772E+04  0.10799447539E+04  0.17201595807E+03 0.  0.
         24    2    3    3    0    0 -0.53927263416E+01  0.14610355883E+03 -0.10368984215E+04  0.10507498017E+04  0.86841682125E+02 0.  0.
         -6    2    1    2    0  502 -0.15481987038E+02 -0.15482863421E+03 -0.12446005754E+03  0.26407257680E+03  0.17329864975E+03 0.  0.
          5    1    3    3  501    0  0.20874713379E+02  0.87250753744E+01 -0.17843055671E+02  0.29194952212E+02  0.47000000000E+01 0. -1.
        -15    1    4    4    0    0  0.34140615015E+02  0.58525090951E+02 -0.57370180620E+03  0.57769168943E+03  0.17770000000E+01 0.  1.
         16    1    4    4    0    0 -0.39533341356E+02  0.87578467884E+02 -0.46319661532E+03  0.47305811225E+03  0.00000000000E+00 0. -1.
         -5    1    5    5    0  502 -0.59729820626E+02 -0.88775476672E+00 -0.80814286304E+01  0.60463535038E+02  0.47000000000E+01 0.  1.
         15    1    5    5    0    0 -0.71036207386E+01 -0.48265587616E+02 -0.25529218397E+02  0.55090172413E+02  0.17770000000E+01 0. -1.
        -16    1    5    5    0    0  0.51351454327E+02 -0.10567529183E+03 -0.90849410510E+02  0.14851886935E+03  0.00000000000E+00 0.  1.
<mgrwt>
<rscale>  2 0.23266488E+03</rscale>
<asrwt>0</asrwt>
<pdfrwt beam="1">  1       21 0.12678139E-01 0.23290346E+03</pdfrwt>
<pdfrwt beam="2">  1       21 0.19409374E+00 0.23290346E+03</pdfrwt>
<totfact> 0.75466160E+03</totfact>
</mgrwt>
</event>
<event>
12    2  0.4097182E-002  0.1795540E+03  0.7546771E-02  0.1168454E+00
         21   -1    0    0  501  502  0.00000000000E+00  0.00000000000E+00  0.56333542599E+03  0.56333542599E+03  0.00000000000E+00 0.  1.
         21   -1    0    0  502  503 -0.00000000000E+00 -0.00000000000E+00 -0.72486847819E+02  0.72486847819E+02  0.00000000000E+00 0.  1.
         -6    2    1    2    0  503 -0.87361032166E+01 -0.45155258851E+02  0.98694848283E+02  0.20489094303E+03  0.17356355768E+03 0.  0.
        -24    2    3    3    0    0 -0.43426318985E+02 -0.82640274455E+02  0.88310069770E+02  0.15256053992E+03  0.82224021886E+02 0.  0.
          6    2    1    2  501    0  0.87361032166E+01  0.45155258851E+02  0.39215372989E+03  0.43093133078E+03  0.17263240450E+03 0.  0.
         24    2    5    5    0    0  0.70407350632E+02  0.46119339437E+02  0.23754039287E+03  0.26440311637E+03  0.79996132476E+02 0.  0.
          5    1    5    5  501    0 -0.61671247415E+02 -0.96408058583E+00  0.15461333702E+03  0.16652821441E+03  0.47000000000E+01 0. -1.
        -15    1    6    6    0    0 -0.65112605752E+01  0.30228627231E+02  0.32793051404E+02  0.45107741774E+02  0.17770000000E+01 0.  1.
         16    1    6    6    0    0  0.76918611207E+02  0.15890712207E+02  0.20474734146E+03  0.21929537460E+03  0.00000000000E+00 0. -1.
         -5    1    3    3    0  503  0.34690215768E+02  0.37485015604E+02  0.10384778513E+02  0.52330403109E+02  0.47000000000E+01 0.  1.
         15    1    4    4    0    0  0.49500211449E+01  0.28560491349E+01  0.44670446592E+02  0.45069571262E+02  0.17770000000E+01 0. -1.
        -16    1    4    4    0    0 -0.48376340130E+02 -0.85496323590E+02  0.43639623178E+02  0.10749096866E+03  0.00000000000E+00 0.  1.
<mgrwt>
<rscale>  2 0.17932856E+03</rscale>
<asrwt>0</asrwt>
<pdfrwt beam="1">  1       21 0.86666986E-01 0.17955396E+03</pdfrwt>
<pdfrwt beam="2">  1       21 0.11151823E-01 0.17955396E+03</pdfrwt>
<totfact> 0.77088449E+04</totfact>
</mgrwt>
</event>
<event>
12    2  0.4097182E-002  0.1899672E+03  0.7546771E-02  0.1158716E+00
         21   -1    0    0  501  502  0.00000000000E+00  0.00000000000E+00  0.45937335219E+02  0.45937335219E+02  0.00000000000E+00 0.  1.
         21   -1    0    0  502  503 -0.00000000000E+00 -0.00000000000E+00 -0.11181870115E+04  0.11181870115E+04  0.00000000000E+00 0.  1.
         -6    2    1    2    0  503  0.35153327957E+01 -0.78141048554E+02 -0.85454447988E+03  0.87518996006E+03  0.17202562909E+03 0.  0.
        -24    2    3    3    0    0  0.57508796122E+02 -0.28631377988E+01 -0.46004751133E+03  0.46993447753E+03  0.76676210766E+02 0.  0.
          6    2    1    2  501    0 -0.35153327957E+01  0.78141048554E+02 -0.21770519639E+03  0.28893438664E+03  0.17311599064E+03 0.  0.
         24    2    5    5    0    0  0.45217639180E+02  0.94661249600E+02 -0.18883784690E+03  0.22974626734E+03  0.78219101664E+02 0.  0.
          5    1    5    5  501    0 -0.48732971976E+02 -0.16520201046E+02 -0.28867349482E+02  0.59188119300E+02  0.47000000000E+01 0. -1.
        -15    1    6    6    0    0  0.22828584912E+01  0.15160887292E+02  0.47186095759E+01  0.16139608164E+02  0.17770000000E+01 0.  1.
         16    1    6    6    0    0  0.42934780689E+02  0.79500362309E+02 -0.19355645648E+03  0.21360665918E+03  0.00000000000E+00 0. -1.
         -5    1    3    3    0  503 -0.53993463327E+02 -0.75277910755E+02 -0.39449696855E+03  0.40525548253E+03  0.47000000000E+01 0.  1.
         15    1    4    4    0    0  0.31030868525E+02 -0.26341149244E+02 -0.97584951678E+02  0.10574852939E+03  0.17770000000E+01 0. -1.
        -16    1    4    4    0    0  0.26477927597E+02  0.23478011445E+02 -0.36246255966E+03  0.36418594814E+03  0.00000000000E+00 0.  1.
<mgrwt>
<rscale>  2 0.18971841E+03</rscale>
<asrwt>0</asrwt>
<pdfrwt beam="1">  1       21 0.70672818E-02 0.18996717E+03</pdfrwt>
<pdfrwt beam="2">  1       21 0.17202878E+00 0.18996717E+03</pdfrwt>
<totfact> 0.30780780E+04</totfact>
</mgrwt>
</event>
<event>
12    2  0.4097182E-002  0.2925500E+03  0.7546771E-02  0.1089039E+00
         21   -1    0    0  501  502  0.00000000000E+00  0.00000000000E+00  0.15295355405E+04  0.15295355405E+04  0.00000000000E+00 0.  1.
         21   -1    0    0  502  503 -0.00000000000E+00 -0.00000000000E+00 -0.21278616721E+03  0.21278616721E+03  0.00000000000E+00 0. -1.
         -6    2    1    2    0  503 -0.86197882110E+02 -0.21916714984E+03  0.14062905388E+04  0.14363754749E+04  0.17336986668E+03 0.  0.
        -24    2    3    3    0    0 -0.11735001432E+03 -0.18868317682E+03  0.13020669459E+04  0.13233074631E+04  0.79949629489E+02 0.  0.
          6    2    1    2  501    0  0.86197882110E+02  0.21916714984E+03 -0.89541165600E+02  0.30594623282E+03  0.17355449458E+03 0.  0.
         24    2    5    5    0    0  0.92383821080E+02  0.59557208114E+02 -0.31572642273E+02  0.13595788311E+03  0.73524708803E+02 0.  0.
          5    1    5    5  501    0 -0.61859389701E+01  0.15960994173E+03 -0.57968523327E+02  0.16998834971E+03  0.47000000000E+01 0. -1.
        -15    1    6    6    0    0  0.36286845476E+02  0.80107335827E+01 -0.45225098417E+02  0.58560859479E+02  0.17770000000E+01 0.  1.
         16    1    6    6    0    0  0.56096975604E+02  0.51546474532E+02  0.13652456143E+02  0.77397023633E+02  0.00000000000E+00 0. -1.
         -5    1    3    3    0  503  0.31152132210E+02 -0.30483973020E+02  0.10422359294E+03  0.11306801173E+03  0.47000000000E+01 0.  1.
         15    1    4    4    0    0 -0.94335537198E+02 -0.82985175089E+02  0.60655835190E+03  0.61943678035E+03  0.17770000000E+01 0. -1.
        -16    1    4    4    0    0 -0.23014477122E+02 -0.10569800173E+03  0.69550859400E+03  0.70387068277E+03  0.00000000000E+00 0.  1.
<mgrwt>
<rscale>  2 0.29252258E+03</rscale>
<asrwt>0</asrwt>
<pdfrwt beam="1">  1       21 0.23531315E+00 0.29254996E+03</pdfrwt>
<pdfrwt beam="2">  1       21 0.32736334E-01 0.29254996E+03</pdfrwt>
<totfact> 0.65963708E+02</totfact>
</mgrwt>
</event>
<event>
12    2  0.4097182E-002  0.1984472E+03  0.7546771E-02  0.1151218E+00
         21   -1    0    0  501  502  0.00000000000E+00  0.00000000000E+00  0.50853638521E+03  0.50853638521E+03  0.00000000000E+00 0. -1.
         21   -1    0    0  502  503 -0.00000000000E+00 -0.00000000000E+00 -0.12428210343E+03  0.12428210343E+03  0.00000000000E+00 0. -1.
         -6    2    1    2    0  503  0.76349086957E+02 -0.58259968659E+02 -0.29658772235E+01  0.19770844256E+03  0.17279011779E+03 0.  0.
        -24    2    3    3    0    0  0.25937932809E+02  0.73042555160E+00 -0.58554755559E+02  0.10213980510E+03  0.79564882379E+02 0.  0.
          6    2    1    2  501    0 -0.76349086957E+02  0.58259968659E+02  0.38722015900E+03  0.43511004608E+03  0.17366028226E+03 0.  0.
         24    2    5    5    0    0 -0.82320204917E+02 -0.24280449634E+02  0.17237997373E+03  0.20483418953E+03  0.69828600767E+02 0.  0.
          5    1    5    5  501    0  0.59711179602E+01  0.82540418293E+02  0.21484018527E+03  0.23027585655E+03  0.47000000000E+01 0. -1.
        -15    1    6    6    0    0 -0.38960243695E+02  0.12588910051E+02  0.27981791512E+02  0.49623780895E+02  0.17770000000E+01 0.  1.
         16    1    6    6    0    0 -0.43359961222E+02 -0.36869359685E+02  0.14439818222E+03  0.15521040864E+03  0.00000000000E+00 0. -1.
         -5    1    3    3    0  503  0.50411154148E+02 -0.58990394211E+02  0.55588878335E+02  0.95568637462E+02  0.47000000000E+01 0.  1.
         15    1    4    4    0    0  0.38121356680E+02 -0.31340223502E+02 -0.34486772490E+02  0.60232405315E+02  0.17770000000E+01 0. -1.
        -16    1    4    4    0    0 -0.12183423871E+02  0.32070649053E+02 -0.24067983069E+02  0.41907399787E+02  0.00000000000E+00 0.  1.
<mgrwt>
<rscale>  2 0.19825669E+03</rscale>
<asrwt>0</asrwt>
<pdfrwt beam="1">  1       21 0.78236366E-01 0.19844722E+03</pdfrwt>
<pdfrwt beam="2">  1       21 0.19120324E-01 0.19844722E+03</pdfrwt>
<totfact> 0.36191339E+04</totfact>
</mgrwt>
</event>
<event>
12    2  0.4097182E-002  0.1994325E+03  0.7546771E-02  0.1150628E+00
         21   -1    0    0  503  502  0.00000000000E+00  0.00000000000E+00  0.37069609811E+03  0.37069609811E+03  0.00000000000E+00 0. -1.
         21   -1    0    0  501  503 -0.00000000000E+00 -0.00000000000E+00 -0.20040472696E+03  0.20040472696E+03  0.00000000000E+00 0. -1.
          6    2    1    2  501    0  0.38274139051E+02  0.90790894185E+02 -0.11078678509E+03  0.22645859703E+03  0.17117794318E+03 0.  0.
         24    2    3    3    0    0 -0.27327870289E+02  0.33661352849E+01 -0.67360665651E+02  0.10875290495E+03  0.80818263390E+02 0.  0.
         -6    2    1    2    0  502 -0.38274139051E+02 -0.90790894185E+02  0.28107815624E+03  0.34464222804E+03  0.17339388469E+03 0.  0.
        -24    2    5    5    0    0  0.44672028848E+02 -0.31295703828E+02  0.13597107541E+03  0.16716575255E+03  0.80506175164E+02 0.  0.
          5    1    3    3  501    0  0.65602009340E+02  0.87424758900E+02 -0.43426119439E+02  0.11770569208E+03  0.47000000000E+01 0. -1.
        -15    1    4    4    0    0 -0.20856291699E+02 -0.15735264300E+02  0.10581492254E+02  0.28243745384E+02  0.17770000000E+01 0.  1.
         16    1    4    4    0    0 -0.64715785906E+01  0.19101399585E+02 -0.77942157905E+02  0.80509159569E+02  0.00000000000E+00 0. -1.
         -5    1    5    5    0  502 -0.82946167900E+02 -0.59495190357E+02  0.14510708083E+03  0.17747647549E+03  0.47000000000E+01 0.  1.
         15    1    6    6    0    0  0.64928416975E+00 -0.41256278729E+02  0.10386877832E+03  0.11177827581E+03  0.17770000000E+01 0. -1.
        -16    1    6    6    0    0  0.44022744678E+02  0.99605749007E+01  0.32102297082E+02  0.55387476737E+02  0.00000000000E+00 0.  1.
<mgrwt>
<rscale>  2 0.19894989E+03</rscale>
<asrwt>0</asrwt>
<pdfrwt beam="1">  1       21 0.57030169E-01 0.19943253E+03</pdfrwt>
<pdfrwt beam="2">  1       21 0.30831497E-01 0.19943253E+03</pdfrwt>
<totfact> 0.29068812E+04</totfact>
</mgrwt>
</event>
<event>
12    2  0.4097182E-002  0.1877753E+03  0.7546771E-02  0.1162922E+00
         21   -1    0    0  503  502  0.00000000000E+00  0.00000000000E+00  0.58583324526E+03  0.58583324526E+03  0.00000000000E+00 0. -1.
         21   -1    0    0  501  503 -0.00000000000E+00 -0.00000000000E+00 -0.62586422285E+02  0.62586422285E+02  0.00000000000E+00 0. -1.
          6    2    1    2  501    0  0.70000370726E+02 -0.93782293366E+01  0.35240044954E+03  0.39455347532E+03  0.16278318392E+03 0.  0.
         24    2    3    3    0    0  0.53889472963E+02  0.43476088868E+01  0.89692024805E+02  0.13095194633E+03  0.78617911031E+02 0.  0.
         -6    2    1    2    0  502 -0.70000370726E+02  0.93782293366E+01  0.17084637344E+03  0.25386619222E+03  0.17398723272E+03 0.  0.
        -24    2    5    5    0    0 -0.24057897594E+02  0.68661693111E+02  0.13015412385E+03  0.16840749406E+03  0.78280122406E+02 0.  0.
          5    1    3    3  501    0  0.16110897763E+02 -0.13725838223E+02  0.26270842473E+03  0.26360152899E+03  0.47000000000E+01 0. -1.
        -15    1    4    4    0    0  0.68396971293E+02 -0.12717916889E+02  0.81337417476E+02  0.10704589811E+03  0.17770000000E+01 0.  1.
         16    1    4    4    0    0 -0.14507498330E+02  0.17065525776E+02  0.83546073295E+01  0.23906048218E+02  0.00000000000E+00 0. -1.
         -5    1    5    5    0  502 -0.45942473133E+02 -0.59283463774E+02  0.40692249585E+02  0.85458698158E+02  0.47000000000E+01 0.  1.
         15    1    6    6    0    0 -0.24945928602E+02  0.14827419772E+02  0.16977143895E+01  0.29123730772E+02  0.17770000000E+01 0. -1.
        -16    1    6    6    0    0  0.88803100841E+00  0.53834273339E+02  0.12845640946E+03  0.13928376329E+03  0.00000000000E+00 0.  1.
<mgrwt>
<rscale>  2 0.18513740E+03</rscale>
<asrwt>0</asrwt>
<pdfrwt beam="1">  1       21 0.90128188E-01 0.18777529E+03</pdfrwt>
<pdfrwt beam="2">  1       21 0.96286808E-02 0.18777529E+03</pdfrwt>
<totfact> 0.91018983E+04</totfact>
</mgrwt>
</event>
<event>
12    2  0.4097182E-002  0.2097142E+03  0.7546771E-02  0.1142032E+00
         21   -1    0    0  503  502  0.00000000000E+00  0.00000000000E+00  0.32103819366E+03  0.32103819366E+03  0.00000000000E+00 0.  1.
         21   -1    0    0  501  503 -0.00000000000E+00 -0.00000000000E+00 -0.21133301357E+03  0.21133301357E+03  0.00000000000E+00 0.  1.
          6    2    1    2  501    0 -0.97039265380E+02 -0.68768102493E+02 -0.10395579907E+03  0.23298677258E+03  0.17126107875E+03 0.  0.
         24    2    3    3    0    0 -0.50259140091E+02 -0.10309588984E+01 -0.11628919106E+03  0.14961469511E+03  0.79588548149E+02 0.  0.
         -6    2    1    2    0  502  0.97039265380E+02  0.68768102493E+02  0.21366097916E+03  0.29938443465E+03  0.17272624221E+03 0.  0.
        -24    2    5    5    0    0 -0.63424501768E+01  0.11954940118E+02  0.13288460892E+03  0.15633749648E+03  0.81240053236E+02 0.  0.
          5    1    3    3  501    0 -0.46780125289E+02 -0.67737143595E+02  0.12333391991E+02  0.83372077475E+02  0.47000000000E+01 0. -1.
        -15    1    4    4    0    0 -0.33911947492E+02 -0.34611045796E+02 -0.94915242360E+02  0.10658332719E+03  0.17770000000E+01 0.  1.
         16    1    4    4    0    0 -0.16347192600E+02  0.33580086898E+02 -0.21373948699E+02  0.43031367918E+02  0.00000000000E+00 0. -1.
         -5    1    5    5    0  502  0.10338171556E+03  0.56813162375E+02  0.80776370235E+02  0.14304693817E+03  0.47000000000E+01 0.  1.
         15    1    6    6    0    0  0.32936312290E+00 -0.33785878136E+02  0.38587988925E+02  0.51320411726E+02  0.17770000000E+01 0. -1.
        -16    1    6    6    0    0 -0.66718132997E+01  0.45740818254E+02  0.94296619996E+02  0.10501708475E+03  0.00000000000E+00 0.  1.
<mgrwt>
<rscale>  2 0.20941223E+03</rscale>
<asrwt>0</asrwt>
<pdfrwt beam="1">  1       21 0.49390491E-01 0.20971415E+03</pdfrwt>
<pdfrwt beam="2">  1       21 0.32512771E-01 0.20971415E+03</pdfrwt>
<totfact> 0.35267485E+04</totfact>
</mgrwt>
</event>
<event>
12    2  0.4097182E-002  0.2280188E+03  0.7546771E-02  0.1128604E+00
         21   -1    0    0  503  502  0.00000000000E+00  0.00000000000E+00  0.13260653040E+03  0.13260653040E+03  0.00000000000E+00 0.  1.
         21   -1    0    0  501  503 -0.00000000000E+00 -0.00000000000E+00 -0.39067470602E+03  0.39067470602E+03  0.00000000000E+00 0. -1.
          6    2    1    2  501    0  0.51138850909E+01 -0.14673778147E+03 -0.15449600666E+03  0.27284207915E+03  0.17033982433E+03 0.  0.
         24    2    3    3    0    0 -0.51702100490E+01 -0.40434435607E+02 -0.70063531364E+01  0.90684312778E+02  0.80702422174E+02 0.  0.
         -6    2    1    2    0  502 -0.51138850909E+01  0.14673778147E+03 -0.10357216896E+03  0.25043915727E+03  0.17445471899E+03 0.  0.
        -24    2    5    5    0    0 -0.22923821385E+02  0.88727787451E+02  0.58233163289E+01  0.12525203557E+03  0.85182389899E+02 0.  0.
          5    1    3    3  501    0  0.10284095140E+02 -0.10630334586E+03 -0.14748965352E+03  0.18215776638E+03  0.47000000000E+01 0. -1.
        -15    1    4    4    0    0 -0.10270442840E+02 -0.62195251047E+02  0.82835720964E+01  0.63604296589E+02  0.17770000000E+01 0.  1.
         16    1    4    4    0    0  0.51002327905E+01  0.21760815440E+02 -0.15289925233E+02  0.27080016188E+02  0.00000000000E+00 0. -1.
         -5    1    5    5    0  502  0.17809936294E+02  0.58009994019E+02 -0.10939548529E+03  0.12518712170E+03  0.47000000000E+01 0.  1.
         15    1    6    6    0    0 -0.29857058415E+02  0.78497120108E+02 -0.28552383104E+02  0.88722252634E+02  0.17770000000E+01 0. -1.
        -16    1    6    6    0    0  0.69332370299E+01  0.10230667342E+02  0.34375699433E+02  0.36529782938E+02  0.00000000000E+00 0.  1.
<mgrwt>
<rscale>  2 0.22723158E+03</rscale>
<asrwt>0</asrwt>
<pdfrwt beam="1">  1       21 0.20401005E-01 0.22801881E+03</pdfrwt>
<pdfrwt beam="2">  1       21 0.60103801E-01 0.22801881E+03</pdfrwt>
<totfact> 0.56502845E+04</totfact>
</mgrwt>
</event>
<event>
12    2  0.4097182E-002  0.2057596E+03  0.7546771E-02  0.1145201E+00
         21   -1    0    0  503  502  0.00000000000E+00  0.00000000000E+00  0.34011332507E+03  0.34011332507E+03  0.00000000000E+00 0.  1.
         21   -1    0    0  501  503 -0.00000000000E+00 -0.00000000000E+00 -0.12394449095E+03  0.12394449095E+03  0.00000000000E+00 0. -1.
          6    2    1    2  501    0 -0.70903481300E+02  0.85530901456E+02  0.99598731743E+02  0.22757190408E+03  0.17183196850E+03 0.  0.
         24    2    3    3    0    0 -0.33439778801E+02  0.81069930498E+02  0.13324244638E+03  0.17680361870E+03  0.76258885580E+02 0.  0.
         -6    2    1    2    0  502  0.70903481300E+02 -0.85530901456E+02  0.11657010238E+03  0.23648591193E+03  0.17318821845E+03 0.  0.
        -24    2    5    5    0    0  0.26583022948E+02 -0.86940881360E+02  0.14420728044E+02  0.12502795686E+03  0.84608856744E+02 0.  0.
          5    1    3    3  501    0 -0.37463702500E+02  0.44609709582E+01 -0.33643714635E+02  0.50768285388E+02  0.47000000000E+01 0. -1.
        -15    1    4    4    0    0 -0.14970471056E+02  0.65812525395E+02  0.35723801218E+02  0.76385543167E+02  0.17770000000E+01 0.  1.
         16    1    4    4    0    0 -0.18469307745E+02  0.15257405103E+02  0.97518645159E+02  0.10041807553E+03  0.00000000000E+00 0. -1.
         -5    1    5    5    0  502  0.44320458352E+02  0.14099799037E+01  0.10214937433E+03  0.11145795507E+03  0.47000000000E+01 0.  1.
         15    1    6    6    0    0 -0.29902849786E+02 -0.43277097749E+02  0.93153770593E+01  0.53451114055E+02  0.17770000000E+01 0. -1.
        -16    1    6    6    0    0  0.56485872735E+02 -0.43663783611E+02  0.51053509845E+01  0.71576842809E+02  0.00000000000E+00 0.  1.
<mgrwt>
<rscale>  2 0.20547391E+03</rscale>
<asrwt>0</asrwt>
<pdfrwt beam="1">  1       21 0.52325127E-01 0.20575956E+03</pdfrwt>
<pdfrwt beam="2">  1       21 0.19068383E-01 0.20575956E+03</pdfrwt>
<totfact> 0.86931034E+04</totfact>
</mgrwt>
</event>
<event>
12    2  0.4097182E-002  0.2091638E+03  0.7546771E-02  0.1142862E+00
         21   -1    0    0  501  502  0.00000000000E+00  0.00000000000E+00  0.94227214260E+02  0.94227214260E+02  0.00000000000E+00 0.  1.
         21   -1    0    0  502  503 -0.00000000000E+00 -0.00000000000E+00 -0.60337632769E+03  0.60337632769E+03  0.00000000000E+00 0.  1.
         -6    2    1    2    0  503  0.58244916069E+02  0.96873142347E+02 -0.42471036765E+03  0.47203891490E+03  0.17223520207E+03 0.  0.
        -24    2    3    3    0    0  0.15204259496E+02  0.48153894523E+02 -0.85267239068E+02  0.12639489170E+03  0.78455079672E+02 0.  0.
          6    2    1    2  501    0 -0.58244916069E+02 -0.96873142347E+02 -0.84438745784E+02  0.22556462706E+03  0.17599040665E+03 0.  0.
         24    2    5    5    0    0 -0.61544689080E+02 -0.54867432748E+02  0.15470227536E+02  0.11703232269E+03  0.81603018843E+02 0.  0.
          5    1    5    5  501    0  0.32997730108E+01 -0.42005709599E+02 -0.99908973320E+02  0.10853230436E+03  0.47000000000E+01 0. -1.
        -15    1    6    6    0    0 -0.68224773790E+02 -0.64833891354E+02 -0.39364264604E+01  0.94216274651E+02  0.17770000000E+01 0.  1.
         16    1    6    6    0    0  0.66800847104E+01  0.99664586054E+01  0.19406653997E+02  0.22816048041E+02  0.00000000000E+00 0. -1.
         -5    1    3    3    0  503  0.43040656573E+02  0.48719247824E+02 -0.33944312858E+03  0.34564402319E+03  0.47000000000E+01 0.  1.
         15    1    4    4    0    0 -0.15254342500E+02 -0.16065341882E+02 -0.20440671819E+02  0.30195512387E+02  0.17770000000E+01 0. -1.
        -16    1    4    4    0    0  0.30458601996E+02  0.64219236404E+02 -0.64826567249E+02  0.96199379318E+02  0.00000000000E+00 0.  1.
<mgrwt>
<rscale>  2 0.20837192E+03</rscale>
<asrwt>0</asrwt>
<pdfrwt beam="1">  1       21 0.14496494E-01 0.20916381E+03</pdfrwt>
<pdfrwt beam="2">  1       21 0.92827131E-01 0.20916381E+03</pdfrwt>
<totfact> 0.40459200E+04</totfact>
</mgrwt>
</event>
<event>
12    2  0.4097182E-002  0.1796199E+03  0.7546771E-02  0.1168635E+00
         21   -1    0    0  503  502  0.00000000000E+00  0.00000000000E+00  0.73388482510E+02  0.73388482510E+02  0.00000000000E+00 0.  1.
         21   -1    0    0  501  503 -0.00000000000E+00 -0.00000000000E+00 -0.56134524754E+03  0.56134524754E+03  0.00000000000E+00 0.  1.
          6    2    1    2  501    0 -0.36969823458E+02  0.25935600863E+02 -0.39354667295E+03  0.43181364548E+03  0.17188547754E+03 0.  0.
         24    2    3    3    0    0  0.61327542266E+00  0.78540868016E+02 -0.23982176457E+03  0.26498067238E+03  0.80816049886E+02 0.  0.
         -6    2    1    2    0  502  0.36969823458E+02 -0.25935600863E+02 -0.94410092080E+02  0.20292008458E+03  0.17385014236E+03 0.  0.
        -24    2    5    5    0    0  0.30570307183E+02  0.21303054168E+02 -0.11929530140E+03  0.14894038487E+03  0.81015464641E+02 0.  0.
          5    1    3    3  501    0 -0.37583098881E+02 -0.52605267153E+02 -0.15372490838E+03  0.16683297309E+03  0.47000000000E+01 0. -1.
        -15    1    4    4    0    0 -0.19901435101E+01  0.12265717735E+02  0.32958365813E+01  0.12978011038E+02  0.17770000000E+01 0.  1.
         16    1    4    4    0    0  0.26034189328E+01  0.66275150281E+02 -0.24311760115E+03  0.25200266134E+03  0.00000000000E+00 0. -1.
         -5    1    5    5    0  502  0.63995162757E+01 -0.47238655031E+02  0.24885209319E+02  0.53979699708E+02  0.47000000000E+01 0.  1.
         15    1    6    6    0    0  0.33174674426E+02 -0.13944316054E+02 -0.15373248481E+02  0.39172662295E+02  0.17770000000E+01 0. -1.
        -16    1    6    6    0    0 -0.26043672431E+01  0.35247370222E+02 -0.10392205292E+03  0.10976772257E+03  0.00000000000E+00 0.  1.
<mgrwt>
<rscale>  2 0.17914275E+03</rscale>
<asrwt>0</asrwt>
<pdfrwt beam="1">  1       21 0.11290536E-01 0.17961986E+03</pdfrwt>
<pdfrwt beam="2">  1       21 0.86360807E-01 0.17961986E+03</pdfrwt>
<totfact> 0.76024726E+04</totfact>
</mgrwt>
</event>
<event>
12    2  0.4097182E-002  0.1792306E+03  0.7546771E-02  0.1169109E+00
         21   -1    0    0  501  502  0.00000000000E+00  0.00000000000E+00  0.63254693987E+03  0.63254693987E+03  0.00000000000E+00 0. -1.
         21   -1    0    0  502  503 -0.00000000000E+00 -0.00000000000E+00 -0.23200610864E+03  0.23200610864E+03  0.00000000000E+00 0. -1.
         -6    2    1    2    0  503  0.29223937676E+02  0.36303563687E+02 -0.18217628130E+03  0.25556174752E+03  0.17306536931E+03 0.  0.
        -24    2    3    3    0    0 -0.40880647805E+02 -0.16753940798E+02 -0.11869359049E+03  0.14701731551E+03  0.74659230769E+02 0.  0.
          6    2    1    2  501    0 -0.29223937676E+02 -0.36303563687E+02  0.58271711253E+03  0.60899130099E+03  0.17070203331E+03 0.  0.
         24    2    5    5    0    0 -0.27791397649E+01 -0.21756890198E+02  0.12911067153E+03  0.15435757329E+03  0.81704400370E+02 0.  0.
          5    1    5    5  501    0 -0.26444797911E+02 -0.14546673489E+02  0.45360644100E+03  0.45463372770E+03  0.47000000000E+01 0. -1.
        -15    1    6    6    0    0  0.32897310778E+02  0.84638743056E+01  0.77959840928E+02  0.85057420318E+02  0.17770000000E+01 0.  1.
         16    1    6    6    0    0 -0.35676450543E+02 -0.30220764503E+02  0.51150830606E+02  0.69300152974E+02  0.00000000000E+00 0. -1.
         -5    1    3    3    0  503  0.70104585481E+02  0.53057504485E+02 -0.63482690819E+02  0.10854443201E+03  0.47000000000E+01 0.  1.
         15    1    4    4    0    0 -0.50049087588E+02 -0.35237305593E+02 -0.64068953156E+02  0.88625997097E+02  0.17770000000E+01 0. -1.
        -16    1    4    4    0    0  0.91684397829E+01  0.18483364795E+02 -0.54624637330E+02  0.58391318410E+02  0.00000000000E+00 0.  1.
<mgrwt>
<rscale>  2 0.17865762E+03</rscale>
<asrwt>0</asrwt>
<pdfrwt beam="1">  1       21 0.97314913E-01 0.17923060E+03</pdfrwt>
<pdfrwt beam="2">  1       21 0.35693248E-01 0.17923060E+03</pdfrwt>
<totfact> 0.66943439E+03</totfact>
</mgrwt>
</event>
<event>
12    2  0.4097182E-002  0.1931038E+03  0.7546771E-02  0.1160294E+00
         21   -1    0    0  503  502  0.00000000000E+00  0.00000000000E+00  0.60500584012E+03  0.60500584012E+03  0.00000000000E+00 0.  1.
         21   -1    0    0  501  503 -0.00000000000E+00 -0.00000000000E+00 -0.92848979982E+02  0.92848979982E+02  0.00000000000E+00 0.  1.
          6    2    1    2  501    0  0.51871196957E+01  0.13362664306E+02  0.48537955762E+03  0.52238147277E+03  0.19257108072E+03 0.  0.
         24    2    3    3    0    0  0.62554307799E+02 -0.23295454165E+02  0.16989555703E+03  0.19960127427E+03  0.80749295847E+02 0.  0.
         -6    2    1    2    0  502 -0.51871196957E+01 -0.13362664306E+02  0.26777302510E+02  0.17547334732E+03  0.17282478029E+03 0.  0.
        -24    2    5    5    0    0  0.11059154723E+01  0.38341311318E+02  0.65993643754E+02  0.11010581098E+03  0.79352689892E+02 0.  0.
          5    1    3    3  501    0 -0.57367188104E+02  0.36658118471E+02  0.31548400059E+03  0.32278019851E+03  0.47000000000E+01 0. -1.
        -15    1    4    4    0    0  0.54648091910E+02 -0.12393973993E+02  0.17607447278E+03  0.18478474568E+03  0.17770000000E+01 0.  1.
         16    1    4    4    0    0  0.79062158892E+01 -0.10901480172E+02 -0.61789157470E+01  0.14816528589E+02  0.00000000000E+00 0. -1.
         -5    1    5    5    0  502 -0.62930351679E+01 -0.51703975625E+02 -0.39216341244E+02  0.65367536343E+02  0.47000000000E+01 0.  1.
         15    1    6    6    0    0 -0.55566291906E+00 -0.13606222527E+02  0.55382245843E+02  0.57059520997E+02  0.17770000000E+01 0. -1.
        -16    1    6    6    0    0  0.16615783913E+01  0.51947533845E+02  0.10611397910E+02  0.53046289983E+02  0.00000000000E+00 0.  1.
<mgrwt>
<rscale>  2 0.18798224E+03</rscale>
<asrwt>0</asrwt>
<pdfrwt beam="1">  1       21 0.93077819E-01 0.19310383E+03</pdfrwt>
<pdfrwt beam="2">  1       21 0.14284459E-01 0.19310383E+03</pdfrwt>
<totfact> 0.41650104E+04</totfact>
</mgrwt>
</event>
<event>
12    2  0.4097182E-002  0.3313424E+03  0.7546771E-02  0.1070578E+00
         21   -1    0    0  501  502  0.00000000000E+00  0.00000000000E+00  0.10817884487E+03  0.10817884487E+03  0.00000000000E+00 0.  1.
         21   -1    0    0  502  503 -0.00000000000E+00 -0.00000000000E+00 -0.14148632640E+04  0.14148632640E+04  0.00000000000E+00 0. -1.
         -6    2    1    2    0  503  0.26338320961E+03 -0.10378492751E+03 -0.10585034424E+04  0.11090595152E+04  0.17158509396E+03 0.  0.
        -24    2    3    3    0    0  0.42485414767E+02 -0.34073862357E+02 -0.39109483802E+03  0.40258106293E+03  0.78423856936E+02 0.  0.
          6    2    1    2  501    0 -0.26338320961E+03  0.10378492751E+03 -0.24818097674E+03  0.41398259365E+03  0.17217945390E+03 0.  0.
         24    2    5    5    0    0 -0.19864869793E+03  0.11381806116E+03 -0.25006046097E+03  0.34827990547E+03  0.79704467739E+02 0.  0.
          5    1    5    5  501    0 -0.64734511681E+02 -0.10033133652E+02  0.18794842251E+01  0.65702688183E+02  0.47000000000E+01 0. -1.
        -15    1    6    6    0    0 -0.99229302595E+02  0.31448147924E+02 -0.65347630522E+02  0.12291831045E+03  0.17770000000E+01 0.  1.
         16    1    6    6    0    0 -0.99419395334E+02  0.82369913237E+02 -0.18471283044E+03  0.22536159501E+03  0.00000000000E+00 0. -1.
         -5    1    3    3    0  503  0.22089779484E+03 -0.69711065152E+02 -0.66740860435E+03  0.70647845228E+03  0.47000000000E+01 0.  1.
         15    1    4    4    0    0  0.43549605510E+02 -0.37210554743E+02 -0.39401763120E+03  0.39816359069E+03  0.17770000000E+01 0. -1.
        -16    1    4    4    0    0 -0.10641907426E+01  0.31366923859E+01  0.29227931755E+01  0.44174722419E+01  0.00000000000E+00 0.  1.
<mgrwt>
<rscale>  2 0.33126526E+03</rscale>
<asrwt>0</asrwt>
<pdfrwt beam="1">  1       21 0.16642900E-01 0.33134241E+03</pdfrwt>
<pdfrwt beam="2">  1       21 0.21767126E+00 0.33134241E+03</pdfrwt>
<totfact> 0.30288613E+03</totfact>
</mgrwt>
</event>
<event>
12    2  0.4097182E-002  0.1986068E+03  0.7546771E-02  0.1151167E+00
         21   -1    0    0  501  502  0.00000000000E+00  0.00000000000E+00  0.33491976696E+03  0.33491976696E+03  0.00000000000E+00 0.  1.
         21   -1    0    0  502  503 -0.00000000000E+00 -0.00000000000E+00 -0.69367254768E+03  0.69367254768E+03  0.00000000000E+00 0.  1.
         -6    2    1    2    0  503  0.90968741005E+02  0.14528789284E+02 -0.64835100059E+03  0.67808824323E+03  0.17594956119E+03 0.  0.
        -24    2    3    3    0    0  0.12051065294E+03  0.46285653517E+02 -0.45316741000E+03  0.47808837567E+03  0.80886428262E+02 0.  0.
          6    2    1    2  501    0 -0.90968741005E+02 -0.14528789284E+02  0.28959821987E+03  0.35050407141E+03  0.17464128253E+03 0.  0.
         24    2    5    5    0    0 -0.11793520890E+03  0.23512061091E+02  0.25247279501E+03  0.29071541145E+03  0.79444368709E+02 0.  0.
          5    1    5    5  501    0  0.26966467897E+02 -0.38040850375E+02  0.37125424857E+02  0.59788659953E+02  0.47000000000E+01 0. -1.
        -15    1    6    6    0    0 -0.32154267795E+02 -0.17184085822E+02  0.13405147119E+03  0.13893215755E+03  0.17770000000E+01 0.  1.
         16    1    6    6    0    0 -0.85780941107E+02  0.40696146913E+02  0.11842132382E+03  0.15178325391E+03  0.00000000000E+00 0. -1.
         -5    1    3    3    0  503 -0.29541911932E+02 -0.31756864232E+02 -0.19518359059E+03  0.19999986756E+03  0.47000000000E+01 0.  1.
         15    1    4    4    0    0  0.38438419877E+01  0.33900699191E+02 -0.82408155257E+02  0.89209272549E+02  0.17770000000E+01 0. -1.
        -16    1    4    4    0    0  0.11666681095E+03  0.12384954326E+02 -0.37075925474E+03  0.38887910313E+03  0.00000000000E+00 0.  1.
<mgrwt>
<rscale>  2 0.19831660E+03</rscale>
<asrwt>0</asrwt>
<pdfrwt beam="1">  1       21 0.51526118E-01 0.19860676E+03</pdfrwt>
<pdfrwt beam="2">  1       21 0.10671885E+00 0.19860676E+03</pdfrwt>
<totfact> 0.25010858E+03</totfact>
</mgrwt>
</event>
<event>
12    2  0.4097182E-002  0.1918049E+03  0.7546771E-02  0.1157963E+00
         21   -1    0    0  501  502  0.00000000000E+00  0.00000000000E+00  0.14825983414E+03  0.14825983414E+03  0.00000000000E+00 0.  1.
         21   -1    0    0  502  503 -0.00000000000E+00 -0.00000000000E+00 -0.24262802723E+03  0.24262802723E+03  0.00000000000E+00 0.  1.
         -6    2    1    2    0  503  0.72665955063E+02 -0.13661449591E+02 -0.59431374283E+02  0.20080145441E+03  0.17698067582E+03 0.  0.
        -24    2    3    3    0    0  0.74974219678E+02 -0.71617922088E+02 -0.12218707051E+02  0.12586543679E+03  0.70303278693E+02 0.  0.
          6    2    1    2  501    0 -0.72665955063E+02  0.13661449591E+02 -0.34936818799E+02  0.19008640696E+03  0.17159628368E+03 0.  0.
         24    2    5    5    0    0 -0.50800318421E+02  0.70372518457E+02  0.30162379637E+01  0.11827571197E+03  0.80293727308E+02 0.  0.
          5    1    5    5  501    0 -0.21865636642E+02 -0.56711068866E+02 -0.37953056763E+02  0.71810694993E+02  0.47000000000E+01 0. -1.
        -15    1    6    6    0    0 -0.59097843324E+02  0.42629411066E+02  0.29879624251E+02  0.78776718945E+02  0.17770000000E+01 0.  1.
         16    1    6    6    0    0  0.82975249026E+01  0.27743107391E+02 -0.26863386287E+02  0.39498993026E+02  0.00000000000E+00 0. -1.
         -5    1    3    3    0  503 -0.23082646149E+01  0.57956472497E+02 -0.47212667231E+02  0.74936017621E+02  0.47000000000E+01 0.  1.
         15    1    4    4    0    0 -0.97514956928E+01 -0.56054881877E+01 -0.14497628950E+02  0.18435079068E+02  0.17770000000E+01 0. -1.
        -16    1    4    4    0    0  0.84725715371E+02 -0.66012433900E+02  0.22789218987E+01  0.10743035772E+03  0.00000000000E+00 0.  1.
<mgrwt>
<rscale>  2 0.19055357E+03</rscale>
<asrwt>0</asrwt>
<pdfrwt beam="1">  1       21 0.22809205E-01 0.19180494E+03</pdfrwt>
<pdfrwt beam="2">  1       21 0.37327389E-01 0.19180494E+03</pdfrwt>
<totfact> 0.12484703E+05</totfact>
</mgrwt>
</event>
<event>
12    2  0.4097182E-002  0.1760547E+03  0.7546771E-02  0.1171781E+00
         21   -1    0    0  501  502  0.00000000000E+00  0.00000000000E+00  0.91752140351E+02  0.91752140351E+02  0.00000000000E+00 0. -1.
         21   -1    0    0  502  503 -0.00000000000E+00 -0.00000000000E+00 -0.37039311426E+03  0.37039311426E+03  0.00000000000E+00 0. -1.
         -6    2    1    2    0  503 -0.30231641592E+02 -0.14513925555E+02 -0.20853664206E+03  0.27264625644E+03  0.17240604363E+03 0.  0.
        -24    2    3    3    0    0  0.42847838035E+02 -0.27151884967E+02 -0.61464594137E+02  0.10786577932E+03  0.72690906814E+02 0.  0.
          6    2    1    2  501    0  0.30231641592E+02  0.14513925555E+02 -0.70104331850E+02  0.18949899817E+03  0.17283126678E+03 0.  0.
         24    2    5    5    0    0  0.46247136370E+02 -0.42517133013E+02 -0.14150961877E+02  0.10787849018E+03  0.86550648170E+02 0.  0.
          5    1    5    5  501    0 -0.16015494779E+02  0.57031058568E+02 -0.55953369974E+02  0.81620507998E+02  0.47000000000E+01 0. -1.
        -15    1    6    6    0    0  0.19225436071E+02 -0.60927080648E+02 -0.31068233480E+02  0.71064192172E+02  0.17770000000E+01 0.  1.
         16    1    6    6    0    0  0.27021700300E+02  0.18409947636E+02  0.16917271604E+02  0.36814298004E+02  0.00000000000E+00 0. -1.
         -5    1    3    3    0  503 -0.73079479626E+02  0.12637959412E+02 -0.14707204792E+03  0.16478047712E+03  0.47000000000E+01 0.  1.
         15    1    4    4    0    0 -0.60166007783E-01 -0.42896407313E+02 -0.29429706778E+02  0.52051616213E+02  0.17770000000E+01 0. -1.
        -16    1    4    4    0    0  0.42908004042E+02  0.15744522346E+02 -0.32034887359E+02  0.55814163103E+02  0.00000000000E+00 0.  1.
<mgrwt>
<rscale>  2 0.17595024E+03</rscale>
<asrwt>0</asrwt>
<pdfrwt beam="1">  1       21 0.14115714E-01 0.17605469E+03</pdfrwt>
<pdfrwt beam="2">  1       21 0.56983556E-01 0.17605469E+03</pdfrwt>
<totfact> 0.12748816E+05</totfact>
</mgrwt>
</event>
<event>
12    2  0.4097182E-002  0.1741827E+03  0.7546771E-02  0.1173893E+00
         21   -1    0    0  501  502  0.00000000000E+00  0.00000000000E+00  0.67119799820E+03  0.67119799820E+03  0.00000000000E+00 0. -1.
         21   -1    0    0  502  503 -0.00000000000E+00 -0.00000000000E+00 -0.65698069599E+02  0.65698069599E+02  0.00000000000E+00 0. -1.
         -6    2    1    2    0  503 -0.22751698427E+01  0.10723448316E+01  0.96023181423E+02  0.19889712879E+03  0.17416454906E+03 0.  0.
        -24    2    3    3    0    0  0.25353045054E+02  0.42352232807E+02  0.13531757369E+01  0.91883824076E+02  0.77487531416E+02 0.  0.
          6    2    1    2  501    0  0.22751698427E+01 -0.10723448316E+01  0.50947674718E+03  0.53799893901E+03  0.17282932661E+03 0.  0.
         24    2    5    5    0    0  0.24403358153E+02  0.81386587582E+00  0.11595270305E+03  0.14382070798E+03  0.81505707975E+02 0.  0.
          5    1    5    5  501    0 -0.22128188311E+02 -0.18862107074E+01  0.39352404413E+03  0.39417823103E+03  0.47000000000E+01 0. -1.
        -15    1    6    6    0    0  0.22055868636E+02 -0.45211776574E+01  0.12824398669E+03  0.13021743447E+03  0.17770000000E+01 0.  1.
         16    1    6    6    0    0  0.23474895177E+01  0.53350435332E+01 -0.12291283643E+02  0.13603273508E+02  0.00000000000E+00 0. -1.
         -5    1    3    3    0  503 -0.27628214897E+02 -0.41279887975E+02  0.94670005686E+02  0.10701330472E+03  0.47000000000E+01 0.  1.
         15    1    4    4    0    0 -0.10955627070E+02 -0.16500570839E+02 -0.92356684080E+01  0.21926009725E+02  0.17770000000E+01 0. -1.
        -16    1    4    4    0    0  0.36308672124E+02  0.58852803646E+02  0.10588844145E+02  0.69957814351E+02  0.00000000000E+00 0.  1.
<mgrwt>
<rscale>  2 0.17384798E+03</rscale>
<asrwt>0</asrwt>
<pdfrwt beam="1">  1       21 0.10326123E+00 0.17418271E+03</pdfrwt>
<pdfrwt beam="2">  1       21 0.10107396E-01 0.17418271E+03</pdfrwt>
<totfact> 0.61095298E+04</totfact>
</mgrwt>
</event>
<event>
12    2  0.4097182E-002  0.3195248E+03  0.7546771E-02  0.1076881E+00
         21   -1    0    0  501  502  0.00000000000E+00  0.00000000000E+00  0.13886821710E+03  0.13886821710E+03  0.00000000000E+00 0.  1.
         21   -1    0    0  502  503 -0.00000000000E+00 -0.00000000000E+00 -0.12184285264E+04  0.12184285264E+04  0.00000000000E+00 0.  1.
         -6    2    1    2    0  503 -0.24641630601E+03 -0.10589244318E+03 -0.97145241600E+03  0.10199787723E+04  0.15717090712E+03 0.  0.
        -24    2    3    3    0    0 -0.13970156629E+03 -0.11848471950E+03 -0.55605274356E+03  0.59088020677E+03  0.79935028318E+02 0.  0.
          6    2    1    2  501    0  0.24641630601E+03  0.10589244318E+03 -0.10810789334E+03  0.33731797121E+03  0.17367179307E+03 0.  0.
         24    2    5    5    0    0  0.23982131333E+03  0.90175623534E+02 -0.45515941678E+02  0.27227679379E+03  0.80106467164E+02 0.  0.
          5    1    5    5  501    0  0.65949926861E+01  0.15716819649E+02 -0.62591951661E+02  0.65041177427E+02  0.47000000000E+01 0. -1.
        -15    1    6    6    0    0  0.56164344420E+02  0.59166090206E+02 -0.55902440585E+01  0.81789170261E+02  0.17770000000E+01 0.  1.
         16    1    6    6    0    0  0.18365696891E+03  0.31009533328E+02 -0.39925697620E+02  0.19048762353E+03  0.00000000000E+00 0. -1.
         -5    1    3    3    0  503 -0.10671473972E+03  0.12592276320E+02 -0.41539967244E+03  0.42909856555E+03  0.47000000000E+01 0.  1.
         15    1    4    4    0    0 -0.44658381125E+02 -0.15744259590E+02 -0.66109297868E+02  0.81337873764E+02  0.17770000000E+01 0. -1.
        -16    1    4    4    0    0 -0.95043185167E+02 -0.10274045991E+03 -0.48994344569E+03  0.50954233301E+03  0.00000000000E+00 0.  1.
<mgrwt>
<rscale>  2 0.31733743E+03</rscale>
<asrwt>0</asrwt>
<pdfrwt beam="1">  1       21 0.21364341E-01 0.31952480E+03</pdfrwt>
<pdfrwt beam="2">  1       21 0.18745054E+00 0.31952480E+03</pdfrwt>
<totfact> 0.30077540E+03</totfact>
</mgrwt>
</event>
<event>
12    2  0.4097182E-002  0.3233908E+03  0.7546771E-02  0.1074102E+00
         21   -1    0    0  503  502  0.00000000000E+00  0.00000000000E+00  0.11656919416E+04  0.11656919416E+04  0.00000000000E+00 0.  1.
         21   -1    0    0  501  503 -0.00000000000E+00 -0.00000000000E+00 -0.89847260173E+02  0.89847260173E+02  0.00000000000E+00 0.  1.
          6    2    1    2  501    0 -0.21752631797E+02 -0.27232187736E+03  0.51347595130E+03  0.60682713144E+03  0.17305846702E+03 0.  0.
         24    2    3    3    0    0  0.18742968735E+02 -0.22768793147E+03  0.30673193991E+03  0.39142690156E+03  0.83291315781E+02 0.  0.
         -6    2    1    2    0  502  0.21752631797E+02  0.27232187736E+03  0.56236873008E+03  0.64871207029E+03  0.17302132726E+03 0.  0.
        -24    2    5    5    0    0  0.68335501249E+02  0.20221607061E+03  0.47229137615E+03  0.52533943330E+03  0.85797996771E+02 0.  0.
          5    1    3    3  501    0 -0.40495600533E+02 -0.44633945886E+02  0.20674401139E+03  0.21540022988E+03  0.47000000000E+01 0. -1.
        -15    1    4    4    0    0 -0.98779990947E+01 -0.14345515801E+03  0.24164060678E+03  0.28119441282E+03  0.17770000000E+01 0.  1.
         16    1    4    4    0    0  0.28620967830E+02 -0.84232773463E+02  0.65091333133E+02  0.11023248874E+03  0.00000000000E+00 0. -1.
         -5    1    5    5    0  502 -0.46582869452E+02  0.70105806747E+02  0.90077353927E+02  0.12337263698E+03  0.47000000000E+01 0.  1.
         15    1    6    6    0    0  0.33696284275E+02  0.19050956624E+02  0.12908701980E+03  0.13477757578E+03  0.17770000000E+01 0. -1.
        -16    1    6    6    0    0  0.34639216974E+02  0.18316511399E+03  0.34320435635E+03  0.39056185752E+03  0.00000000000E+00 0.  1.
<mgrwt>
<rscale>  2 0.32338584E+03</rscale>
<asrwt>0</asrwt>
<pdfrwt beam="1">  1       21 0.17933721E+00 0.32339081E+03</pdfrwt>
<pdfrwt beam="2">  1       21 0.13822656E-01 0.32339081E+03</pdfrwt>
<totfact> 0.76856597E+03</totfact>
</mgrwt>
</event>
<event>
12    2  0.4097182E-002  0.2713754E+03  0.7546771E-02  0.1100656E+00
         21   -1    0    0  501  502  0.00000000000E+00  0.00000000000E+00  0.11956357237E+04  0.11956357237E+04  0.00000000000E+00 0. -1.
         21   -1    0    0  502  503 -0.00000000000E+00 -0.00000000000E+00 -0.25105866684E+03  0.25105866684E+03  0.00000000000E+00 0. -1.
         -6    2    1    2    0  503 -0.18849909238E+03  0.85546517380E+02 -0.15627619534E+03  0.31315627786E+03  0.17548359089E+03 0.  0.
        -24    2    3    3    0    0 -0.15975057845E+03  0.43752473994E+01 -0.13534082200E+03  0.22441152038E+03  0.80647394724E+02 0.  0.
          6    2    1    2  501    0  0.18849909238E+03 -0.85546517380E+02  0.11008532522E+04  0.11335381127E+04  0.17372580562E+03 0.  0.
         24    2    5    5    0    0  0.15147074543E+03 -0.48532831418E+02  0.50664965710E+03  0.53701391881E+03  0.79945303275E+02 0.  0.
          5    1    5    5  501    0  0.37028346953E+02 -0.37013685962E+02  0.59420359512E+03  0.59652419388E+03  0.47000000000E+01 0. -1.
        -15    1    6    6    0    0  0.57433613114E+02  0.19672277112E+02  0.20343859080E+03  0.21231117813E+03  0.17770000000E+01 0.  1.
         16    1    6    6    0    0  0.94037132314E+02 -0.68205108530E+02  0.30321106630E+03  0.32470274068E+03  0.00000000000E+00 0. -1.
         -5    1    3    3    0  503 -0.28748513934E+02  0.81171269980E+02 -0.20935373334E+02  0.88744757480E+02  0.47000000000E+01 0.  1.
         15    1    4    4    0    0 -0.88384761806E+02  0.14101989582E+02 -0.12174333046E+03  0.15111362768E+03  0.17770000000E+01 0. -1.
        -16    1    4    4    0    0 -0.71365816641E+02 -0.97267421824E+01 -0.13597491541E+02  0.73297892702E+02  0.00000000000E+00 0.  1.
<mgrwt>
<rscale>  2 0.27109162E+03</rscale>
<asrwt>0</asrwt>
<pdfrwt beam="1">  1       21 0.18394395E+00 0.27137540E+03</pdfrwt>
<pdfrwt beam="2">  1       21 0.38624411E-01 0.27137540E+03</pdfrwt>
<totfact> 0.10280638E+03</totfact>
</mgrwt>
</event>
<event>
12    2  0.4097182E-002  0.3001603E+03  0.7546771E-02  0.1085166E+00
         21   -1    0    0  503  502  0.00000000000E+00  0.00000000000E+00  0.12809043193E+04  0.12809043193E+04  0.00000000000E+00 0. -1.
         21   -1    0    0  501  503 -0.00000000000E+00 -0.00000000000E+00 -0.88631767263E+02  0.88631767263E+02  0.00000000000E+00 0.  1.
          6    2    1    2  501    0 -0.22882696596E+03  0.87629020859E+02  0.28491972594E+03  0.41382410983E+03  0.17329315625E+03 0.  0.
         24    2    3    3    0    0 -0.23338507678E+03  0.58441290300E+02  0.19571085969E+03  0.31973366501E+03  0.77736075710E+02 0.  0.
         -6    2    1    2    0  502  0.22882696596E+03 -0.87629020859E+02  0.90735282612E+03  0.95571197675E+03  0.17336552654E+03 0.  0.
        -24    2    5    5    0    0  0.23074451883E+03 -0.72590010297E+02  0.90439539141E+03  0.93956622598E+03  0.79632445888E+02 0.  0.
          5    1    3    3  501    0  0.45581108199E+01  0.29187730559E+02  0.89208866245E+02  0.94090444819E+02  0.47000000000E+01 0. -1.
        -15    1    4    4    0    0 -0.97352220190E+02  0.63849108218E+02  0.97483131766E+02  0.15185612304E+03  0.17770000000E+01 0.  1.
         16    1    4    4    0    0 -0.13603285659E+03 -0.54078179185E+01  0.98227727925E+02  0.16787754197E+03  0.00000000000E+00 0. -1.
         -5    1    5    5    0  502 -0.19175528736E+01 -0.15039010562E+02  0.29574347050E+01  0.16145750764E+02  0.47000000000E+01 0.  1.
         15    1    6    6    0    0  0.50995488029E+02 -0.30577889773E+02  0.35601897173E+03  0.36095458592E+03  0.17770000000E+01 0. -1.
        -16    1    6    6    0    0  0.17974903080E+03 -0.42012120523E+02  0.54837641969E+03  0.57861164006E+03  0.00000000000E+00 0.  1.
<mgrwt>
<rscale>  2 0.30014989E+03</rscale>
<asrwt>0</asrwt>
<pdfrwt beam="1">  1       21 0.19706219E+00 0.30016034E+03</pdfrwt>
<pdfrwt beam="2">  1       21 0.13635657E-01 0.30016034E+03</pdfrwt>
<totfact> 0.60507194E+03</totfact>
</mgrwt>
</event>
<event>
12    2  0.4097182E-002  0.2158868E+03  0.7546771E-02  0.1137087E+00
         21   -1    0    0  503  502  0.00000000000E+00  0.00000000000E+00  0.28734273023E+02  0.28734273023E+02  0.00000000000E+00 0. -1.
         21   -1    0    0  501  503 -0.00000000000E+00 -0.00000000000E+00 -0.17417145632E+04  0.17417145632E+04  0.00000000000E+00 0. -1.
          6    2    1    2  501    0 -0.12067365770E+03  0.46605972881E+02 -0.62160148670E+03  0.65802394479E+03  0.17283765585E+03 0.  0.
         24    2    3    3    0    0 -0.12768589963E+03  0.32466963352E+02 -0.32670184109E+03  0.36266488516E+03  0.86220260267E+02 0.  0.
         -6    2    1    2    0  502  0.12067365770E+03 -0.46605972881E+02 -0.10913788035E+04  0.11124248914E+04  0.17218361718E+03 0.  0.
        -24    2    5    5    0    0  0.74789818917E+02  0.15118091407E+02 -0.88605474977E+03  0.89311861290E+03  0.82132596519E+02 0.  0.
          5    1    3    3  501    0  0.70122419286E+01  0.14139009529E+02 -0.29489964561E+03  0.29535905963E+03  0.47000000000E+01 0. -1.
        -15    1    4    4    0    0  0.13080904448E+02  0.22757615930E+01 -0.24539128090E+02  0.27957390587E+02  0.17770000000E+01 0.  1.
         16    1    4    4    0    0 -0.14076680408E+03  0.30191201759E+02 -0.30216271300E+03  0.33470749457E+03  0.00000000000E+00 0. -1.
         -5    1    5    5    0  502  0.45883838785E+02 -0.61724064288E+02 -0.20532405369E+03  0.21930627852E+03  0.47000000000E+01 0.  1.
         15    1    6    6    0    0  0.42580632924E+02 -0.11522443207E+02 -0.16348886927E+03  0.16934475221E+03  0.17770000000E+01 0. -1.
        -16    1    6    6    0    0  0.32209185992E+02  0.26640534613E+02 -0.72256588050E+03  0.72377386069E+03  0.00000000000E+00 0.  1.
<mgrwt>
<rscale>  2 0.21575585E+03</rscale>
<asrwt>0</asrwt>
<pdfrwt beam="1">  1       21 0.44206575E-02 0.21588678E+03</pdfrwt>
<pdfrwt beam="2">  1       21 0.26795608E+00 0.21588678E+03</pdfrwt>
<totfact> 0.16945335E+04</totfact>
</mgrwt>
</event>
<event>
12    2  0.4097182E-002  0.1732990E+03  0.7546771E-02  0.1174889E+00
         21   -1    0    0  503  502  0.00000000000E+00  0.00000000000E+00  0.64522640867E+03  0.64522640867E+03  0.00000000000E+00 0.  1.
         21   -1    0    0  501  503 -0.00000000000E+00 -0.00000000000E+00 -0.53729058076E+03  0.53729058076E+03  0.00000000000E+00 0.  1.
          6    2    1    2  501    0  0.83812854225E+01 -0.18163120994E+00 -0.51134112677E+03  0.53990951812E+03  0.17309610309E+03 0.  0.
         24    2    3    3    0    0  0.42544592494E+02  0.78653353069E+01 -0.49033412791E+03  0.49873587096E+03  0.80237186725E+02 0.  0.
         -6    2    1    2    0  502 -0.83812854225E+01  0.18163120994E+00  0.61927695468E+03  0.64260747130E+03  0.17137717657E+03 0.  0.
        -24    2    5    5    0    0  0.28228662238E+02 -0.31961191471E+02  0.21317383660E+03  0.23356556413E+03  0.85389771065E+02 0.  0.
          5    1    3    3  501    0 -0.34163307071E+02 -0.80469665169E+01 -0.21006998851E+02  0.41173647165E+02  0.47000000000E+01 0. -1.
        -15    1    4    4    0    0 -0.14101480611E+01  0.37568946622E+02 -0.17897334414E+03  0.18288802561E+03  0.17770000000E+01 0.  1.
         16    1    4    4    0    0  0.43954740555E+02 -0.29703611315E+02 -0.31136078377E+03  0.31584784535E+03  0.00000000000E+00 0. -1.
         -5    1    5    5    0  502 -0.36609947661E+02  0.32142822680E+02  0.40610311807E+03  0.40904190718E+03  0.47000000000E+01 0.  1.
         15    1    6    6    0    0  0.20744646068E+02  0.14116320015E+02  0.13581999629E+02  0.28587397121E+02  0.17770000000E+01 0. -1.
        -16    1    6    6    0    0  0.74840161699E+01 -0.46077511485E+02  0.19959183698E+03  0.20497816701E+03  0.00000000000E+00 0.  1.
<mgrwt>
<rscale>  2 0.17286816E+03</rscale>
<asrwt>0</asrwt>
<pdfrwt beam="1">  1       21 0.99265601E-01 0.17329899E+03</pdfrwt>
<pdfrwt beam="2">  1       21 0.82660089E-01 0.17329899E+03</pdfrwt>
<totfact> 0.10885879E+03</totfact>
</mgrwt>
</event>
<event>
12    2  0.4097182E-002  0.2019684E+03  0.7546771E-02  0.1148268E+00
         21   -1    0    0  501  502  0.00000000000E+00  0.00000000000E+00  0.41002395870E+02  0.41002395870E+02  0.00000000000E+00 0.  1.
         21   -1    0    0  502  503 -0.00000000000E+00 -0.00000000000E+00 -0.19997135429E+04  0.19997135429E+04  0.00000000000E+00 0.  1.
         -6    2    1    2    0  503 -0.10353165183E+03 -0.92953013246E+01 -0.17052145629E+04  0.17171336443E+04  0.17316478093E+03 0.  0.
        -24    2    3    3    0    0 -0.11530410683E+03 -0.21885627406E+02 -0.85663359403E+03  0.86836461936E+03  0.80386441541E+02 0.  0.
          6    2    1    2  501    0  0.10353165183E+03  0.92953013246E+01 -0.25349658411E+03  0.32358229443E+03  0.17216206771E+03 0.  0.
         24    2    5    5    0    0  0.78041028551E+02  0.21453382492E+02 -0.60997658774E+02  0.12896596144E+03  0.79754968975E+02 0.  0.
          5    1    5    5  501    0  0.25490623282E+02 -0.12158081168E+02 -0.19249892533E+03  0.19461633299E+03  0.47000000000E+01 0. -1.
        -15    1    6    6    0    0  0.24700216182E+02  0.26792724620E+02  0.11992549838E+02  0.38404814186E+02  0.17770000000E+01 0.  1.
         16    1    6    6    0    0  0.53340812369E+02 -0.53393421282E+01 -0.72990208612E+02  0.90561147253E+02  0.00000000000E+00 0. -1.
         -5    1    3    3    0  503  0.11772454999E+02  0.12590326081E+02 -0.84858096885E+03  0.84876902494E+03  0.47000000000E+01 0.  1.
         15    1    4    4    0    0 -0.24129490284E+02  0.27665399853E+02 -0.16942402924E+03  0.17336454673E+03  0.17770000000E+01 0. -1.
        -16    1    4    4    0    0 -0.91174616548E+02 -0.49551027259E+02 -0.68720956480E+03  0.69500007263E+03  0.00000000000E+00 0.  1.
<mgrwt>
<rscale>  2 0.20175332E+03</rscale>
<asrwt>0</asrwt>
<pdfrwt beam="1">  1       21 0.63080619E-02 0.20196843E+03</pdfrwt>
<pdfrwt beam="2">  1       21 0.30764819E+00 0.20196843E+03</pdfrwt>
<totfact> 0.55223543E+03</totfact>
</mgrwt>
</event>
<event>
12    2  0.4097182E-002  0.2228684E+03  0.7546771E-02  0.1131827E+00
         21   -1    0    0  501  502  0.00000000000E+00  0.00000000000E+00  0.33364809038E+03  0.33364809038E+03  0.00000000000E+00 0. -1.
         21   -1    0    0  502  503 -0.00000000000E+00 -0.00000000000E+00 -0.29180137612E+03  0.29180137612E+03  0.00000000000E+00 0.  1.
         -6    2    1    2    0  503 -0.12650925881E+03  0.57931533179E+02 -0.19813197844E+03  0.29794362475E+03  0.17364753827E+03 0.  0.
        -24    2    3    3    0    0 -0.25571355851E+02 -0.20249416940E+02 -0.45799638181E+02  0.99127244375E+02  0.81637433776E+02 0.  0.
          6    2    1    2  501    0  0.12650925881E+03 -0.57931533179E+02  0.23997869271E+03  0.32750584175E+03  0.17409666375E+03 0.  0.
         24    2    5    5    0    0  0.14935820835E+03 -0.68424475006E+02  0.15828098746E+03  0.24189753979E+03  0.80447284486E+02 0.  0.
          5    1    5    5  501    0 -0.22848949545E+02  0.10492941827E+02  0.81697705243E+02  0.85608301966E+02  0.47000000000E+01 0. -1.
        -15    1    6    6    0    0  0.62063827277E+02 -0.25980849542E+02  0.15203252889E+02  0.69001592928E+02  0.17770000000E+01 0.  1.
         16    1    6    6    0    0  0.87294381075E+02 -0.42443625464E+02  0.14307773457E+03  0.17289594686E+03  0.00000000000E+00 0. -1.
         -5    1    3    3    0  503 -0.10093790296E+03  0.78180950120E+02 -0.15233234026E+03  0.19881638037E+03  0.47000000000E+01 0.  1.
         15    1    4    4    0    0 -0.37265844193E+02  0.51300619270E+01  0.80032562154E+01  0.38500266464E+02  0.17770000000E+01 0. -1.
        -16    1    4    4    0    0  0.11694488342E+02 -0.25379478867E+02 -0.53802894397E+02  0.60626977911E+02  0.00000000000E+00 0.  1.
<mgrwt>
<rscale>  2 0.22278064E+03</rscale>
<asrwt>0</asrwt>
<pdfrwt beam="1">  1       21 0.51330476E-01 0.22286835E+03</pdfrwt>
<pdfrwt beam="2">  1       21 0.44892519E-01 0.22286835E+03</pdfrwt>
<totfact> 0.16868231E+04</totfact>
</mgrwt>
</event>
<event>
11    2  0.4097182E-002  0.2148398E+03  0.7546771E-02  0.1137856E+00
         21   -1    0    0  501  502  0.00000000000E+00  0.00000000000E+00  0.39857641963E+03  0.39857641963E+03  0.00000000000E+00 0.  1.
         21   -1    0    0  502  503 -0.00000000000E+00 -0.00000000000E+00 -0.11561623898E+03  0.11561623898E+03  0.00000000000E+00 0.  1.
         -6    2    1    2    0  503 -0.65391028500E+02 -0.10836023312E+03  0.14112078329E+03  0.25675418242E+03  0.17317536773E+03 0.  0.
        -24    2    3    3    0    0 -0.23781608380E+02 -0.10981166805E+03  0.16015327541E+03  0.21073487927E+03  0.78332307375E+02 0.  0.
          6    2    1    2  501    0  0.65391028500E+02  0.10836023312E+03  0.14183939736E+03  0.25743847618E+03  0.17360365101E+03 0.  0.
          5    1    5    5  501    0 -0.17478743606E+02  0.10954466482E+03  0.12324484409E+03  0.16588225240E+03  0.47000000000E+01 0. -1.
        -15    1    5    5    0    0  0.27642340691E+02  0.64209170688E+01 -0.83541943947E+01  0.29635746454E+02  0.17770000000E+01 0.  1.
         16    1    5    5    0    0  0.55227431415E+02 -0.76053487731E+01  0.26948747672E+02  0.61920477322E+02  0.00000000000E+00 0. -1.
         -5    1    3    3    0  503 -0.41609420120E+02  0.14514349376E+01 -0.19032492126E+02  0.46019303152E+02  0.47000000000E+01 0.  1.
         15    1    4    4    0    0 -0.64684656624E+01  0.43771259810E+01 -0.48228896527E+01  0.93497739802E+01  0.17770000000E+01 0. -1.
        -16    1    4    4    0    0 -0.17313142718E+02 -0.11418879404E+03  0.16497616506E+03  0.20138510529E+03  0.00000000000E+00 0.  1.
<mgrwt>
<rscale>  2 0.21475330E+03</rscale>
<asrwt>0</asrwt>
<pdfrwt beam="1">  1       21 0.61319448E-01 0.21483983E+03</pdfrwt>
<pdfrwt beam="2">  1       21 0.17787114E-01 0.21483983E+03</pdfrwt>
<totfact> 0.70273350E+04</totfact>
</mgrwt>
</event>
<event>
12    2  0.4097182E-002  0.1905045E+03  0.7546771E-02  0.1158310E+00
         21   -1    0    0  503  502  0.00000000000E+00  0.00000000000E+00  0.24530809657E+03  0.24530809657E+03  0.00000000000E+00 0.  1.
         21   -1    0    0  501  503 -0.00000000000E+00 -0.00000000000E+00 -0.14696008944E+03  0.14696008944E+03  0.00000000000E+00 0.  1.
          6    2    1    2  501    0  0.35369700144E+02 -0.70718381981E+02  0.52806997924E+02  0.19639586458E+03  0.17184484675E+03 0.  0.
         24    2    3    3    0    0  0.39090345595E+02  0.25417878924E+02  0.27789866057E+02  0.96877169098E+02  0.80242043526E+02 0.  0.
         -6    2    1    2    0  502 -0.35369700144E+02  0.70718381981E+02  0.45541009205E+02  0.19587232143E+03  0.17332015909E+03 0.  0.
        -24    2    5    5    0    0 -0.33112540684E+02 -0.38157188192E+01  0.17534853093E+01  0.10927056510E+03  0.10404797752E+03 0.  0.
          5    1    3    3  501    0 -0.37206454510E+01 -0.96136260904E+02  0.25017131868E+02  0.99518695480E+02  0.47000000000E+01 0. -1.
        -15    1    4    4    0    0  0.50321558475E+01 -0.28032475664E+02  0.14933692879E+02  0.32207377980E+02  0.17770000000E+01 0.  1.
         16    1    4    4    0    0  0.34058189748E+02  0.53450354588E+02  0.12856173177E+02  0.64669791118E+02  0.00000000000E+00 0. -1.
         -5    1    5    5    0  502 -0.22571594606E+01  0.74534100800E+02  0.43787523896E+02  0.86601756332E+02  0.47000000000E+01 0.  1.
         15    1    6    6    0    0 -0.26733335590E+02  0.26500515000E+02 -0.41506537370E+02  0.56061563486E+02  0.17770000000E+01 0. -1.
        -16    1    6    6    0    0 -0.63792050937E+01 -0.30316233820E+02  0.43260022679E+02  0.53209001615E+02  0.00000000000E+00 0.  1.
<mgrwt>
<rscale>  2 0.19016835E+03</rscale>
<asrwt>0</asrwt>
<pdfrwt beam="1">  1       21 0.37739707E-01 0.19050455E+03</pdfrwt>
<pdfrwt beam="2">  1       21 0.22609245E-01 0.19050455E+03</pdfrwt>
<totfact> 0.12423497E+05</totfact>
</mgrwt>
</event>
<event>
12    2  0.4097182E-002  0.1837406E+03  0.7546771E-02  0.1164552E+00
         21   -1    0    0  501  502  0.00000000000E+00  0.00000000000E+00  0.41890270316E+03  0.41890270316E+03  0.00000000000E+00 0. -1.
         21   -1    0    0  502  503 -0.00000000000E+00 -0.00000000000E+00 -0.95782876802E+02  0.95782876802E+02  0.00000000000E+00 0. -1.
         -6    2    1    2    0  503 -0.71710632309E+01  0.60237316240E+02  0.56595126301E+02  0.19096341619E+03  0.17200017321E+03 0.  0.
        -24    2    3    3    0    0 -0.18352932991E+02  0.10144559898E+03  0.17056886519E+02  0.13258089155E+03  0.81600954188E+02 0.  0.
          6    2    1    2  501    0  0.71710632309E+01 -0.60237316240E+02  0.26652470006E+03  0.32372216377E+03  0.17343778471E+03 0.  0.
         24    2    5    5    0    0  0.11102842702E+01 -0.10663605242E+03  0.22451823915E+03  0.26066497927E+03  0.78519496298E+02 0.  0.
          5    1    5    5  501    0  0.60607789607E+01  0.46398736175E+02  0.42006460902E+02  0.63057184506E+02  0.47000000000E+01 0. -1.
        -15    1    6    6    0    0  0.32344873042E+02 -0.40048528540E+02  0.13689516943E+03  0.14626524055E+03  0.17770000000E+01 0.  1.
         16    1    6    6    0    0 -0.31234588772E+02 -0.66587523875E+02  0.87623069723E+02  0.11439973872E+03  0.00000000000E+00 0. -1.
         -5    1    3    3    0  503  0.11181869760E+02 -0.41208282741E+02  0.39538239782E+02  0.58382524636E+02  0.47000000000E+01 0.  1.
         15    1    4    4    0    0  0.20349619346E+02  0.83016620181E+02  0.24808136264E+02  0.89019478698E+02  0.17770000000E+01 0. -1.
        -16    1    4    4    0    0 -0.38702552337E+02  0.18428978799E+02 -0.77512497450E+01  0.43561412851E+02  0.00000000000E+00 0.  1.
<mgrwt>
<rscale>  2 0.18340060E+03</rscale>
<asrwt>0</asrwt>
<pdfrwt beam="1">  1       21 0.64446569E-01 0.18374064E+03</pdfrwt>
<pdfrwt beam="2">  1       21 0.14735827E-01 0.18374064E+03</pdfrwt>
<totfact> 0.90283227E+04</totfact>
</mgrwt>
</event>
<event>
12    2  0.4097182E-002  0.2108410E+03  0.7546771E-02  0.1140933E+00
         21   -1    0    0  503  502  0.00000000000E+00  0.00000000000E+00  0.69497862949E+02  0.69497862949E+02  0.00000000000E+00 0. -1.
         21   -1    0    0  501  503 -0.00000000000E+00 -0.00000000000E+00 -0.64720833443E+03  0.64720833443E+03  0.00000000000E+00 0. -1.
          6    2    1    2  501    0  0.11330941634E+03  0.38895654500E+02 -0.24899943673E+03  0.32627387017E+03  0.17349934609E+03 0.  0.
         24    2    3    3    0    0  0.66978579106E+02  0.99197505012E+02 -0.15031063268E+03  0.20159656791E+03  0.61005039435E+02 0.  0.
         -6    2    1    2    0  502 -0.11330941634E+03 -0.38895654500E+02 -0.32871103475E+03  0.39043232720E+03  0.17330482391E+03 0.  0.
        -24    2    5    5    0    0 -0.47494458118E+01 -0.57287374347E+02 -0.12218405253E+03  0.15634045006E+03  0.78797164530E+02 0.  0.
          5    1    3    3  501    0  0.46330837235E+02 -0.60301850513E+02 -0.98688804056E+02  0.12467730227E+03  0.47000000000E+01 0. -1.
        -15    1    4    4    0    0  0.74483243999E+02  0.93502697962E+02 -0.15045741480E+03  0.19217465900E+03  0.17770000000E+01 0.  1.
         16    1    4    4    0    0 -0.75046648929E+01  0.56948070504E+01  0.14678212643E+00  0.94219089090E+01  0.00000000000E+00 0. -1.
         -5    1    5    5    0  502 -0.10855997053E+03  0.18391719847E+02 -0.20652698221E+03  0.23409187714E+03  0.47000000000E+01 0.  1.
         15    1    6    6    0    0 -0.22954116616E+02 -0.36255242241E+02 -0.14821802564E+02  0.45433221544E+02  0.17770000000E+01 0. -1.
        -16    1    6    6    0    0  0.18204670804E+02 -0.21032132106E+02 -0.10736224997E+03  0.11090722852E+03  0.00000000000E+00 0.  1.
<mgrwt>
<rscale>  2 0.21080096E+03</rscale>
<asrwt>0</asrwt>
<pdfrwt beam="1">  1       21 0.10691979E-01 0.21084098E+03</pdfrwt>
<pdfrwt beam="2">  1       21 0.99570510E-01 0.21084098E+03</pdfrwt>
<totfact> 0.59253197E+04</totfact>
</mgrwt>
</event>
<event>
12    2  0.4097182E-002  0.1877295E+03  0.7546771E-02  0.1161098E+00
         21   -1    0    0  501  502  0.00000000000E+00  0.00000000000E+00  0.30444692776E+04  0.30444692776E+04  0.00000000000E+00 0.  1.
         21   -1    0    0  502  503 -0.00000000000E+00 -0.00000000000E+00 -0.44916347108E+02  0.44916347108E+02  0.00000000000E+00 0.  1.
         -6    2    1    2    0  503  0.12028673692E+01 -0.67609402086E+02  0.16844144643E+03  0.25221989300E+03  0.17512816851E+03 0.  0.
        -24    2    3    3    0    0  0.61677673770E+02 -0.49826499190E+02  0.62976931553E+02  0.12926344647E+03  0.80350041825E+02 0.  0.
          6    2    1    2  501    0 -0.12028673692E+01  0.67609402086E+02  0.28311114841E+04  0.28371657317E+04  0.17246644857E+03 0.  0.
         24    2    5    5    0    0 -0.60665274066E+02  0.57669430305E+02  0.22439177300E+04  0.22468665062E+04  0.78970114245E+02 0.  0.
          5    1    5    5  501    0  0.59462406697E+02  0.99399717814E+01  0.58719375412E+03  0.59029922559E+03  0.47000000000E+01 0. -1.
        -15    1    6    6    0    0  0.14160712363E+02  0.33227482749E+02  0.76861128597E+03  0.76946153772E+03  0.17770000000E+01 0.  1.
         16    1    6    6    0    0 -0.74825986429E+02  0.24441947556E+02  0.14753064440E+04  0.14774049684E+04  0.00000000000E+00 0. -1.
         -5    1    3    3    0  503 -0.60474806401E+02 -0.17782902896E+02  0.10546451488E+03  0.12295644653E+03  0.47000000000E+01 0.  1.
         15    1    4    4    0    0 -0.78501752122E+01  0.91880164392E+01  0.29822561013E+02  0.32227127879E+02  0.17770000000E+01 0. -1.
        -16    1    4    4    0    0  0.69527848982E+02 -0.59014515630E+02  0.33154370540E+02  0.97036318587E+02  0.00000000000E+00 0.  1.
<mgrwt>
<rscale>  2 0.18710623E+03</rscale>
<asrwt>0</asrwt>
<pdfrwt beam="1">  1       21 0.46837973E+00 0.18772947E+03</pdfrwt>
<pdfrwt beam="2">  1       21 0.69102096E-02 0.18772947E+03</pdfrwt>
<totfact> 0.48870514E+02</totfact>
</mgrwt>
</event>
<event>
12    2  0.4097182E-002  0.2896753E+03  0.7546771E-02  0.1090542E+00
         21   -1    0    0  503  502  0.00000000000E+00  0.00000000000E+00  0.10348082034E+03  0.10348082034E+03  0.00000000000E+00 0. -1.
         21   -1    0    0  501  503 -0.00000000000E+00 -0.00000000000E+00 -0.87486730108E+03  0.87486730108E+03  0.00000000000E+00 0. -1.
          6    2    1    2  501    0  0.17480136661E+03 -0.14890053764E+03 -0.25278788520E+03  0.38433104947E+03  0.17630017813E+03 0.  0.
         24    2    3    3    0    0  0.56399280006E+02 -0.10654963938E+03 -0.20188625553E+03  0.24858968290E+03  0.80653988356E+02 0.  0.
         -6    2    1    2    0  502 -0.17480136661E+03  0.14890053764E+03 -0.51859859554E+03  0.59401707195E+03  0.17659244206E+03 0.  0.
        -24    2    5    5    0    0 -0.57693851169E+02  0.11186029044E+03 -0.17975773799E+03  0.23357100548E+03  0.80007907071E+02 0.  0.
          5    1    3    3  501    0  0.11840208660E+03 -0.42350898254E+02 -0.50901629676E+02  0.13574136657E+03  0.47000000000E+01 0. -1.
        -15    1    4    4    0    0 -0.15490697820E+02  0.43724300861E+00 -0.15629044123E+02  0.22081160513E+02  0.17770000000E+01 0.  1.
         16    1    4    4    0    0  0.71889977826E+02 -0.10698688239E+03 -0.18625721140E+03  0.22650852239E+03  0.00000000000E+00 0. -1.
         -5    1    5    5    0  502 -0.11710751544E+03  0.37040247192E+02 -0.33884085755E+03  0.36044606647E+03  0.47000000000E+01 0.  1.
         15    1    6    6    0    0 -0.69292917467E+02  0.62657041560E+02 -0.14397123639E+03  0.17163416881E+03  0.17770000000E+01 0. -1.
        -16    1    6    6    0    0  0.11599066298E+02  0.49203248883E+02 -0.35786501603E+02  0.61936836669E+02  0.00000000000E+00 0.  1.
<mgrwt>
<rscale>  2 0.28963077E+03</rscale>
<asrwt>0</asrwt>
<pdfrwt beam="1">  1       21 0.15920127E-01 0.28967530E+03</pdfrwt>
<pdfrwt beam="2">  1       21 0.13459497E+00 0.28967530E+03</pdfrwt>
<totfact> 0.13157632E+04</totfact>
</mgrwt>
</event>
<event>
12    2  0.4097182E-002  0.1938176E+03  0.7546771E-02  0.1155407E+00
         21   -1    0    0  503  502  0.00000000000E+00  0.00000000000E+00  0.15062045404E+04  0.15062045404E+04  0.00000000000E+00 0. -1.
         21   -1    0    0  501  503 -0.00000000000E+00 -0.00000000000E+00 -0.25400577308E+02  0.25400577308E+02  0.00000000000E+00 0. -1.
          6    2    1    2  501    0  0.77072773337E+02  0.36634617192E+02  0.61978852139E+03  0.64938668333E+03  0.17401995768E+03 0.  0.
         24    2    3    3    0    0  0.42720621464E+02  0.74889394324E+02  0.55202301600E+03  0.56419424216E+03  0.78436342421E+02 0.  0.
         -6    2    1    2    0  502 -0.77072773337E+02 -0.36634617192E+02  0.86101544171E+03  0.88221843438E+03  0.17227729839E+03 0.  0.
        -24    2    5    5    0    0  0.23480099207E+02 -0.37325194835E+02  0.43529036542E+03  0.44475382135E+03  0.79898524089E+02 0.  0.
          5    1    3    3  501    0  0.34352151873E+02 -0.38254777132E+02  0.67765505392E+02  0.85192441171E+02  0.47000000000E+01 0. -1.
        -15    1    4    4    0    0  0.35509806363E+02  0.22507048723E+02  0.41807601953E+03  0.42018832614E+03  0.17770000000E+01 0.  1.
         16    1    4    4    0    0  0.72108151006E+01  0.52382345601E+02  0.13394699647E+03  0.14400591602E+03  0.00000000000E+00 0. -1.
         -5    1    5    5    0  502 -0.10055287254E+03  0.69057764360E+00  0.42572507629E+03  0.43746461304E+03  0.47000000000E+01 0.  1.
         15    1    6    6    0    0  0.24750958117E+02 -0.30872934054E+02  0.43630545770E+03  0.43809971255E+03  0.17770000000E+01 0. -1.
        -16    1    6    6    0    0 -0.12708589095E+01 -0.64522607815E+01 -0.10150922874E+01  0.66541087993E+01  0.00000000000E+00 0.  1.
<mgrwt>
<rscale>  2 0.19342561E+03</rscale>
<asrwt>0</asrwt>
<pdfrwt beam="1">  1       21 0.23172371E+00 0.19381758E+03</pdfrwt>
<pdfrwt beam="2">  1       21 0.39077823E-02 0.19381758E+03</pdfrwt>
<totfact> 0.34761771E+04</totfact>
</mgrwt>
</event>
<event>
12    2  0.4097182E-002  0.1960317E+03  0.7546771E-02  0.1153140E+00
         21   -1    0    0  503  502  0.00000000000E+00  0.00000000000E+00  0.49594496780E+03  0.49594496780E+03  0.00000000000E+00 0. -1.
         21   -1    0    0  501  503 -0.00000000000E+00 -0.00000000000E+00 -0.98469887416E+02  0.98469887416E+02  0.00000000000E+00 0. -1.
          6    2    1    2  501    0 -0.49321239846E+02 -0.75623494339E+02  0.61500308343E+02  0.20545247425E+03  0.17400268289E+03 0.  0.
         24    2    3    3    0    0  0.40495416795E+02 -0.54844366153E+02  0.24705225998E+02  0.10608058656E+03  0.77427122981E+02 0.  0.
         -6    2    1    2    0  502  0.49321239846E+02  0.75623494339E+02  0.33597477205E+03  0.38896238097E+03  0.17395743377E+03 0.  0.
        -24    2    5    5    0    0 -0.71302664890E+01 -0.23928231647E+02  0.15152324463E+03  0.17184081438E+03  0.77114012038E+02 0.  0.
          5    1    3    3  501    0 -0.89816656641E+02 -0.20779128186E+02  0.36795082346E+02  0.99371887690E+02  0.47000000000E+01 0. -1.
        -15    1    4    4    0    0  0.12353303611E+02  0.12728040924E+02  0.27564539489E+02  0.32826341589E+02  0.17770000000E+01 0.  1.
         16    1    4    4    0    0  0.28142113184E+02 -0.67572407076E+02 -0.28593134915E+01  0.73254244970E+02  0.00000000000E+00 0. -1.
         -5    1    5    5    0  502  0.56451506335E+02  0.99551725986E+02  0.18445152741E+03  0.21712156659E+03  0.47000000000E+01 0.  1.
         15    1    6    6    0    0  0.89671711697E+01  0.25508743263E+02  0.35156318120E+02  0.44387279421E+02  0.17770000000E+01 0. -1.
        -16    1    6    6    0    0 -0.16097437659E+02 -0.49436974910E+02  0.11636692651E+03  0.12745353496E+03  0.00000000000E+00 0.  1.
<mgrwt>
<rscale>  2 0.19602167E+03</rscale>
<asrwt>0</asrwt>
<pdfrwt beam="1">  1       21 0.76299224E-01 0.19603171E+03</pdfrwt>
<pdfrwt beam="2">  1       21 0.15149214E-01 0.19603171E+03</pdfrwt>
<totfact> 0.58853841E+04</totfact>
</mgrwt>
</event>
<event>
12    2  0.4097182E-002  0.2295863E+03  0.7546771E-02  0.1127621E+00
         21   -1    0    0  501  502  0.00000000000E+00  0.00000000000E+00  0.62977933076E+02  0.62977933076E+02  0.00000000000E+00 0. -1.
         21   -1    0    0  502  503 -0.00000000000E+00 -0.00000000000E+00 -0.89076179264E+03  0.89076179264E+03  0.00000000000E+00 0. -1.
         -6    2    1    2    0  503 -0.14013930221E+03 -0.53222222381E+02 -0.28552046064E+03  0.36637659992E+03  0.17389149072E+03 0.  0.
        -24    2    3    3    0    0 -0.14286443756E+02 -0.16201923920E+02 -0.54162090218E+02  0.10037240814E+03  0.81697512111E+02 0.  0.
          6    2    1    2  501    0  0.14013930221E+03  0.53222222381E+02 -0.54226339892E+03  0.58736312579E+03  0.16874305542E+03 0.  0.
         24    2    5    5    0    0  0.45060668499E+02  0.29341446426E+02 -0.11192778922E+03  0.14597773294E+03  0.76748186886E+02 0.  0.
          5    1    5    5  501    0  0.95078633713E+02  0.23880775955E+02 -0.43033560970E+03  0.44138539285E+03  0.47000000000E+01 0. -1.
        -15    1    6    6    0    0  0.33195368681E+02  0.53368319256E+02 -0.96143727401E+02  0.11487769170E+03  0.17770000000E+01 0.  1.
         16    1    6    6    0    0  0.11865299818E+02 -0.24026872830E+02 -0.15784061819E+02  0.31100041242E+02  0.00000000000E+00 0. -1.
         -5    1    3    3    0  503 -0.12585285846E+03 -0.37020298461E+02 -0.23135837043E+03  0.26600419178E+03  0.47000000000E+01 0.  1.
         15    1    4    4    0    0 -0.22289433230E+02 -0.47265055000E+02 -0.36352303811E+02  0.63682430695E+02  0.17770000000E+01 0. -1.
        -16    1    4    4    0    0  0.80029894739E+01  0.31063131080E+02 -0.17809786407E+02  0.36689977445E+02  0.00000000000E+00 0.  1.
<mgrwt>
<rscale>  2 0.22861152E+03</rscale>
<asrwt>0</asrwt>
<pdfrwt beam="1">  1       21 0.96889126E-02 0.22958632E+03</pdfrwt>
<pdfrwt beam="2">  1       21 0.13704028E+00 0.22958632E+03</pdfrwt>
<totfact> 0.31758927E+04</totfact>
</mgrwt>
</event>
<event>
12    2  0.4097182E-002  0.2687754E+03  0.7546771E-02  0.1103006E+00
         21   -1    0    0  503  502  0.00000000000E+00  0.00000000000E+00  0.65545374598E+02  0.65545374598E+02  0.00000000000E+00 0.  1.
         21   -1    0    0  501  503 -0.00000000000E+00 -0.00000000000E+00 -0.10960081111E+04  0.10960081111E+04  0.00000000000E+00 0. -1.
          6    2    1    2  501    0  0.20524769072E+03  0.16743511899E+02 -0.42545667392E+03  0.49953193462E+03  0.16159149911E+03 0.  0.
         24    2    3    3    0    0  0.37198754620E+02 -0.93216827362E+01 -0.10811889174E+03  0.13946916607E+03  0.79317793837E+02 0.  0.
         -6    2    1    2    0  502 -0.20524769072E+03 -0.16743511899E+02 -0.60500606256E+03  0.66202155105E+03  0.17272301118E+03 0.  0.
        -24    2    5    5    0    0 -0.89086514369E+02 -0.72311076116E+02 -0.25018296721E+03  0.28452626356E+03  0.72099783663E+02 0.  0.
          5    1    3    3  501    0  0.16804893610E+03  0.26065194636E+02 -0.31733778218E+03  0.36006276855E+03  0.47000000000E+01 0. -1.
        -15    1    4    4    0    0 -0.29138063945E+01  0.29610856417E+02 -0.23057976654E+02  0.37684494183E+02  0.17770000000E+01 0.  1.
         16    1    4    4    0    0  0.40112561014E+02 -0.38932539153E+02 -0.85060915088E+02  0.10178467189E+03  0.00000000000E+00 0. -1.
         -5    1    5    5    0  502 -0.11616117635E+03  0.55567564217E+02 -0.35482309535E+03  0.37749528749E+03  0.47000000000E+01 0.  1.
         15    1    6    6    0    0 -0.68605990539E+01  0.56147956550E+01  0.88373923913E+00  0.90847385031E+01  0.17770000000E+01 0. -1.
        -16    1    6    6    0    0 -0.82225915315E+02 -0.77925871772E+02 -0.25106670645E+03  0.27544152506E+03  0.00000000000E+00 0.  1.
<mgrwt>
<rscale>  2 0.26700432E+03</rscale>
<asrwt>0</asrwt>
<pdfrwt beam="1">  1       21 0.10083904E-01 0.26877537E+03</pdfrwt>
<pdfrwt beam="2">  1       21 0.16861662E+00 0.26877537E+03</pdfrwt>
<totfact> 0.16631208E+04</totfact>
</mgrwt>
</event>
<event>
12    2  0.4097182E-002  0.2149444E+03  0.7546771E-02  0.1138005E+00
         21   -1    0    0  503  502  0.00000000000E+00  0.00000000000E+00  0.11696985869E+03  0.11696985869E+03  0.00000000000E+00 0. -1.
         21   -1    0    0  501  503 -0.00000000000E+00 -0.00000000000E+00 -0.40942949290E+03  0.40942949290E+03  0.00000000000E+00 0.  1.
          6    2    1    2  501    0 -0.11127491781E+03  0.57398667264E+02 -0.20076724374E+03  0.29412337936E+03  0.17471222564E+03 0.  0.
         24    2    3    3    0    0 -0.47660369232E+02 -0.34732445840E+02 -0.11770388066E+03  0.15463658758E+03  0.81119770144E+02 0.  0.
         -6    2    1    2    0  502  0.11127491781E+03 -0.57398667264E+02 -0.91692390476E+02  0.23227597223E+03  0.17282337362E+03 0.  0.
        -24    2    5    5    0    0  0.79990581813E+02  0.23321780734E+02 -0.16252847226E+02  0.11735114859E+03  0.81023073239E+02 0.  0.
          5    1    3    3  501    0 -0.63614548574E+02  0.92131113104E+02 -0.83063363087E+02  0.13948679177E+03  0.47000000000E+01 0. -1.
        -15    1    4    4    0    0 -0.27238336919E+01 -0.25967234171E+02  0.22262645459E+01  0.26264624561E+02  0.17770000000E+01 0.  1.
         16    1    4    4    0    0 -0.44936535540E+02 -0.87652116687E+01 -0.11993014520E+03  0.12837196302E+03  0.00000000000E+00 0. -1.
         -5    1    5    5    0  502  0.31284335993E+02 -0.80720447998E+02 -0.75439543250E+02  0.11492482364E+03  0.47000000000E+01 0.  1.
         15    1    6    6    0    0  0.27381280280E+02  0.71573239216E+01  0.32988812316E+02  0.43501508739E+02  0.17770000000E+01 0. -1.
        -16    1    6    6    0    0  0.52609301533E+02  0.16164456812E+02 -0.49241659542E+02  0.73849639852E+02  0.00000000000E+00 0.  1.
<mgrwt>
<rscale>  2 0.21456021E+03</rscale>
<asrwt>0</asrwt>
<pdfrwt beam="1">  1       21 0.17995363E-01 0.21494436E+03</pdfrwt>
<pdfrwt beam="2">  1       21 0.62989151E-01 0.21494436E+03</pdfrwt>
<totfact> 0.64883493E+04</totfact>
</mgrwt>
</event>
<event>
12    2  0.4097182E-002  0.1760418E+03  0.7546771E-02  0.1172157E+00
         21   -1    0    0  503  502  0.00000000000E+00  0.00000000000E+00  0.17510610960E+03  0.17510610960E+03  0.00000000000E+00 0. -1.
         21   -1    0    0  501  503 -0.00000000000E+00 -0.00000000000E+00 -0.36412383292E+03  0.36412383292E+03  0.00000000000E+00 0. -1.
          6    2    1    2  501    0 -0.28484899654E+02  0.11735438466E+02 -0.28900038550E+03  0.33839613844E+03  0.17332516744E+03 0.  0.
         24    2    3    3    0    0 -0.11890025836E+01 -0.53582831438E+02 -0.10797040919E+03  0.14395981287E+03  0.78703779503E+02 0.  0.
         -6    2    1    2    0  502  0.28484899654E+02 -0.11735438466E+02  0.99982662172E+02  0.20083380409E+03  0.17143096017E+03 0.  0.
        -24    2    5    5    0    0  0.68461371319E+02 -0.48416573337E+02  0.87847573805E+02  0.14503976935E+03  0.79298263122E+02 0.  0.
          5    1    3    3  501    0 -0.27295897071E+02  0.65318269904E+02 -0.18102997631E+03  0.19443632557E+03  0.47000000000E+01 0. -1.
        -15    1    4    4    0    0 -0.11234415816E+02 -0.31136698442E+02  0.77042112943E-01  0.33149204411E+02  0.17770000000E+01 0.  1.
         16    1    4    4    0    0  0.10045413232E+02 -0.22446132997E+02 -0.10804745130E+03  0.11081060846E+03  0.00000000000E+00 0. -1.
         -5    1    5    5    0  502 -0.39976471664E+02  0.36681134871E+02  0.12135088367E+02  0.55794034733E+02  0.47000000000E+01 0.  1.
         15    1    6    6    0    0  0.17819449834E+02 -0.46806177098E+02  0.84049350365E+01  0.50814876453E+02  0.17770000000E+01 0. -1.
        -16    1    6    6    0    0  0.50641921485E+02 -0.16103962387E+01  0.79442638769E+02  0.94224892901E+02  0.00000000000E+00 0.  1.
<mgrwt>
<rscale>  2 0.17557380E+03</rscale>
<asrwt>0</asrwt>
<pdfrwt beam="1">  1       21 0.26939402E-01 0.17604182E+03</pdfrwt>
<pdfrwt beam="2">  1       21 0.56019050E-01 0.17604182E+03</pdfrwt>
<totfact> 0.39713887E+04</totfact>
</mgrwt>
</event>
<event>
12    2  0.4097182E-002  0.2084162E+03  0.7546771E-02  0.1142990E+00
         21   -1    0    0  503  502  0.00000000000E+00  0.00000000000E+00  0.86325028738E+02  0.86325028738E+02  0.00000000000E+00 0. -1.
         21   -1    0    0  501  503 -0.00000000000E+00 -0.00000000000E+00 -0.11438107898E+04  0.11438107898E+04  0.00000000000E+00 0.  1.
          6    2    1    2  501    0 -0.41167230977E+02 -0.10882593220E+03 -0.98930368545E+03  0.10108503524E+04  0.17192681108E+03 0.  0.
         24    2    3    3    0    0 -0.13510977468E+02 -0.11988137122E+03 -0.95138916938E+03  0.96240768914E+03  0.80827710709E+02 0.  0.
         -6    2    1    2    0  502  0.41167230977E+02  0.10882593220E+03 -0.68182075580E+02  0.21928546616E+03  0.17291470675E+03 0.  0.
        -24    2    5    5    0    0  0.55139241793E+02  0.24579403106E+02 -0.85480815842E+02  0.13202705014E+03  0.80496515757E+02 0.  0.
          5    1    3    3  501    0 -0.27656253509E+02  0.11055439017E+02 -0.37914516070E+02  0.48442663210E+02  0.47000000000E+01 0. -1.
        -15    1    4    4    0    0 -0.32712709343E+02 -0.83322684656E+02 -0.42107683878E+03  0.43049001501E+03  0.17770000000E+01 0.  1.
         16    1    4    4    0    0  0.19201731875E+02 -0.36558686566E+02 -0.53031233060E+03  0.53191767414E+03  0.00000000000E+00 0. -1.
         -5    1    5    5    0  502 -0.13972010815E+02  0.84246529098E+02  0.17298740263E+02  0.87258416018E+02  0.47000000000E+01 0.  1.
         15    1    6    6    0    0  0.45375242778E+02  0.47588506160E+02 -0.32332868812E+02  0.73294956923E+02  0.17770000000E+01 0. -1.
        -16    1    6    6    0    0  0.97639990146E+01 -0.23009103054E+02 -0.53147947030E+02  0.58732093217E+02  0.00000000000E+00 0.  1.
<mgrwt>
<rscale>  2 0.20821120E+03</rscale>
<asrwt>0</asrwt>
<pdfrwt beam="1">  1       21 0.13280774E-01 0.20841622E+03</pdfrwt>
<pdfrwt beam="2">  1       21 0.17597088E+00 0.20841622E+03</pdfrwt>
<totfact> 0.93660711E+03</totfact>
</mgrwt>
</event>
<event>
12    2  0.4097182E-002  0.2801051E+03  0.7546771E-02  0.1095943E+00
         21   -1    0    0  503  502  0.00000000000E+00  0.00000000000E+00  0.58952322339E+03  0.58952322339E+03  0.00000000000E+00 0. -1.
         21   -1    0    0  501  503 -0.00000000000E+00 -0.00000000000E+00 -0.15533726328E+03  0.15533726328E+03  0.00000000000E+00 0. -1.
          6    2    1    2  501    0 -0.20862842663E+03 -0.69889196149E+02  0.73527414779E+02  0.28959478981E+03  0.17334515115E+03 0.  0.
         24    2    3    3    0    0 -0.93737616121E+02  0.37995239955E+01  0.87762892695E+02  0.15228250104E+03  0.81770763300E+02 0.  0.
         -6    2    1    2    0  502  0.20862842663E+03  0.69889196149E+02  0.36065854533E+03  0.45526569686E+03  0.16965243375E+03 0.  0.
        -24    2    5    5    0    0  0.12891317743E+03  0.10757708489E+03  0.20293026551E+03  0.27450287388E+03  0.77328510929E+02 0.  0.
          5    1    3    3  501    0 -0.11489081051E+03 -0.73688720145E+02 -0.14235477916E+02  0.13731228877E+03  0.47000000000E+01 0. -1.
        -15    1    4    4    0    0  0.14432355457E+02 -0.60013467063E+01  0.90754616986E+01  0.18161243910E+02  0.17770000000E+01 0.  1.
         16    1    4    4    0    0 -0.10816997158E+03  0.98008707019E+01  0.78687430997E+02  0.13412125713E+03  0.00000000000E+00 0. -1.
         -5    1    5    5    0  502  0.79715249200E+02 -0.37687888741E+02  0.15772827983E+03  0.18076282297E+03  0.47000000000E+01 0.  1.
         15    1    6    6    0    0  0.11568454703E+03  0.75024747244E+02  0.19440734390E+03  0.23834638703E+03  0.17770000000E+01 0. -1.
        -16    1    6    6    0    0  0.13228630403E+02  0.32552337646E+02  0.85229216045E+01  0.36156486849E+02  0.00000000000E+00 0.  1.
<mgrwt>
<rscale>  2 0.27953583E+03</rscale>
<asrwt>0</asrwt>
<pdfrwt beam="1">  1       21 0.90695880E-01 0.28010509E+03</pdfrwt>
<pdfrwt beam="2">  1       21 0.23898041E-01 0.28010509E+03</pdfrwt>
<totfact> 0.16239226E+04</totfact>
</mgrwt>
</event>
<event>
12    2  0.4097182E-002  0.2068492E+03  0.7546771E-02  0.1144346E+00
         21   -1    0    0  503  502  0.00000000000E+00  0.00000000000E+00  0.16653134990E+03  0.16653134990E+03  0.00000000000E+00 0.  1.
         21   -1    0    0  501  503 -0.00000000000E+00 -0.00000000000E+00 -0.45900857839E+03  0.45900857839E+03  0.00000000000E+00 0.  1.
          6    2    1    2  501    0  0.52580345764E+02  0.10306339750E+03 -0.35483781191E+03  0.41072676857E+03  0.17146384165E+03 0.  0.
         24    2    3    3    0    0  0.67563406124E+02  0.46497888912E+02 -0.11662839404E+03  0.16539033503E+03  0.83814754699E+02 0.  0.
         -6    2    1    2    0  502 -0.52580345764E+02 -0.10306339750E+03  0.62360583429E+02  0.21481315972E+03  0.16990907733E+03 0.  0.
        -24    2    5    5    0    0  0.32587180692E+02 -0.43510946460E+02  0.57881890714E+01  0.96396405032E+02  0.79395446741E+02 0.  0.
          5    1    3    3  501    0 -0.14983060360E+02  0.56565508588E+02 -0.23820941787E+03  0.24533643354E+03  0.47000000000E+01 0. -1.
        -15    1    4    4    0    0  0.49082308778E+02  0.51402968677E+02 -0.12555651439E+03  0.14428767881E+03  0.17770000000E+01 0.  1.
         16    1    4    4    0    0  0.18481097346E+02 -0.49050797650E+01  0.89281203444E+01  0.21102656219E+02  0.00000000000E+00 0. -1.
         -5    1    5    5    0  502 -0.85167526456E+02 -0.59552451040E+02  0.56572394358E+02  0.11841675469E+03  0.47000000000E+01 0.  1.
         15    1    6    6    0    0 -0.15389926122E+02 -0.29442731454E+02 -0.21328117495E+02  0.39519243241E+02  0.17770000000E+01 0. -1.
        -16    1    6    6    0    0  0.47977106814E+02 -0.14068215006E+02  0.27116306566E+02  0.56877161791E+02  0.00000000000E+00 0.  1.
<mgrwt>
<rscale>  2 0.20652674E+03</rscale>
<asrwt>0</asrwt>
<pdfrwt beam="1">  1       21 0.25620208E-01 0.20684923E+03</pdfrwt>
<pdfrwt beam="2">  1       21 0.70616705E-01 0.20684923E+03</pdfrwt>
<totfact> 0.26055974E+04</totfact>
</mgrwt>
</event>
<event>
12    2  0.4097182E-002  0.1778705E+03  0.7546771E-02  0.1170298E+00
         21   -1    0    0  503  502  0.00000000000E+00  0.00000000000E+00  0.97874226277E+03  0.97874226277E+03  0.00000000000E+00 0. -1.
         21   -1    0    0  501  503 -0.00000000000E+00 -0.00000000000E+00 -0.32389384216E+02  0.32389384216E+02  0.00000000000E+00 0. -1.
          6    2    1    2  501    0  0.36252782724E+02  0.40104420527E+01  0.42131532409E+03  0.45732319028E+03  0.17409063774E+03 0.  0.
         24    2    3    3    0    0  0.55259354169E+02  0.37455543135E+02  0.39954638315E+03  0.41287320339E+03  0.79815135518E+02 0.  0.
         -6    2    1    2    0  502 -0.36252782724E+02 -0.40104420527E+01  0.52503755446E+03  0.55380845671E+03  0.17236306225E+03 0.  0.
        -24    2    5    5    0    0  0.68442087264E+01  0.54193452266E+02  0.36147248477E+03  0.37486526458E+03  0.82932719004E+02 0.  0.
          5    1    3    3  501    0 -0.19006571444E+02 -0.33445101082E+02  0.21768940949E+02  0.44449986890E+02  0.47000000000E+01 0. -1.
        -15    1    4    4    0    0 -0.17563494756E+02 -0.52097246228E+01  0.99211705987E+02  0.10090459807E+03  0.17770000000E+01 0.  1.
         16    1    4    4    0    0  0.72822848925E+02  0.42665267758E+02  0.30033467716E+03  0.31196860531E+03  0.00000000000E+00 0. -1.
         -5    1    5    5    0  502 -0.43096991451E+02 -0.58203894319E+02  0.16356506969E+03  0.17894319213E+03  0.47000000000E+01 0.  1.
         15    1    6    6    0    0 -0.32003755055E+02  0.33001831391E+01  0.16835708644E+03  0.17141294534E+03  0.17770000000E+01 0. -1.
        -16    1    6    6    0    0  0.38847963781E+02  0.50893269127E+02  0.19311539833E+03  0.20345231924E+03  0.00000000000E+00 0.  1.
<mgrwt>
<rscale>  2 0.17744631E+03</rscale>
<asrwt>0</asrwt>
<pdfrwt beam="1">  1       21 0.15057571E+00 0.17787045E+03</pdfrwt>
<pdfrwt beam="2">  1       21 0.49829829E-02 0.17787045E+03</pdfrwt>
<totfact> 0.80657024E+04</totfact>
</mgrwt>
</event>
<event>
12    2  0.4097182E-002  0.2097374E+03  0.7546771E-02  0.1141914E+00
         21   -1    0    0  501  502  0.00000000000E+00  0.00000000000E+00  0.19310089990E+04  0.19310089990E+04  0.00000000000E+00 0. -1.
         21   -1    0    0  502  503 -0.00000000000E+00 -0.00000000000E+00 -0.31206683705E+02  0.31206683705E+02  0.00000000000E+00 0. -1.
         -6    2    1    2    0  503  0.88010367537E+02  0.78688897681E+02  0.43661814883E+03  0.48407573899E+03  0.17249969793E+03 0.  0.
        -24    2    3    3    0    0 -0.44981140308E+01  0.80509801686E+01  0.10152353056E+03  0.12931098913E+03  0.79556604639E+02 0.  0.
          6    2    1    2  501    0 -0.88010367537E+02 -0.78688897681E+02  0.14631841665E+04  0.14781399437E+04  0.17335518677E+03 0.  0.
         24    2    5    5    0    0 -0.20911063515E+02  0.22835610288E+02  0.71471122901E+03  0.71982380223E+03  0.79846275517E+02 0.  0.
          5    1    5    5  501    0 -0.67099304023E+02 -0.10152450797E+03  0.74847293747E+03  0.75831614149E+03  0.47000000000E+01 0. -1.
        -15    1    6    6    0    0 -0.18574381494E+02  0.39948070159E+02  0.19910795237E+03  0.20393133742E+03  0.17770000000E+01 0.  1.
         16    1    6    6    0    0 -0.23366820210E+01 -0.17112459871E+02  0.51560327664E+03  0.51589246481E+03  0.00000000000E+00 0. -1.
         -5    1    3    3    0  503  0.92508481568E+02  0.70637917513E+02  0.33509461827E+03  0.35476474986E+03  0.47000000000E+01 0.  1.
         15    1    4    4    0    0 -0.24473778097E+00  0.35972500118E+02  0.93121464248E+02  0.99844105955E+02  0.17770000000E+01 0. -1.
        -16    1    4    4    0    0 -0.42533762498E+01 -0.27921519949E+02  0.84020663093E+01  0.29466883175E+02  0.00000000000E+00 0.  1.
<mgrwt>
<rscale>  2 0.20956057E+03</rscale>
<asrwt>0</asrwt>
<pdfrwt beam="1">  1       21 0.29707821E+00 0.20973743E+03</pdfrwt>
<pdfrwt beam="2">  1       21 0.48010298E-02 0.20973743E+03</pdfrwt>
<totfact> 0.10045165E+04</totfact>
</mgrwt>
</event>
<event>
12    2  0.4097182E-002  0.2007278E+03  0.7546771E-02  0.1149639E+00
         21   -1    0    0  501  502  0.00000000000E+00  0.00000000000E+00  0.59668438061E+02  0.59668438061E+02  0.00000000000E+00 0.  1.
         21   -1    0    0  502  503 -0.00000000000E+00 -0.00000000000E+00 -0.83153589868E+03  0.83153589868E+03  0.00000000000E+00 0.  1.
         -6    2    1    2    0  503  0.55698310515E+02  0.83537969419E+02 -0.58218771647E+03  0.61503397124E+03  0.17100688419E+03 0.  0.
        -24    2    3    3    0    0 -0.32362168452E+02  0.18829721052E+02 -0.28396848829E+03  0.29738856608E+03  0.79999928441E+02 0.  0.
          6    2    1    2  501    0 -0.55698310515E+02 -0.83537969419E+02 -0.18967974415E+03  0.27617036550E+03  0.17381246018E+03 0.  0.
         24    2    5    5    0    0 -0.21125389575E+02 -0.48317735559E+02 -0.19347627325E+02  0.98770050517E+02  0.81242270659E+02 0.  0.
          5    1    5    5  501    0 -0.34572920940E+02 -0.35220233860E+02 -0.17033211682E+03  0.17740031499E+03  0.47000000000E+01 0. -1.
        -15    1    6    6    0    0  0.52235782046E+01  0.21511379669E+02 -0.51416667636E+01  0.22795168142E+02  0.17770000000E+01 0.  1.
         16    1    6    6    0    0 -0.26348967780E+02 -0.69829115228E+02 -0.14205960561E+02  0.75974882376E+02  0.00000000000E+00 0. -1.
         -5    1    3    3    0  503  0.88060478968E+02  0.64708248367E+02 -0.29821922818E+03  0.31764540516E+03  0.47000000000E+01 0.  1.
         15    1    4    4    0    0 -0.26512710800E+02 -0.15410690190E+02 -0.23693715993E+03  0.23892004665E+03  0.17770000000E+01 0. -1.
        -16    1    4    4    0    0 -0.58494576526E+01  0.34240411242E+02 -0.47031328355E+02  0.58468519424E+02  0.00000000000E+00 0.  1.
<mgrwt>
<rscale>  2 0.20011897E+03</rscale>
<asrwt>0</asrwt>
<pdfrwt beam="1">  1       21 0.91797594E-02 0.20072784E+03</pdfrwt>
<pdfrwt beam="2">  1       21 0.12792860E+00 0.20072784E+03</pdfrwt>
<totfact> 0.42274897E+04</totfact>
</mgrwt>
</event>
<event>
12    2  0.4097182E-002  0.1789056E+03  0.7546771E-02  0.1169007E+00
         21   -1    0    0  503  502  0.00000000000E+00  0.00000000000E+00  0.40629442565E+03  0.40629442565E+03  0.00000000000E+00 0.  1.
         21   -1    0    0  501  503 -0.00000000000E+00 -0.00000000000E+00 -0.79738605010E+02  0.79738605010E+02  0.00000000000E+00 0.  1.
          6    2    1    2  501    0  0.70875858580E+01 -0.41926212913E+02  0.13304125797E+03  0.22248967160E+03  0.17318670978E+03 0.  0.
         24    2    3    3    0    0  0.27783778393E+02 -0.51503215987E+02  0.14448918088E+02  0.10163320942E+03  0.81829202757E+02 0.  0.
         -6    2    1    2    0  502 -0.70875858580E+01  0.41926212913E+02  0.19351456267E+03  0.26354335906E+03  0.17377909810E+03 0.  0.
        -24    2    5    5    0    0 -0.22805500497E+02 -0.12107265485E+02  0.30775822437E+02  0.91285827433E+02  0.81971179771E+02 0.  0.
          5    1    3    3  501    0 -0.20696192535E+02  0.95770030746E+01  0.11859233988E+03  0.12085646218E+03  0.47000000000E+01 0. -1.
        -15    1    4    4    0    0  0.59890813708E+01  0.10524367123E+02 -0.22939645034E+02  0.26000316196E+02  0.17770000000E+01 0.  1.
         16    1    4    4    0    0  0.21794697022E+02 -0.62027583110E+02  0.37388563122E+02  0.75632893222E+02  0.00000000000E+00 0. -1.
         -5    1    5    5    0  502  0.15717914639E+02  0.54033478398E+02  0.16273874023E+03  0.17225753163E+03  0.47000000000E+01 0.  1.
         15    1    6    6    0    0  0.16161540300E+02  0.21043179956E+02 -0.72246598482E+01  0.27556564489E+02  0.17770000000E+01 0. -1.
        -16    1    6    6    0    0 -0.38967040797E+02 -0.33150445441E+02  0.38000482286E+02  0.63729262944E+02  0.00000000000E+00 0.  1.
<mgrwt>
<rscale>  2 0.17876159E+03</rscale>
<asrwt>0</asrwt>
<pdfrwt beam="1">  1       21 0.62506834E-01 0.17890561E+03</pdfrwt>
<pdfrwt beam="2">  1       21 0.12267478E-01 0.17890561E+03</pdfrwt>
<totfact> 0.13447143E+05</totfact>
</mgrwt>
</event>
<event>
12    2  0.4097182E-002  0.2901210E+03  0.7546771E-02  0.1090640E+00
         21   -1    0    0  501  502  0.00000000000E+00  0.00000000000E+00  0.58674767528E+03  0.58674767528E+03  0.00000000000E+00 0.  1.
         21   -1    0    0  502  503 -0.00000000000E+00 -0.00000000000E+00 -0.15109520720E+03  0.15109520720E+03  0.00000000000E+00 0.  1.
         -6    2    1    2    0  503  0.23509285615E+02  0.23150575270E+03  0.12696576933E+03  0.31421842286E+03  0.16871665787E+03 0.  0.
        -24    2    3    3    0    0 -0.31037567028E+01  0.22174360398E+03  0.14814558016E+03  0.27852209314E+03  0.80296850694E+02 0.  0.
          6    2    1    2  501    0 -0.23509285615E+02 -0.23150575270E+03  0.30868669876E+03  0.42362445961E+03  0.17327032276E+03 0.  0.
         24    2    5    5    0    0 -0.19151959745E+02 -0.53286754025E+02  0.51110636165E+02  0.11033782441E+03  0.79723664299E+02 0.  0.
          5    1    5    5  501    0 -0.43573258702E+01 -0.17821899868E+03  0.25757606259E+03  0.31328663521E+03  0.47000000000E+01 0. -1.
        -15    1    6    6    0    0  0.23387229803E+02 -0.34976761849E+02  0.48095937626E+02  0.63927406740E+02  0.17770000000E+01 0.  1.
         16    1    6    6    0    0 -0.42539189548E+02 -0.18309992176E+02  0.30146985391E+01  0.46410417668E+02  0.00000000000E+00 0. -1.
         -5    1    3    3    0  503  0.26613042318E+02  0.97621487193E+01 -0.21179810833E+02  0.35696329727E+02  0.47000000000E+01 0.  1.
         15    1    4    4    0    0  0.35253469270E+01  0.31826226901E+02  0.62150733732E+02  0.69937173393E+02  0.17770000000E+01 0. -1.
        -16    1    4    4    0    0 -0.66291036299E+01  0.18991737708E+03  0.85994846430E+02  0.20858491974E+03  0.00000000000E+00 0.  1.
<mgrwt>
<rscale>  2 0.28944456E+03</rscale>
<asrwt>0</asrwt>
<pdfrwt beam="1">  1       21 0.90268872E-01 0.29012102E+03</pdfrwt>
<pdfrwt beam="2">  1       21 0.23245417E-01 0.29012102E+03</pdfrwt>
<totfact> 0.17237752E+04</totfact>
</mgrwt>
</event>
<event>
12    2  0.4097182E-002  0.2505821E+03  0.7546771E-02  0.1113113E+00
         21   -1    0    0  503  502  0.00000000000E+00  0.00000000000E+00  0.95290196950E+03  0.95290196950E+03  0.00000000000E+00 0. -1.
         21   -1    0    0  501  503 -0.00000000000E+00 -0.00000000000E+00 -0.66104238475E+02  0.66104238475E+02  0.00000000000E+00 0. -1.
          6    2    1    2  501    0 -0.16999017068E+03  0.59917797021E+02  0.39999938060E+03  0.47200730807E+03  0.17408214690E+03 0.  0.
         24    2    3    3    0    0 -0.60688932714E+02  0.28015789550E+01  0.28986409919E+03  0.30659602310E+03  0.79302774115E+02 0.  0.
         -6    2    1    2    0  502  0.16999017068E+03 -0.59917797021E+02  0.48679835042E+03  0.54699889990E+03  0.17247713468E+03 0.  0.
        -24    2    5    5    0    0  0.16146538331E+03 -0.60244155709E+02  0.49749508576E+03  0.53253208765E+03  0.79928941688E+02 0.  0.
          5    1    3    3  501    0 -0.10930123796E+03  0.57116218066E+02  0.11013528141E+03  0.16541128497E+03  0.47000000000E+01 0. -1.
        -15    1    4    4    0    0  0.16784230306E+01  0.11078714219E+02  0.14945410009E+01  0.11443181132E+02  0.17770000000E+01 0.  1.
         16    1    4    4    0    0 -0.62367355745E+02 -0.82771352644E+01  0.28836955819E+03  0.29515284197E+03  0.00000000000E+00 0. -1.
         -5    1    5    5    0  502  0.85247873622E+01  0.32635868820E+00 -0.10696735338E+02  0.14466812242E+02  0.47000000000E+01 0.  1.
         15    1    6    6    0    0  0.15183977541E+02 -0.20687806259E+02  0.23279528347E+02  0.34693409617E+02  0.17770000000E+01 0. -1.
        -16    1    6    6    0    0  0.14628140577E+03 -0.39556349450E+02  0.47421555741E+03  0.49783867804E+03  0.00000000000E+00 0.  1.
<mgrwt>
<rscale>  2 0.25030356E+03</rscale>
<asrwt>0</asrwt>
<pdfrwt beam="1">  1       21 0.14660029E+00 0.25058211E+03</pdfrwt>
<pdfrwt beam="2">  1       21 0.10169884E-01 0.25058211E+03</pdfrwt>
<totfact> 0.24166876E+04</totfact>
</mgrwt>
</event>
<event>
12    2  0.4097182E-002  0.2419715E+03  0.7546771E-02  0.1118586E+00
         21   -1    0    0  503  502  0.00000000000E+00  0.00000000000E+00  0.19523437940E+03  0.19523437940E+03  0.00000000000E+00 0.  1.
         21   -1    0    0  501  503 -0.00000000000E+00 -0.00000000000E+00 -0.32417351542E+03  0.32417351542E+03  0.00000000000E+00 0.  1.
          6    2    1    2  501    0 -0.16788045881E+03 -0.16476233753E+02 -0.13669522046E+03  0.27791332088E+03  0.17347886297E+03 0.  0.
         24    2    3    3    0    0 -0.12176147077E+03 -0.24536334780E+02 -0.16117304643E+02  0.14847974692E+03  0.79740706336E+02 0.  0.
         -6    2    1    2    0  502  0.16788045881E+03  0.16476233753E+02  0.77560844365E+01  0.24149457394E+03  0.17263880695E+03 0.  0.
        -24    2    5    5    0    0  0.17462698889E+03  0.20227333926E+01  0.48022816586E+02  0.19792946108E+03  0.79819821775E+02 0.  0.
          5    1    3    3  501    0 -0.46118988044E+02  0.80601010269E+01 -0.12057791581E+03  0.12943357396E+03  0.47000000000E+01 0. -1.
        -15    1    4    4    0    0 -0.13277067227E+03 -0.28351410957E+02 -0.16784838127E+02  0.13680914604E+03  0.17770000000E+01 0.  1.
         16    1    4    4    0    0  0.11009201503E+02  0.38150761771E+01  0.66753348369E+00  0.11670600881E+02  0.00000000000E+00 0. -1.
         -5    1    5    5    0  502 -0.67465300798E+01  0.14453500360E+02 -0.40266732150E+02  0.43565112863E+02  0.47000000000E+01 0.  1.
         15    1    6    6    0    0  0.11565676467E+03 -0.34587290333E+02  0.43658307426E+02  0.12838213818E+03  0.17770000000E+01 0. -1.
        -16    1    6    6    0    0  0.58970224226E+02  0.36610023725E+02  0.43645091603E+01  0.69547322900E+02  0.00000000000E+00 0.  1.
<mgrwt>
<rscale>  2 0.24182102E+03</rscale>
<asrwt>0</asrwt>
<pdfrwt beam="1">  1       21 0.30036058E-01 0.24197155E+03</pdfrwt>
<pdfrwt beam="2">  1       21 0.49872849E-01 0.24197155E+03</pdfrwt>
<totfact> 0.39776639E+04</totfact>
</mgrwt>
</event>
<event>
11    2  0.4097182E-002  0.2426639E+03  0.7546771E-02  0.1118124E+00
         21   -1    0    0  503  502  0.00000000000E+00  0.00000000000E+00  0.42183264675E+02  0.42183264675E+02  0.00000000000E+00 0. -1.
         21   -1    0    0  501  503 -0.00000000000E+00 -0.00000000000E+00 -0.14613461844E+04  0.14613461844E+04  0.00000000000E+00 0.  1.
          6    2    1    2  501    0 -0.17001520317E+03 -0.11260125530E+02 -0.87329606990E+03  0.90638390855E+03  0.17278253449E+03 0.  0.
         24    2    3    3    0    0 -0.53156180770E+02  0.33473966510E+02 -0.55579036285E+03  0.56507886299E+03  0.80405895168E+02 0.  0.
         -6    2    1    2    0  502  0.17001520317E+03  0.11260125530E+02 -0.54586684987E+03  0.59714554057E+03  0.17198900868E+03 0.  0.
          5    1    3    3  501    0 -0.11685902240E+03 -0.44734092039E+02 -0.31750570706E+03  0.34130504556E+03  0.47000000000E+01 0. -1.
        -15    1    4    4    0    0 -0.43080618092E+02  0.22492222425E+02 -0.12643852891E+03  0.13546844299E+03  0.17770000000E+01 0.  1.
         16    1    4    4    0    0 -0.10075562678E+02  0.10981744085E+02 -0.42935183394E+03  0.42961042000E+03  0.00000000000E+00 0. -1.
         -5    1    5    5    0  502 -0.11585878086E+02  0.29966838387E+02 -0.18356905380E+02  0.37300267413E+02  0.47000000000E+01 0.  1.
         15    1    5    5    0    0  0.46599605071E+02 -0.15444877345E+02 -0.98275825278E+02  0.10986975467E+03  0.17770000000E+01 0. -1.
        -16    1    5    5    0    0  0.13500147619E+03 -0.32618355117E+01 -0.42923411921E+03  0.44997551849E+03  0.00000000000E+00 0.  1.
<mgrwt>
<rscale>  2 0.24252268E+03</rscale>
<asrwt>0</asrwt>
<pdfrwt beam="1">  1       21 0.64897340E-02 0.24266389E+03</pdfrwt>
<pdfrwt beam="2">  1       21 0.22482246E+00 0.24266389E+03</pdfrwt>
<totfact> 0.15588477E+04</totfact>
</mgrwt>
</event>
<event>
12    2  0.4097182E-002  0.2405576E+03  0.7546771E-02  0.1119449E+00
         21   -1    0    0  503  502  0.00000000000E+00  0.00000000000E+00  0.14568984972E+03  0.14568984972E+03  0.00000000000E+00 0. -1.
         21   -1    0    0  501  503 -0.00000000000E+00 -0.00000000000E+00 -0.40154548572E+03  0.40154548572E+03  0.00000000000E+00 0. -1.
          6    2    1    2  501    0  0.56797551355E+02 -0.15736665321E+03 -0.15722847596E+03  0.28724442310E+03  0.17262195563E+03 0.  0.
         24    2    3    3    0    0  0.17041017445E+02 -0.32523192207E+02 -0.69485082316E+01  0.87813657053E+02  0.79465730296E+02 0.  0.
         -6    2    1    2    0  502 -0.56797551355E+02  0.15736665321E+03 -0.98627160037E+02  0.25999091235E+03  0.17285176430E+03 0.  0.
        -24    2    5    5    0    0 -0.92802007122E+02  0.86278691072E+02 -0.26587277182E+02  0.15246578078E+03  0.80515252857E+02 0.  0.
          5    1    3    3  501    0  0.39756533910E+02 -0.12484346101E+03 -0.15027996773E+03  0.19943076604E+03  0.47000000000E+01 0. -1.
        -15    1    4    4    0    0 -0.26126323138E+02  0.82760104904E+01 -0.72951060830E+01  0.28415724733E+02  0.17770000000E+01 0.  1.
         16    1    4    4    0    0  0.43167340583E+02 -0.40799202697E+02  0.34659785138E+00  0.59397932319E+02  0.00000000000E+00 0. -1.
         -5    1    5    5    0  502  0.36004455766E+02  0.71087962142E+02 -0.72039882854E+02  0.10752513157E+03  0.47000000000E+01 0.  1.
         15    1    6    6    0    0 -0.37030839406E+02  0.68888614676E+02  0.16404150453E+02  0.79932335010E+02  0.17770000000E+01 0. -1.
        -16    1    6    6    0    0 -0.55771167716E+02  0.17390076396E+02 -0.42991427635E+02  0.72533445772E+02  0.00000000000E+00 0.  1.
<mgrwt>
<rscale>  2 0.24051632E+03</rscale>
<asrwt>0</asrwt>
<pdfrwt beam="1">  1       21 0.22413823E-01 0.24055760E+03</pdfrwt>
<pdfrwt beam="2">  1       21 0.61776228E-01 0.24055760E+03</pdfrwt>
<totfact> 0.44340928E+04</totfact>
</mgrwt>
</event>
<event>
12    2  0.4097182E-002  0.1774895E+03  0.7546771E-02  0.1170721E+00
         21   -1    0    0  501  502  0.00000000000E+00  0.00000000000E+00  0.51156087353E+02  0.51156087353E+02  0.00000000000E+00 0. -1.
         21   -1    0    0  502  503 -0.00000000000E+00 -0.00000000000E+00 -0.61261272601E+03  0.61261272601E+03  0.00000000000E+00 0. -1.
         -6    2    1    2    0  503  0.33278376016E+02 -0.58185896373E+01 -0.25486441417E+03  0.30950718832E+03  0.17232969483E+03 0.  0.
        -24    2    3    3    0    0 -0.39145349437E+02 -0.36465882862E+02 -0.14707628900E+03  0.17599755378E+03  0.80508292450E+02 0.  0.
          6    2    1    2  501    0 -0.33278376016E+02  0.58185896373E+01 -0.30659222449E+03  0.35426162503E+03  0.17424465720E+03 0.  0.
         24    2    5    5    0    0 -0.40812033152E+02  0.67003407402E+02 -0.22883985299E+03  0.25492452628E+03  0.80397494561E+02 0.  0.
          5    1    5    5  501    0  0.75336571367E+01 -0.61184817765E+02 -0.77752371498E+02  0.99337098752E+02  0.47000000000E+01 0. -1.
        -15    1    6    6    0    0  0.29306778434E+01  0.64855059800E+02 -0.10386819823E+03  0.12250113463E+03  0.17770000000E+01 0.  1.
         16    1    6    6    0    0 -0.43742710996E+02  0.21483476022E+01 -0.12497165476E+03  0.13242339165E+03  0.00000000000E+00 0. -1.
         -5    1    3    3    0  503  0.72423725453E+02  0.30647293225E+02 -0.10778812516E+03  0.13350963454E+03  0.47000000000E+01 0.  1.
         15    1    4    4    0    0  0.66169821002E+01  0.12460841419E+02 -0.79791864800E+02  0.81049098936E+02  0.17770000000E+01 0. -1.
        -16    1    4    4    0    0 -0.45762331538E+02 -0.48926724281E+02 -0.67284424205E+02  0.94948454843E+02  0.00000000000E+00 0.  1.
<mgrwt>
<rscale>  2 0.17701768E+03</rscale>
<asrwt>0</asrwt>
<pdfrwt beam="1">  1       21 0.78701669E-02 0.17748946E+03</pdfrwt>
<pdfrwt beam="2">  1       21 0.94248116E-01 0.17748946E+03</pdfrwt>
<totfact> 0.11720628E+05</totfact>
</mgrwt>
</event>
<event>
12    2  0.4097182E-002  0.1802890E+03  0.7546771E-02  0.1168118E+00
         21   -1    0    0  503  502  0.00000000000E+00  0.00000000000E+00  0.45270562232E+03  0.45270562232E+03  0.00000000000E+00 0.  1.
         21   -1    0    0  501  503 -0.00000000000E+00 -0.00000000000E+00 -0.10855977142E+03  0.10855977142E+03  0.00000000000E+00 0.  1.
          6    2    1    2  501    0 -0.81482535812E+01  0.39829835998E+02  0.73989206232E+01  0.18044075650E+03  0.17564541756E+03 0.  0.
         24    2    3    3    0    0 -0.28722461863E+02  0.82616517670E+02  0.42085862428E+02  0.12145540149E+03  0.73004971929E+02 0.  0.
         -6    2    1    2    0  502  0.81482535812E+01 -0.39829835998E+02  0.33674693028E+03  0.38082463723E+03  0.17313607192E+03 0.  0.
        -24    2    5    5    0    0 -0.21299708741E+02 -0.82626025508E+02  0.17493616042E+03  0.21081430942E+03  0.80989352069E+02 0.  0.
          5    1    3    3  501    0  0.20574208282E+02 -0.42786681672E+02 -0.34686941805E+02  0.58985355019E+02  0.47000000000E+01 0. -1.
        -15    1    4    4    0    0  0.21298141590E+02  0.42195685783E+02  0.59084310286E+01  0.47667116759E+02  0.17770000000E+01 0.  1.
         16    1    4    4    0    0 -0.50020603453E+02  0.40420831886E+02  0.36177431399E+02  0.73788284726E+02  0.00000000000E+00 0. -1.
         -5    1    5    5    0  502  0.29447962322E+02  0.42796189510E+02  0.16181076986E+03  0.17001032781E+03  0.47000000000E+01 0.  1.
         15    1    6    6    0    0  0.77865818907E+01  0.48012814390E+01  0.72258372605E+02  0.72856799968E+02  0.17770000000E+01 0. -1.
        -16    1    6    6    0    0 -0.29086290631E+02 -0.87427306947E+02  0.10267778781E+03  0.13795750945E+03  0.00000000000E+00 0.  1.
<mgrwt>
<rscale>  2 0.17967491E+03</rscale>
<asrwt>0</asrwt>
<pdfrwt beam="1">  1       21 0.69647018E-01 0.18028900E+03</pdfrwt>
<pdfrwt beam="2">  1       21 0.16701504E-01 0.18028900E+03</pdfrwt>
<totfact> 0.60726674E+04</totfact>
</mgrwt>
</event>
<event>
12    2  0.4097182E-002  0.2184397E+03  0.7546771E-02  0.1135503E+00
         21   -1    0    0  503  502  0.00000000000E+00  0.00000000000E+00  0.32268694541E+03  0.32268694541E+03  0.00000000000E+00 0.  1.
         21   -1    0    0  501  503 -0.00000000000E+00 -0.00000000000E+00 -0.15048373581E+03  0.15048373581E+03  0.00000000000E+00 0. -1.
          6    2    1    2  501    0  0.18582448198E+02  0.13255485115E+03  0.12526974631E+03  0.24974586427E+03  0.16960068230E+03 0.  0.
         24    2    3    3    0    0  0.20557117373E+02  0.68555706664E+02  0.14730164754E+03  0.18186888375E+03  0.79095104269E+02 0.  0.
         -6    2    1    2    0  502 -0.18582448198E+02 -0.13255485115E+03  0.46933463294E+02  0.22342481695E+03  0.17262619415E+03 0.  0.
        -24    2    5    5    0    0  0.45687550424E+02 -0.10679686627E+03  0.56494788752E+02  0.15337044198E+03  0.82691646538E+02 0.  0.
          5    1    3    3  501    0 -0.19746691753E+01  0.63999144487E+02 -0.22031901223E+02  0.67876980523E+02  0.47000000000E+01 0. -1.
        -15    1    4    4    0    0  0.37509504580E+02  0.77120748229E+02  0.13226319239E+03  0.15764289559E+03  0.17770000000E+01 0.  1.
         16    1    4    4    0    0 -0.16952387207E+02 -0.85650415644E+01  0.15038455148E+02  0.24225988159E+02  0.00000000000E+00 0. -1.
         -5    1    5    5    0  502 -0.64269998622E+02 -0.25757984880E+02 -0.95613254583E+01  0.70054374970E+02  0.47000000000E+01 0.  1.
         15    1    6    6    0    0  0.48721608709E+01 -0.54928989343E+02 -0.13875906022E+02  0.56891390550E+02  0.17770000000E+01 0. -1.
        -16    1    6    6    0    0  0.40815389553E+02 -0.51867876928E+02  0.70370694774E+02  0.96479051428E+02  0.00000000000E+00 0.  1.
<mgrwt>
<rscale>  2 0.21784148E+03</rscale>
<asrwt>0</asrwt>
<pdfrwt beam="1">  1       21 0.49644145E-01 0.21843969E+03</pdfrwt>
<pdfrwt beam="2">  1       21 0.23151344E-01 0.21843969E+03</pdfrwt>
<totfact> 0.67027951E+04</totfact>
</mgrwt>
</event>
<event>
12    2  0.4097182E-002  0.2592884E+03  0.7546771E-02  0.1107792E+00
         21   -1    0    0  501  502  0.00000000000E+00  0.00000000000E+00  0.50645789665E+03  0.50645789665E+03  0.00000000000E+00 0.  1.
         21   -1    0    0  502  503 -0.00000000000E+00 -0.00000000000E+00 -0.16068764655E+03  0.16068764655E+03  0.00000000000E+00 0.  1.
         -6    2    1    2    0  503  0.17024033152E+03 -0.87089754261E+02  0.32346542357E+02  0.26129823430E+03  0.17511160062E+03 0.  0.
        -24    2    3    3    0    0  0.22195323935E+02 -0.29269286151E+02 -0.24146939598E+02  0.92555429102E+02  0.81450041424E+02 0.  0.
          6    2    1    2  501    0 -0.17024033152E+03  0.87089754261E+02  0.31342370774E+03  0.40584730891E+03  0.17294861029E+03 0.  0.
         24    2    5    5    0    0 -0.35378042071E+02  0.39276289239E+02  0.20510034646E+03  0.22632013784E+03  0.79752240825E+02 0.  0.
          5    1    5    5  501    0 -0.13486228945E+03  0.47813465022E+02  0.10832336128E+03  0.17952717107E+03  0.47000000000E+01 0. -1.
        -15    1    6    6    0    0 -0.12694947805E+02  0.19945507047E+02  0.52810820997E+01  0.24290584766E+02  0.17770000000E+01 0.  1.
         16    1    6    6    0    0 -0.22683094266E+02  0.19330782192E+02  0.19981926436E+03  0.20202955307E+03  0.00000000000E+00 0. -1.
         -5    1    3    3    0  503  0.14804500758E+03 -0.57820468109E+02  0.56493481955E+02  0.16874280520E+03  0.47000000000E+01 0.  1.
         15    1    4    4    0    0 -0.19637551406E+02  0.64998632454E+01  0.14481191768E+02  0.25312927359E+02  0.17770000000E+01 0. -1.
        -16    1    4    4    0    0  0.41832875341E+02 -0.35769149397E+02 -0.38628131366E+02  0.67242501744E+02  0.00000000000E+00 0.  1.
<mgrwt>
<rscale>  2 0.25892366E+03</rscale>
<asrwt>0</asrwt>
<pdfrwt beam="1">  1       21 0.77916599E-01 0.25928839E+03</pdfrwt>
<pdfrwt beam="2">  1       21 0.24721177E-01 0.25928839E+03</pdfrwt>
<totfact> 0.21800801E+04</totfact>
</mgrwt>
</event>
<event>
12    2  0.4097182E-002  0.2423689E+03  0.7546771E-02  0.1118367E+00
         21   -1    0    0  503  502  0.00000000000E+00  0.00000000000E+00  0.12025682988E+04  0.12025682988E+04  0.00000000000E+00 0.  1.
         21   -1    0    0  501  503 -0.00000000000E+00 -0.00000000000E+00 -0.54235359278E+02  0.54235359278E+02  0.00000000000E+00 0. -1.
          6    2    1    2  501    0 -0.75914523148E+02 -0.15155669391E+03  0.37386040167E+03  0.44554944103E+03  0.17323469102E+03 0.  0.
         24    2    3    3    0    0 -0.11322941676E+03 -0.84771677123E+02  0.28531841327E+03  0.32844088685E+03  0.80372141579E+02 0.  0.
         -6    2    1    2    0  502  0.75914523148E+02  0.15155669391E+03  0.77447253786E+03  0.81125421705E+03  0.17202687726E+03 0.  0.
        -24    2    5    5    0    0  0.25831999711E+02  0.66720659131E+02  0.18741158952E+03  0.21596600197E+03  0.79995447110E+02 0.  0.
          5    1    3    3  501    0  0.37314893612E+02 -0.66785016782E+02  0.88541988401E+02  0.11710855418E+03  0.47000000000E+01 0. -1.
        -15    1    4    4    0    0 -0.30363262599E+02 -0.15997312405E+02  0.15796886063E+03  0.16166372623E+03  0.17770000000E+01 0.  1.
         16    1    4    4    0    0 -0.82866154160E+02 -0.68774364718E+02  0.12734955264E+03  0.16677716062E+03  0.00000000000E+00 0. -1.
         -5    1    5    5    0  502  0.50082523437E+02  0.84836034774E+02  0.58706094834E+03  0.59528821508E+03  0.47000000000E+01 0.  1.
         15    1    6    6    0    0  0.47363813297E+02  0.57734657621E+02  0.17326386654E+03  0.18868001134E+03  0.17770000000E+01 0. -1.
        -16    1    6    6    0    0 -0.21531813587E+02  0.89860015102E+01  0.14147722977E+02  0.27285990634E+02  0.00000000000E+00 0.  1.
<mgrwt>
<rscale>  2 0.24215320E+03</rscale>
<asrwt>0</asrwt>
<pdfrwt beam="1">  1       21 0.18501049E+00 0.24236894E+03</pdfrwt>
<pdfrwt beam="2">  1       21 0.83439023E-02 0.24236894E+03</pdfrwt>
<totfact> 0.18144595E+04</totfact>
</mgrwt>
</event>
<event>
12    2  0.4097182E-002  0.2686105E+03  0.7546771E-02  0.1102161E+00
         21   -1    0    0  503  502  0.00000000000E+00  0.00000000000E+00  0.31413383977E+03  0.31413383977E+03  0.00000000000E+00 0.  1.
         21   -1    0    0  501  503 -0.00000000000E+00 -0.00000000000E+00 -0.24360286219E+03  0.24360286219E+03  0.00000000000E+00 0. -1.
          6    2    1    2  501    0  0.20548868693E+02 -0.20428817429E+03 -0.32608368515E+02  0.27000533315E+03  0.17228946594E+03 0.  0.
         24    2    3    3    0    0  0.18706208405E+02 -0.22859227715E+03 -0.29297364724E+02  0.24496261847E+03  0.80894977983E+02 0.  0.
         -6    2    1    2    0  502 -0.20548868693E+02  0.20428817429E+03  0.10313934609E+03  0.28773136882E+03  0.17319267228E+03 0.  0.
        -24    2    5    5    0    0  0.26901066143E+02  0.33657251705E+02  0.48462620666E+02  0.10231820218E+03  0.79144873141E+02 0.  0.
          5    1    3    3  501    0  0.18426602878E+01  0.24304102857E+02 -0.33110037914E+01  0.25042714684E+02  0.47000000000E+01 0. -1.
        -15    1    4    4    0    0 -0.56139957507E+01 -0.21350941898E+03 -0.32934506794E+02  0.21611485004E+03  0.17770000000E+01 0.  1.
         16    1    4    4    0    0  0.24320204156E+02 -0.15082858163E+02  0.36371420703E+01  0.28847768423E+02  0.00000000000E+00 0. -1.
         -5    1    5    5    0  502 -0.47449934836E+02  0.17063092258E+03  0.54676725429E+02  0.18541316663E+03  0.47000000000E+01 0.  1.
         15    1    6    6    0    0 -0.33310590409E+01  0.21633928284E+02 -0.17950589048E+02  0.28363782955E+02  0.17770000000E+01 0. -1.
        -16    1    6    6    0    0  0.30232125183E+02  0.12023323421E+02  0.66413209713E+02  0.73954419230E+02  0.00000000000E+00 0.  1.
<mgrwt>
<rscale>  2 0.26846504E+03</rscale>
<asrwt>0</asrwt>
<pdfrwt beam="1">  1       21 0.48328283E-01 0.26861053E+03</pdfrwt>
<pdfrwt beam="2">  1       21 0.37477363E-01 0.26861053E+03</pdfrwt>
<totfact> 0.27051709E+04</totfact>
</mgrwt>
</event>
<event>
12    2  0.4097182E-002  0.1749122E+03  0.7546771E-02  0.1173008E+00
         21   -1    0    0  501  502  0.00000000000E+00  0.00000000000E+00  0.51741752067E+03  0.51741752067E+03  0.00000000000E+00 0.  1.
         21   -1    0    0  502  503 -0.00000000000E+00 -0.00000000000E+00 -0.83520808723E+02  0.83520808723E+02  0.00000000000E+00 0.  1.
         -6    2    1    2    0  503  0.53124282450E+00 -0.22335368141E+02  0.53407412520E+02  0.18217064680E+03  0.17272707360E+03 0.  0.
        -24    2    3    3    0    0  0.13022485905E+02 -0.76976856916E+02  0.16653296068E+02  0.11497928928E+03  0.82751936852E+02 0.  0.
          6    2    1    2  501    0 -0.53124282450E+00  0.22335368141E+02  0.38048929943E+03  0.41876768260E+03  0.17347943429E+03 0.  0.
         24    2    5    5    0    0 -0.78874675286E+01 -0.10109321072E+02  0.37620561397E+03  0.38489716649E+03  0.80316587784E+02 0.  0.
          5    1    5    5  501    0  0.73562247041E+01  0.32444689214E+02  0.42836854543E+01  0.33870516104E+02  0.47000000000E+01 0. -1.
        -15    1    6    6    0    0 -0.34076674170E+02 -0.19404311402E+01  0.74718271211E+02  0.82164242692E+02  0.17770000000E+01 0.  1.
         16    1    6    6    0    0  0.26189206641E+02 -0.81688899323E+01  0.30148734276E+03  0.30273292380E+03  0.00000000000E+00 0. -1.
         -5    1    3    3    0  503 -0.12491243081E+02  0.54641488774E+02  0.36754116452E+02  0.67191357520E+02  0.47000000000E+01 0.  1.
         15    1    4    4    0    0 -0.11129539914E+02 -0.85675580293E+02  0.43779251547E+01  0.86524537993E+02  0.17770000000E+01 0. -1.
        -16    1    4    4    0    0  0.24152025819E+02  0.86987233771E+01  0.12275370913E+02  0.28454751284E+02  0.00000000000E+00 0.  1.
<mgrwt>
<rscale>  2 0.17472532E+03</rscale>
<asrwt>0</asrwt>
<pdfrwt beam="1">  1       21 0.79602693E-01 0.17491216E+03</pdfrwt>
<pdfrwt beam="2">  1       21 0.12849356E-01 0.17491216E+03</pdfrwt>
<totfact> 0.72764832E+04</totfact>
</mgrwt>
</event>
<event>
12    2  0.4097182E-002  0.1946198E+03  0.7546771E-02  0.1154852E+00
         21   -1    0    0  503  502  0.00000000000E+00  0.00000000000E+00  0.35034894463E+02  0.35034894463E+02  0.00000000000E+00 0. -1.
         21   -1    0    0  501  503 -0.00000000000E+00 -0.00000000000E+00 -0.10996531921E+04  0.10996531921E+04  0.00000000000E+00 0. -1.
          6    2    1    2  501    0  0.14792880686E+02  0.82768254687E+02 -0.43415241559E+03  0.47486683959E+03  0.17303404890E+03 0.  0.
         24    2    3    3    0    0  0.32983507436E+02 -0.16583965006E+02 -0.25631406380E+03  0.27029330312E+03  0.77450827947E+02 0.  0.
         -6    2    1    2    0  502 -0.14792880686E+02 -0.82768254687E+02 -0.63046588203E+03  0.65982124695E+03  0.17552047237E+03 0.  0.
        -24    2    5    5    0    0  0.61238314591E+02 -0.39681886997E+02 -0.36860770475E+03  0.38372529851E+03  0.77773269107E+02 0.  0.
          5    1    3    3  501    0 -0.18190626750E+02  0.99352219693E+02 -0.17783835179E+03  0.20457353647E+03  0.47000000000E+01 0. -1.
        -15    1    4    4    0    0 -0.37811769254E+01 -0.31872787237E+02 -0.45246537012E+02  0.55502961234E+02  0.17770000000E+01 0.  1.
         16    1    4    4    0    0  0.36764684362E+02  0.15288822231E+02 -0.21106752679E+03  0.21479034188E+03  0.00000000000E+00 0. -1.
         -5    1    5    5    0  502 -0.76031195278E+02 -0.43086367690E+02 -0.26185817727E+03  0.27609594843E+03  0.47000000000E+01 0.  1.
         15    1    6    6    0    0  0.48019322648E+02  0.61441009478E+01 -0.10242389522E+03  0.11330232727E+03  0.17770000000E+01 0. -1.
        -16    1    6    6    0    0  0.13218991944E+02 -0.45825987945E+02 -0.26618380953E+03  0.27042297124E+03  0.00000000000E+00 0.  1.
<mgrwt>
<rscale>  2 0.19405747E+03</rscale>
<asrwt>0</asrwt>
<pdfrwt beam="1">  1       21 0.53899854E-02 0.19461976E+03</pdfrwt>
<pdfrwt beam="2">  1       21 0.16917736E+00 0.19461976E+03</pdfrwt>
<totfact> 0.51141901E+04</totfact>
</mgrwt>
</event>
<event>
12    2  0.4097182E-002  0.1864815E+03  0.7546771E-02  0.1162012E+00
         21   -1    0    0  501  502  0.00000000000E+00  0.00000000000E+00  0.25367592253E+03  0.25367592253E+03  0.00000000000E+00 0. -1.
         21   -1    0    0  502  503 -0.00000000000E+00 -0.00000000000E+00 -0.14276556502E+03  0.14276556502E+03  0.00000000000E+00 0. -1.
         -6    2    1    2    0  503  0.65481800976E+02 -0.17586358599E+02  0.12144863173E+02  0.18542019108E+03  0.17215110599E+03 0.  0.
        -24    2    3    3    0    0  0.80076919411E+02 -0.15137284417E+02  0.63331951210E+02  0.13192978607E+03  0.82177137987E+02 0.  0.
          6    2    1    2  501    0 -0.65481800976E+02  0.17586358599E+02  0.98765494338E+02  0.21102129647E+03  0.17371879123E+03 0.  0.
         24    2    5    5    0    0 -0.78213539093E+02  0.61780468320E+02  0.10272308858E+03  0.16462119904E+03  0.81326024632E+02 0.  0.
          5    1    5    5  501    0  0.12731738117E+02 -0.44194109721E+02 -0.39575942462E+01  0.46400097432E+02  0.47000000000E+01 0. -1.
        -15    1    6    6    0    0  0.14134748441E+02  0.53131546828E+01  0.31697132406E+02  0.35155179674E+02  0.17770000000E+01 0.  1.
         16    1    6    6    0    0 -0.92348287534E+02  0.56467313637E+02  0.71025956178E+02  0.12946601937E+03  0.00000000000E+00 0. -1.
         -5    1    3    3    0  503 -0.14595118434E+02 -0.24490741823E+01 -0.51187088037E+02  0.53490405010E+02  0.47000000000E+01 0.  1.
         15    1    4    4    0    0 -0.27178881790E+01 -0.31190391695E+02  0.15652198042E+02  0.35048202276E+02  0.17770000000E+01 0. -1.
        -16    1    4    4    0    0  0.82794807590E+02  0.16053107278E+02  0.47679753168E+02  0.96881583798E+02  0.00000000000E+00 0.  1.
<mgrwt>
<rscale>  2 0.18611559E+03</rscale>
<asrwt>0</asrwt>
<pdfrwt beam="1">  1       21 0.39027065E-01 0.18648154E+03</pdfrwt>
<pdfrwt beam="2">  1       21 0.21963933E-01 0.18648154E+03</pdfrwt>
<totfact> 0.12283431E+05</totfact>
</mgrwt>
</event>
<event>
12    2  0.4097182E-002  0.3116373E+03  0.7546771E-02  0.1080590E+00
         21   -1    0    0  503  502  0.00000000000E+00  0.00000000000E+00  0.11353752214E+04  0.11353752214E+04  0.00000000000E+00 0. -1.
         21   -1    0    0  501  503 -0.00000000000E+00 -0.00000000000E+00 -0.85903885848E+02  0.85903885848E+02  0.00000000000E+00 0. -1.
          6    2    1    2  501    0  0.11878663292E+03 -0.21760870952E+03  0.62559276385E+03  0.69516995602E+03  0.17444525487E+03 0.  0.
         24    2    3    3    0    0  0.25987016899E+02 -0.15951669585E+03  0.29004993526E+03  0.34218620199E+03  0.82713545375E+02 0.  0.
         -6    2    1    2    0  502 -0.11878663292E+03  0.21760870952E+03  0.42387857170E+03  0.52610915123E+03  0.18882261740E+03 0.  0.
        -24    2    5    5    0    0 -0.11132443074E+03  0.58848280966E+02  0.16687760120E+03  0.22389706184E+03  0.80159288082E+02 0.  0.
          5    1    3    3  501    0  0.92799616019E+02 -0.58092013675E+02  0.33554282859E+03  0.35298375402E+03  0.47000000000E+01 0. -1.
        -15    1    4    4    0    0 -0.50287024562E+01 -0.46108479008E+02  0.16123193396E+03  0.16778013572E+03  0.17770000000E+01 0.  1.
         16    1    4    4    0    0  0.31015719356E+02 -0.11340821684E+03  0.12881800130E+03  0.17440606627E+03  0.00000000000E+00 0. -1.
         -5    1    5    5    0  502 -0.74622021779E+01  0.15876042855E+03  0.25700097050E+03  0.30221208939E+03  0.47000000000E+01 0.  1.
         15    1    6    6    0    0 -0.90265792114E+01  0.25376745763E+02  0.83475707308E+02  0.87731464124E+02  0.17770000000E+01 0. -1.
        -16    1    6    6    0    0 -0.10229785153E+03  0.33471535204E+02  0.83401893887E+02  0.13616559771E+03  0.00000000000E+00 0.  1.
<mgrwt>
<rscale>  2 0.30949135E+03</rscale>
<asrwt>0</asrwt>
<pdfrwt beam="1">  1       21 0.17467310E+00 0.31163728E+03</pdfrwt>
<pdfrwt beam="2">  1       21 0.13215983E-01 0.31163728E+03</pdfrwt>
<totfact> 0.90496551E+03</totfact>
</mgrwt>
</event>
<event>
12    2  0.4097182E-002  0.1811739E+03  0.7546771E-02  0.1168253E+00
         21   -1    0    0  501  502  0.00000000000E+00  0.00000000000E+00  0.34577848510E+02  0.34577848510E+02  0.00000000000E+00 0. -1.
         21   -1    0    0  502  503 -0.00000000000E+00 -0.00000000000E+00 -0.10011799886E+04  0.10011799886E+04  0.00000000000E+00 0. -1.
         -6    2    1    2    0  503 -0.13536884940E+02 -0.23091683770E+02 -0.62655524760E+03  0.65045811472E+03  0.17264937764E+03 0.  0.
        -24    2    3    3    0    0  0.39470808490E+02 -0.37889662143E+00 -0.18194685528E+03  0.20210066939E+03  0.78625276700E+02 0.  0.
          6    2    1    2  501    0  0.13536884940E+02  0.23091683770E+02 -0.34004689249E+03  0.38529972238E+03  0.17918569660E+03 0.  0.
         24    2    5    5    0    0 -0.42589951158E+02 -0.33815835130E+02 -0.22005561892E+03  0.24104757103E+03  0.81988056674E+02 0.  0.
          5    1    5    5  501    0  0.56126836097E+02  0.56907518900E+02 -0.11999127357E+03  0.14425215135E+03  0.47000000000E+01 0. -1.
        -15    1    6    6    0    0 -0.30379855479E+02 -0.27883973555E+02 -0.22330652283E+03  0.22708899680E+03  0.17770000000E+01 0.  1.
         16    1    6    6    0    0 -0.12210095678E+02 -0.59318615748E+01  0.32509039147E+01  0.13958574228E+02  0.00000000000E+00 0. -1.
         -5    1    3    3    0  503 -0.53007693430E+02 -0.22712787149E+02 -0.44460839231E+03  0.44835744533E+03  0.47000000000E+01 0.  1.
         15    1    4    4    0    0  0.32435170174E+02  0.29082017015E+02 -0.15675113136E+03  0.16270180973E+03  0.17770000000E+01 0. -1.
        -16    1    4    4    0    0  0.70356383160E+01 -0.29460913637E+02 -0.25195723927E+02  0.39398859666E+02  0.00000000000E+00 0.  1.
<mgrwt>
<rscale>  2 0.17953637E+03</rscale>
<asrwt>0</asrwt>
<pdfrwt beam="1">  1       21 0.53196681E-02 0.18117391E+03</pdfrwt>
<pdfrwt beam="2">  1       21 0.15402772E+00 0.18117391E+03</pdfrwt>
<totfact> 0.67889287E+04</totfact>
</mgrwt>
</event>
<event>
12    2  0.4097182E-002  0.2754409E+03  0.7546771E-02  0.1098334E+00
         21   -1    0    0  501  502  0.00000000000E+00  0.00000000000E+00  0.20358219248E+02  0.20358219248E+02  0.00000000000E+00 0.  1.
         21   -1    0    0  502  503 -0.00000000000E+00 -0.00000000000E+00 -0.42548955770E+04  0.42548955770E+04  0.00000000000E+00 0.  1.
         -6    2    1    2    0  503  0.10399523287E+03  0.18803402572E+03 -0.13583439595E+04  0.13859891700E+04  0.17232487813E+03 0.  0.
        -24    2    3    3    0    0  0.10887848859E+03  0.63034181443E+02 -0.68260130534E+03  0.69874901403E+03  0.80484838637E+02 0.  0.
          6    2    1    2  501    0 -0.10399523287E+03 -0.18803402572E+03 -0.28761933983E+04  0.28892646263E+04  0.17085026586E+03 0.  0.
         24    2    5    5    0    0 -0.11633501723E+03 -0.11937997155E+03 -0.14806235123E+04  0.14919446751E+04  0.76599703336E+02 0.  0.
          5    1    5    5  501    0  0.12339784368E+02 -0.68654054171E+02 -0.13955698859E+04  0.13973199512E+04  0.47000000000E+01 0. -1.
        -15    1    6    6    0    0 -0.32637758522E+02 -0.87992298500E+02 -0.72432894258E+03  0.73038581768E+03  0.17770000000E+01 0.  1.
         16    1    6    6    0    0 -0.83697258712E+02 -0.31387673053E+02 -0.75629456977E+03  0.76155885747E+03  0.00000000000E+00 0. -1.
         -5    1    3    3    0  503 -0.48832557231E+01  0.12499984428E+03 -0.67574265419E+03  0.68724015595E+03  0.47000000000E+01 0.  1.
         15    1    4    4    0    0  0.64497347473E+02  0.21432718988E+01 -0.44015163298E+03  0.44486078630E+03  0.17770000000E+01 0. -1.
        -16    1    4    4    0    0  0.44381141116E+02  0.60890909545E+02 -0.24244967235E+03  0.25388822772E+03  0.00000000000E+00 0.  1.
<mgrwt>
<rscale>  2 0.27521053E+03</rscale>
<asrwt>0</asrwt>
<pdfrwt beam="1">  1       21 0.31320319E-02 0.27544086E+03</pdfrwt>
<pdfrwt beam="2">  1       21 0.65459969E+00 0.27544086E+03</pdfrwt>
<totfact> 0.64663058E+01</totfact>
</mgrwt>
</event>
<event>
12    2  0.4097182E-002  0.3040522E+03  0.7546771E-02  0.1083457E+00
         21   -1    0    0  501  502  0.00000000000E+00  0.00000000000E+00  0.10027403695E+04  0.10027403695E+04  0.00000000000E+00 0.  1.
         21   -1    0    0  502  503 -0.00000000000E+00 -0.00000000000E+00 -0.93003463974E+02  0.93003463974E+02  0.00000000000E+00 0. -1.
         -6    2    1    2    0  503  0.20466094637E+03  0.14230092698E+03  0.38727525679E+03  0.49124906600E+03  0.17090308230E+03 0.  0.
        -24    2    3    3    0    0  0.11700111026E+03  0.15751581223E+03  0.25387057898E+03  0.33082887506E+03  0.80603863435E+02 0.  0.
          6    2    1    2  501    0 -0.20466094637E+03 -0.14230092698E+03  0.52246164875E+03  0.60449476748E+03  0.17410368379E+03 0.  0.
         24    2    5    5    0    0 -0.16710004447E+03 -0.15739435154E+03  0.50425884628E+03  0.55986221395E+03  0.80456869196E+02 0.  0.
          5    1    5    5  501    0 -0.37560901906E+02  0.15093424562E+02  0.18202802471E+02  0.44632553532E+02  0.47000000000E+01 0. -1.
        -15    1    6    6    0    0 -0.16163758862E+03 -0.11303075439E+03  0.38687125935E+03  0.43425245024E+03  0.17770000000E+01 0.  1.
         16    1    6    6    0    0 -0.54624558431E+01 -0.44363597147E+02  0.11738758692E+03  0.12560976371E+03  0.00000000000E+00 0. -1.
         -5    1    3    3    0  503  0.87659836113E+02 -0.15214885247E+02  0.13340467781E+03  0.16042019094E+03  0.47000000000E+01 0.  1.
         15    1    4    4    0    0  0.11891727990E+03  0.16546967221E+03  0.24133337263E+03  0.31585833273E+03  0.17770000000E+01 0. -1.
        -16    1    4    4    0    0 -0.19161696439E+01 -0.79538599818E+01  0.12537206352E+02  0.14970542336E+02  0.00000000000E+00 0.  1.
<mgrwt>
<rscale>  2 0.30359586E+03</rscale>
<asrwt>0</asrwt>
<pdfrwt beam="1">  1       21 0.15426774E+00 0.30405222E+03</pdfrwt>
<pdfrwt beam="2">  1       21 0.14308226E-01 0.30405222E+03</pdfrwt>
<totfact> 0.11086828E+04</totfact>
</mgrwt>
</event>
<event>
12    2  0.4097182E-002  0.2236837E+03  0.7546771E-02  0.1131313E+00
         21   -1    0    0  501  502  0.00000000000E+00  0.00000000000E+00  0.79142140497E+03  0.79142140497E+03  0.00000000000E+00 0. -1.
         21   -1    0    0  502  503 -0.00000000000E+00 -0.00000000000E+00 -0.94850567014E+02  0.94850567014E+02  0.00000000000E+00 0.  1.
         -6    2    1    2    0  503 -0.35666120310E+02 -0.13697833196E+03  0.91056421061E+02  0.24076279469E+03  0.17216363125E+03 0.  0.
        -24    2    3    3    0    0 -0.28607568893E+02 -0.10726027000E+03  0.13152889879E+03  0.18984032609E+03  0.80102057867E+02 0.  0.
          6    2    1    2  501    0  0.35666120310E+02  0.13697833196E+03  0.60551441689E+03  0.64550917729E+03  0.17320292533E+03 0.  0.
         24    2    5    5    0    0  0.56722399437E+02  0.16239760239E+03  0.53119228440E+03  0.56405136258E+03  0.79989279035E+02 0.  0.
          5    1    5    5  501    0 -0.21056279128E+02 -0.25419270434E+02  0.74322132492E+02  0.81457814716E+02  0.47000000000E+01 0. -1.
        -15    1    6    6    0    0  0.19545926980E+02 -0.21845996500E+01  0.78223431160E+02  0.80677621733E+02  0.17770000000E+01 0.  1.
         16    1    6    6    0    0  0.37176472457E+02  0.16458220204E+03  0.45296885324E+03  0.48337374085E+03  0.00000000000E+00 0. -1.
         -5    1    3    3    0  503 -0.70585514165E+01 -0.29718061964E+02 -0.40472477727E+02  0.50922468601E+02  0.47000000000E+01 0.  1.
         15    1    4    4    0    0  0.12306057556E+02 -0.92194856237E+02  0.94955716138E+02  0.13293260069E+03  0.17770000000E+01 0. -1.
        -16    1    4    4    0    0 -0.40913626449E+02 -0.15065413758E+02  0.36573182651E+02  0.56907725400E+02  0.00000000000E+00 0.  1.
<mgrwt>
<rscale>  2 0.22348246E+03</rscale>
<asrwt>0</asrwt>
<pdfrwt beam="1">  1       21 0.12175713E+00 0.22368368E+03</pdfrwt>
<pdfrwt beam="2">  1       21 0.14592395E-01 0.22368368E+03</pdfrwt>
<totfact> 0.20612929E+04</totfact>
</mgrwt>
</event>
<event>
12    2  0.4097182E-002  0.2104165E+03  0.7546771E-02  0.1141503E+00
         21   -1    0    0  501  502  0.00000000000E+00  0.00000000000E+00  0.26479240746E+03  0.26479240746E+03  0.00000000000E+00 0.  1.
         21   -1    0    0  502  503 -0.00000000000E+00 -0.00000000000E+00 -0.20951833995E+03  0.20951833995E+03  0.00000000000E+00 0.  1.
         -6    2    1    2    0  503 -0.65674764185E+02  0.99548721746E+02 -0.80342659778E+02  0.22397695948E+03  0.17171957590E+03 0.  0.
        -24    2    3    3    0    0 -0.10310916152E+03  0.82538952379E+02 -0.29291699062E+02  0.15825818783E+03  0.82118649114E+02 0.  0.
          6    2    1    2  501    0  0.65674764185E+02 -0.99548721746E+02  0.13561672729E+03  0.25033378792E+03  0.17335508646E+03 0.  0.
         24    2    5    5    0    0 -0.26148112896E+02 -0.68278618042E+02  0.88493760242E+02  0.14238970905E+03  0.84249570625E+02 0.  0.
          5    1    5    5  501    0  0.91822877081E+02 -0.31270103704E+02  0.47122967047E+02  0.10794407888E+03  0.47000000000E+01 0. -1.
        -15    1    6    6    0    0  0.16190434362E+02 -0.67226401460E+02  0.56438262930E+02  0.89274601481E+02  0.17770000000E+01 0.  1.
         16    1    6    6    0    0 -0.42338547258E+02 -0.10522165823E+01  0.32055497312E+02  0.53115107564E+02  0.00000000000E+00 0. -1.
         -5    1    3    3    0  503  0.37434397334E+02  0.17009769367E+02 -0.51050960716E+02  0.65718771654E+02  0.47000000000E+01 0.  1.
         15    1    4    4    0    0  0.45313907304E+01 -0.13439816880E+01  0.14166880932E+02  0.15039881419E+02  0.17770000000E+01 0. -1.
        -16    1    4    4    0    0 -0.10764055225E+03  0.83882934067E+02 -0.43458579995E+02  0.14321830641E+03  0.00000000000E+00 0.  1.
<mgrwt>
<rscale>  2 0.21007936E+03</rscale>
<asrwt>0</asrwt>
<pdfrwt beam="1">  1       21 0.40737294E-01 0.21041651E+03</pdfrwt>
<pdfrwt beam="2">  1       21 0.32233591E-01 0.21041651E+03</pdfrwt>
<totfact> 0.53297566E+04</totfact>
</mgrwt>
</event>
<event>
12    2  0.4097182E-002  0.1739893E+03  0.7546771E-02  0.1173832E+00
         21   -1    0    0  501  502  0.00000000000E+00  0.00000000000E+00  0.31468784828E+02  0.31468784828E+02  0.00000000000E+00 0.  1.
         21   -1    0    0  502  503 -0.00000000000E+00 -0.00000000000E+00 -0.96019399007E+03  0.96019399007E+03  0.00000000000E+00 0.  1.
         -6    2    1    2    0  503 -0.62988053252E+01  0.20691993112E+02 -0.46417780561E+03  0.49571494427E+03  0.17263961660E+03 0.  0.
        -24    2    3    3    0    0 -0.46949488344E+02 -0.12272177986E+00 -0.42680303222E+03  0.43651448758E+03  0.78611704210E+02 0.  0.
          6    2    1    2  501    0  0.62988053252E+01 -0.20691993112E+02 -0.46454739962E+03  0.49594783063E+03  0.17231404666E+03 0.  0.
         24    2    5    5    0    0  0.39999572131E+02  0.38735394336E+01 -0.43896900348E+03  0.44679957102E+03  0.72945874283E+02 0.  0.
          5    1    5    5  501    0 -0.33700766806E+02 -0.24565532545E+02 -0.25578396149E+02  0.49148259604E+02  0.47000000000E+01 0. -1.
        -15    1    6    6    0    0 -0.48270775259E+00  0.31981741122E+02 -0.12790722097E+03  0.13185780097E+03  0.17770000000E+01 0.  1.
         16    1    6    6    0    0  0.40482279884E+02 -0.28108201688E+02 -0.31106178250E+03  0.31494177005E+03  0.00000000000E+00 0. -1.
         -5    1    3    3    0  503  0.40650683019E+02  0.20814714892E+02 -0.37374773396E+02  0.59200456690E+02  0.47000000000E+01 0.  1.
         15    1    4    4    0    0  0.11046793845E+02  0.43656679453E+01 -0.25201652662E+03  0.25230255277E+03  0.17770000000E+01 0. -1.
        -16    1    4    4    0    0 -0.57996282189E+02 -0.44883897252E+01 -0.17478650559E+03  0.18421193481E+03  0.00000000000E+00 0.  1.
<mgrwt>
<rscale>  2 0.17390847E+03</rscale>
<asrwt>0</asrwt>
<pdfrwt beam="1">  1       21 0.48413520E-02 0.17398928E+03</pdfrwt>
<pdfrwt beam="2">  1       21 0.14772214E+00 0.17398928E+03</pdfrwt>
<totfact> 0.89214594E+04</totfact>
</mgrwt>
</event>
<event>
12    2  0.4097182E-002  0.1873501E+03  0.7546771E-02  0.1161027E+00
         21   -1    0    0  503  502  0.00000000000E+00  0.00000000000E+00  0.29569436041E+03  0.29569436041E+03  0.00000000000E+00 0.  1.
         21   -1    0    0  501  503 -0.00000000000E+00 -0.00000000000E+00 -0.24817192304E+03  0.24817192304E+03  0.00000000000E+00 0.  1.
          6    2    1    2  501    0  0.72253923009E+02 -0.10763111473E+02 -0.17299025221E+03  0.25451200893E+03  0.17179715181E+03 0.  0.
         24    2    3    3    0    0  0.17289924357E+02 -0.24771374716E+02 -0.15210934321E+02  0.86781046551E+02  0.79918802718E+02 0.  0.
         -6    2    1    2    0  502 -0.72253923009E+02  0.10763111473E+02  0.22051268958E+03  0.28935427452E+03  0.17252123335E+03 0.  0.
        -24    2    5    5    0    0  0.18437424961E+02  0.39757087270E+02  0.10270767213E+03  0.13780994647E+03  0.80759834089E+02 0.  0.
          5    1    3    3  501    0  0.54963998652E+02  0.14008263243E+02 -0.15777931789E+03  0.16773096238E+03  0.47000000000E+01 0. -1.
        -15    1    4    4    0    0  0.28287733504E+02  0.72571343011E+01 -0.36501587577E+02  0.46780182660E+02  0.17770000000E+01 0.  1.
         16    1    4    4    0    0 -0.10997809147E+02 -0.32028509018E+02  0.21290653256E+02  0.40000863891E+02  0.00000000000E+00 0. -1.
         -5    1    5    5    0  502 -0.90691347970E+02 -0.28993975797E+02  0.11780501744E+03  0.15154432805E+03  0.47000000000E+01 0.  1.
         15    1    6    6    0    0  0.29402885103E+02  0.17289559480E+02  0.21856293532E+01  0.34225622333E+02  0.17770000000E+01 0. -1.
        -16    1    6    6    0    0 -0.10965460141E+02  0.22467527790E+02  0.10052204278E+03  0.10358432413E+03  0.00000000000E+00 0.  1.
<mgrwt>
<rscale>  2 0.18718321E+03</rscale>
<asrwt>0</asrwt>
<pdfrwt beam="1">  1       21 0.45491440E-01 0.18735007E+03</pdfrwt>
<pdfrwt beam="2">  1       21 0.38180296E-01 0.18735007E+03</pdfrwt>
<totfact> 0.30743240E+04</totfact>
</mgrwt>
</event>
<event>
12    2  0.4097182E-002  0.3064657E+03  0.7546771E-02  0.1082169E+00
         21   -1    0    0  501  502  0.00000000000E+00  0.00000000000E+00  0.39107536555E+03  0.39107536555E+03  0.00000000000E+00 0.  1.
         21   -1    0    0  502  503 -0.00000000000E+00 -0.00000000000E+00 -0.42597111911E+03  0.42597111911E+03  0.00000000000E+00 0. -1.
         -6    2    1    2    0  503  0.14570197510E+03  0.20623211826E+03 -0.28778993148E+03  0.41970945967E+03  0.17196579232E+03 0.  0.
        -24    2    3    3    0    0  0.11175221969E+03  0.10186438657E+03 -0.25029084095E+03  0.30363413455E+03  0.81751273659E+02 0.  0.
          6    2    1    2  501    0 -0.14570197510E+03 -0.20623211826E+03  0.25289417792E+03  0.39733702499E+03  0.17366776917E+03 0.  0.
         24    2    5    5    0    0 -0.91614524139E+02 -0.13281951750E+03  0.24719077638E+03  0.30585215689E+03  0.80050088611E+02 0.  0.
          5    1    5    5  501    0 -0.54087450965E+02 -0.73412600757E+02  0.57034015474E+01  0.91484868099E+02  0.47000000000E+01 0. -1.
        -15    1    6    6    0    0 -0.34076509111E+02 -0.11436180705E+03  0.15497679145E+03  0.19560366817E+03  0.17770000000E+01 0.  1.
         16    1    6    6    0    0 -0.57538015028E+02 -0.18457710447E+02  0.92213984928E+02  0.11024848872E+03  0.00000000000E+00 0. -1.
         -5    1    3    3    0  503  0.33949755414E+02  0.10436773169E+03 -0.37499090526E+02  0.11607532512E+03  0.47000000000E+01 0.  1.
         15    1    4    4    0    0  0.42738850111E+02  0.91464688624E+02 -0.13060377429E+03  0.16508453036E+03  0.17770000000E+01 0. -1.
        -16    1    4    4    0    0  0.69013369579E+02  0.10399697942E+02 -0.11968706666E+03  0.13854960420E+03  0.00000000000E+00 0.  1.
<mgrwt>
<rscale>  2 0.30622514E+03</rscale>
<asrwt>0</asrwt>
<pdfrwt beam="1">  1       21 0.60165441E-01 0.30646573E+03</pdfrwt>
<pdfrwt beam="2">  1       21 0.65534018E-01 0.30646573E+03</pdfrwt>
<totfact> 0.51380756E+03</totfact>
</mgrwt>
</event>
<event>
12    2  0.4097182E-002  0.2372069E+03  0.7546771E-02  0.1121795E+00
         21   -1    0    0  503  502  0.00000000000E+00  0.00000000000E+00  0.30959096648E+03  0.30959096648E+03  0.00000000000E+00 0. -1.
         21   -1    0    0  501  503 -0.00000000000E+00 -0.00000000000E+00 -0.18912787018E+03  0.18912787018E+03  0.00000000000E+00 0. -1.
          6    2    1    2  501    0 -0.87316131177E+01  0.16267448315E+03  0.11147182547E+03  0.26209365365E+03  0.17241776845E+03 0.  0.
         24    2    3    3    0    0 -0.56230313512E+02  0.63005242664E+02  0.93323990502E+02  0.15010473477E+03  0.81795815524E+02 0.  0.
         -6    2    1    2    0  502  0.87316131177E+01 -0.16267448315E+03  0.89912708307E+01  0.23662518301E+03  0.17138087918E+03 0.  0.
        -24    2    5    5    0    0  0.19229897455E+02 -0.18433850535E+03  0.32273769627E+02  0.20280642221E+03  0.75752063830E+02 0.  0.
          5    1    3    3  501    0  0.47498700395E+02  0.99669240485E+02  0.18147834967E+02  0.11198891888E+03  0.47000000000E+01 0. -1.
        -15    1    4    4    0    0 -0.38195892811E+02 -0.75733559767E+01  0.11692306148E+02  0.40695819201E+02  0.17770000000E+01 0.  1.
         16    1    4    4    0    0 -0.18034420701E+02  0.70578598641E+02  0.81631684354E+02  0.10940891557E+03  0.00000000000E+00 0. -1.
         -5    1    5    5    0  502 -0.10498284337E+02  0.21664022199E+02 -0.23282498796E+02  0.33818760800E+02  0.47000000000E+01 0.  1.
         15    1    6    6    0    0 -0.18794189476E+02 -0.93720933536E+02  0.41255317255E+02  0.10412489554E+03  0.17770000000E+01 0. -1.
        -16    1    6    6    0    0  0.38024086931E+02 -0.90617571812E+02 -0.89815476279E+01  0.98681526670E+02  0.00000000000E+00 0.  1.
<mgrwt>
<rscale>  2 0.23701853E+03</rscale>
<asrwt>0</asrwt>
<pdfrwt beam="1">  1       21 0.47629379E-01 0.23720690E+03</pdfrwt>
<pdfrwt beam="2">  1       21 0.29096595E-01 0.23720690E+03</pdfrwt>
<totfact> 0.46692813E+04</totfact>
</mgrwt>
</event>
<event>
12    2  0.4097182E-002  0.2583743E+03  0.7546771E-02  0.1108846E+00
         21   -1    0    0  503  502  0.00000000000E+00  0.00000000000E+00  0.74813621792E+03  0.74813621792E+03  0.00000000000E+00 0. -1.
         21   -1    0    0  501  503 -0.00000000000E+00 -0.00000000000E+00 -0.13251163717E+03  0.13251163717E+03  0.00000000000E+00 0. -1.
          6    2    1    2  501    0 -0.12026793016E+03  0.14095390018E+03  0.53375050479E+02  0.26382977834E+03  0.18006909486E+03 0.  0.
         24    2    3    3    0    0 -0.15366739306E+03  0.11270509628E+03  0.67216290850E+02  0.21770831936E+03  0.81010963119E+02 0.  0.
         -6    2    1    2    0  502  0.12026793016E+03 -0.14095390018E+03  0.56224953026E+03  0.61681807675E+03  0.17322710101E+03 0.  0.
        -24    2    5    5    0    0  0.14483867259E+03 -0.14976647152E+03  0.53020003186E+03  0.57521707742E+03  0.79714335645E+02 0.  0.
          5    1    3    3  501    0  0.33399462898E+02  0.28248803892E+02 -0.13841240371E+02  0.46121458978E+02  0.47000000000E+01 0. -1.
        -15    1    4    4    0    0 -0.59669567345E+02  0.89174561781E+02  0.17260361873E+02  0.10869055873E+03  0.17770000000E+01 0.  1.
         16    1    4    4    0    0 -0.93997825717E+02  0.23530534502E+02  0.49955928977E+02  0.10901776063E+03  0.00000000000E+00 0. -1.
         -5    1    5    5    0  502 -0.24570742428E+02  0.88125713418E+01  0.32049498408E+02  0.41600999331E+02  0.47000000000E+01 0.  1.
         15    1    6    6    0    0  0.10247496979E+03 -0.10608851190E+03  0.45596159242E+03  0.47922857102E+03  0.17770000000E+01 0. -1.
        -16    1    6    6    0    0  0.42363702802E+02 -0.43677959615E+02  0.74238439441E+02  0.95988506405E+02  0.00000000000E+00 0.  1.
<mgrwt>
<rscale>  2 0.25718585E+03</rscale>
<asrwt>0</asrwt>
<pdfrwt beam="1">  1       21 0.11509788E+00 0.25837426E+03</pdfrwt>
<pdfrwt beam="2">  1       21 0.20386406E-01 0.25837426E+03</pdfrwt>
<totfact> 0.12515198E+04</totfact>
</mgrwt>
</event>
<event>
12    2  0.4097182E-002  0.1871696E+03  0.7546771E-02  0.1161131E+00
         21   -1    0    0  501  502  0.00000000000E+00  0.00000000000E+00  0.67103056027E+03  0.67103056027E+03  0.00000000000E+00 0. -1.
         21   -1    0    0  502  503 -0.00000000000E+00 -0.00000000000E+00 -0.54929476417E+02  0.54929476417E+02  0.00000000000E+00 0.  1.
         -6    2    1    2    0  503 -0.62763386335E+02  0.32736320138E+02  0.39080160767E+03  0.43331092913E+03  0.17326729474E+03 0.  0.
        -24    2    3    3    0    0 -0.23062201147E+02 -0.26408976562E+02  0.10158041427E+03  0.13540936999E+03  0.82388213676E+02 0.  0.
          6    2    1    2  501    0  0.62763386335E+02 -0.32736320138E+02  0.22529947618E+03  0.29264910755E+03  0.17283731329E+03 0.  0.
         24    2    5    5    0    0  0.73571686812E+01  0.29365358308E+02  0.57925505890E+02  0.10566621167E+03  0.83027295857E+02 0.  0.
          5    1    5    5  501    0  0.55406217654E+02 -0.62101678446E+02  0.16737397029E+03  0.18698289588E+03  0.47000000000E+01 0. -1.
        -15    1    6    6    0    0  0.52784144745E+01 -0.25687319403E+02  0.78964263256E+00  0.26296032057E+02  0.17770000000E+01 0.  1.
         16    1    6    6    0    0  0.20787542066E+01  0.55052677711E+02  0.57135863258E+02  0.79370179617E+02  0.00000000000E+00 0. -1.
         -5    1    3    3    0  503 -0.39701185188E+02  0.59145296700E+02  0.28922119341E+03  0.29790155915E+03  0.47000000000E+01 0.  1.
         15    1    4    4    0    0 -0.32460235558E+02  0.14059942550E+02  0.82319589121E+02  0.89615965983E+02  0.17770000000E+01 0. -1.
        -16    1    4    4    0    0  0.93980344110E+01 -0.40468919112E+02  0.19260825145E+02  0.45793404003E+02  0.00000000000E+00 0.  1.
<mgrwt>
<rscale>  2 0.18707004E+03</rscale>
<asrwt>0</asrwt>
<pdfrwt beam="1">  1       21 0.10323547E+00 0.18716961E+03</pdfrwt>
<pdfrwt beam="2">  1       21 0.84506891E-02 0.18716961E+03</pdfrwt>
<totfact> 0.83187066E+04</totfact>
</mgrwt>
</event>
<event>
12    2  0.4097182E-002  0.1865190E+03  0.7546771E-02  0.1162382E+00
         21   -1    0    0  501  502  0.00000000000E+00  0.00000000000E+00  0.11546406582E+03  0.11546406582E+03  0.00000000000E+00 0.  1.
         21   -1    0    0  502  503 -0.00000000000E+00 -0.00000000000E+00 -0.29628398786E+03  0.29628398786E+03  0.00000000000E+00 0.  1.
         -6    2    1    2    0  503 -0.60540814449E+02  0.31280165587E+02 -0.95153633542E+02  0.20938850210E+03  0.17362514755E+03 0.  0.
        -24    2    3    3    0    0 -0.12833930622E+02 -0.16967208966E+02  0.90376906382E+01  0.84963111003E+02  0.81758512853E+02 0.  0.
          6    2    1    2  501    0  0.60540814449E+02 -0.31280165587E+02 -0.85666288500E+02  0.20235955157E+03  0.17019705095E+03 0.  0.
         24    2    5    5    0    0  0.18924086687E+02 -0.57422125122E+02  0.34908495771E+01  0.10044566955E+03  0.80135666159E+02 0.  0.
          5    1    5    5  501    0  0.41616727762E+02  0.26141959535E+02 -0.89157138077E+02  0.10191388202E+03  0.47000000000E+01 0. -1.
        -15    1    6    6    0    0 -0.47290805510E+01 -0.51379097507E+01  0.34481664215E+02  0.35226484575E+02  0.17770000000E+01 0.  1.
         16    1    6    6    0    0  0.23653167238E+02 -0.52284215371E+02 -0.30990814638E+02  0.65219184979E+02  0.00000000000E+00 0. -1.
         -5    1    3    3    0  503 -0.47706883827E+02  0.48247374553E+02 -0.10419132418E+03  0.12442539110E+03  0.47000000000E+01 0.  1.
         15    1    4    4    0    0  0.26278084689E+02 -0.12968729956E+02 -0.20483710479E+02  0.35797567174E+02  0.17770000000E+01 0. -1.
        -16    1    4    4    0    0 -0.39112015311E+02 -0.39984790108E+01  0.29521401117E+02  0.49165543829E+02  0.00000000000E+00 0.  1.
<mgrwt>
<rscale>  2 0.18571712E+03</rscale>
<asrwt>0</asrwt>
<pdfrwt beam="1">  1       21 0.17763703E-01 0.18651898E+03</pdfrwt>
<pdfrwt beam="2">  1       21 0.45582151E-01 0.18651898E+03</pdfrwt>
<totfact> 0.13305131E+05</totfact>
</mgrwt>
</event>
<event>
12    2  0.4097182E-002  0.1848804E+03  0.7546771E-02  0.1163410E+00
         21   -1    0    0  501  502  0.00000000000E+00  0.00000000000E+00  0.34127791913E+03  0.34127791913E+03  0.00000000000E+00 0.  1.
         21   -1    0    0  502  503 -0.00000000000E+00 -0.00000000000E+00 -0.17799658722E+03  0.17799658722E+03  0.00000000000E+00 0.  1.
         -6    2    1    2    0  503 -0.17299397361E+02  0.64857032361E+02 -0.90819321244E+02  0.20503273675E+03  0.17112735092E+03 0.  0.
        -24    2    3    3    0    0 -0.46695758187E+02 -0.16974025716E+02 -0.63564771069E+02  0.11378927890E+03  0.80242809579E+02 0.  0.
          6    2    1    2  501    0  0.17299397361E+02 -0.64857032361E+02  0.25410065315E+03  0.31424176960E+03  0.17226445958E+03 0.  0.
         24    2    5    5    0    0 -0.22521794102E+02 -0.10058892673E+03  0.18636840961E+03  0.22779963647E+03  0.80833946359E+02 0.  0.
          5    1    5    5  501    0  0.39821191463E+02  0.35731894373E+02  0.67732243538E+02  0.86442133128E+02  0.47000000000E+01 0. -1.
        -15    1    6    6    0    0 -0.31913392867E+02 -0.97940075668E+02  0.10962280182E+03  0.15043616411E+03  0.17770000000E+01 0.  1.
         16    1    6    6    0    0  0.93915987652E+01 -0.26488510663E+01  0.76745607795E+02  0.77363472358E+02  0.00000000000E+00 0. -1.
         -5    1    3    3    0  503  0.29396360826E+02  0.81831058076E+02 -0.27254550175E+02  0.91243457853E+02  0.47000000000E+01 0.  1.
         15    1    4    4    0    0 -0.18779747621E+02 -0.15473157110E+02 -0.78422488239E+02  0.82130030454E+02  0.17770000000E+01 0. -1.
        -16    1    4    4    0    0 -0.27916010566E+02 -0.15008686054E+01  0.14857717170E+02  0.31659248443E+02  0.00000000000E+00 0.  1.
<mgrwt>
<rscale>  2 0.18461503E+03</rscale>
<asrwt>0</asrwt>
<pdfrwt beam="1">  1       21 0.52504295E-01 0.18488036E+03</pdfrwt>
<pdfrwt beam="2">  1       21 0.27384090E-01 0.18488036E+03</pdfrwt>
<totfact> 0.43916339E+04</totfact>
</mgrwt>
</event>
<event>
12    2  0.4097182E-002  0.1919008E+03  0.7546771E-02  0.1156901E+00
         21   -1    0    0  501  502  0.00000000000E+00  0.00000000000E+00  0.10990574551E+03  0.10990574551E+03  0.00000000000E+00 0.  1.
         21   -1    0    0  502  503 -0.00000000000E+00 -0.00000000000E+00 -0.37296625020E+03  0.37296625020E+03  0.00000000000E+00 0.  1.
         -6    2    1    2    0  503 -0.77435993241E+02 -0.25457208789E+02 -0.20942541158E+03  0.28361675965E+03  0.17301751590E+03 0.  0.
        -24    2    3    3    0    0 -0.22121504561E+02 -0.45629938547E+02 -0.18884888486E+03  0.22106985616E+03  0.10313354321E+03 0.  0.
          6    2    1    2  501    0  0.77435993241E+02  0.25457208789E+02 -0.53635093101E+02  0.19925523606E+03  0.17372830327E+03 0.  0.
         24    2    5    5    0    0  0.11105075444E+03  0.29525883200E+02 -0.74974133083E+02  0.15895696179E+03  0.80262987928E+02 0.  0.
          5    1    5    5  501    0 -0.33614761197E+02 -0.40686744112E+01  0.21339039982E+02  0.40298274270E+02  0.47000000000E+01 0. -1.
        -15    1    6    6    0    0  0.10282975964E+03 -0.26630208228E+01 -0.72062715776E+02  0.12560749930E+03  0.17770000000E+01 0.  1.
         16    1    6    6    0    0  0.82209947999E+01  0.32188904023E+02 -0.29114173074E+01  0.33349462491E+02  0.00000000000E+00 0. -1.
         -5    1    3    3    0  503 -0.55314488680E+02  0.20172729758E+02 -0.20576526725E+02  0.62546903488E+02  0.47000000000E+01 0.  1.
         15    1    4    4    0    0 -0.13465538565E+02 -0.78693155656E+02 -0.11905270814E+03  0.14335493895E+03  0.17770000000E+01 0. -1.
        -16    1    4    4    0    0 -0.86559659959E+01  0.33063217109E+02 -0.69796176713E+02  0.77714917208E+02  0.00000000000E+00 0.  1.
<mgrwt>
<rscale>  2 0.19173981E+03</rscale>
<asrwt>0</asrwt>
<pdfrwt beam="1">  1       21 0.16908576E-01 0.19190082E+03</pdfrwt>
<pdfrwt beam="2">  1       21 0.57379423E-01 0.19190082E+03</pdfrwt>
<totfact> 0.89859890E+04</totfact>
</mgrwt>
</event>
<event>
12    2  0.4097182E-002  0.1843666E+03  0.7546771E-02  0.1165276E+00
         21   -1    0    0  501  502  0.00000000000E+00  0.00000000000E+00  0.12213297813E+04  0.12213297813E+04  0.00000000000E+00 0.  1.
         21   -1    0    0  502  503 -0.00000000000E+00 -0.00000000000E+00 -0.27301393328E+02  0.27301393328E+02  0.00000000000E+00 0.  1.
         -6    2    1    2    0  503 -0.12696244301E+02  0.62947082083E+02  0.52435331820E+03  0.55582140689E+03  0.17282217535E+03 0.  0.
        -24    2    3    3    0    0 -0.26785688010E+02  0.10703671128E+01  0.44889548897E+03  0.45711368545E+03  0.82019160243E+02 0.  0.
          6    2    1    2  501    0  0.12696244301E+02 -0.62947082083E+02  0.66967506979E+03  0.69280976775E+03  0.16552083080E+03 0.  0.
         24    2    5    5    0    0  0.30601443424E+02 -0.10184221715E+03  0.42535541506E+03  0.44472185718E+03  0.74444715010E+02 0.  0.
          5    1    5    5  501    0 -0.17905199122E+02  0.38895135065E+02  0.24431965473E+03  0.24808791057E+03  0.47000000000E+01 0. -1.
        -15    1    6    6    0    0 -0.10336638756E+02 -0.59997234820E+02  0.12920623514E+03  0.14284230191E+03  0.17770000000E+01 0.  1.
         16    1    6    6    0    0  0.40938082180E+02 -0.41844982328E+02  0.29614917992E+03  0.30187955526E+03  0.00000000000E+00 0. -1.
         -5    1    3    3    0  503  0.14089443709E+02  0.61876714970E+02  0.75457829233E+02  0.98707721441E+02  0.47000000000E+01 0.  1.
         15    1    4    4    0    0 -0.35000529476E+02 -0.34580693350E+02  0.23362461030E+03  0.23875610502E+03  0.17770000000E+01 0. -1.
        -16    1    4    4    0    0  0.82148414660E+01  0.35651060463E+02  0.21527087866E+03  0.21835758043E+03  0.00000000000E+00 0.  1.
<mgrwt>
<rscale>  2 0.18263587E+03</rscale>
<asrwt>0</asrwt>
<pdfrwt beam="1">  1       21 0.18789685E+00 0.18436658E+03</pdfrwt>
<pdfrwt beam="2">  1       21 0.42002153E-02 0.18436658E+03</pdfrwt>
<totfact> 0.58432832E+04</totfact>
</mgrwt>
</event>
<event>
12    2  0.4097182E-002  0.2182813E+03  0.7546771E-02  0.1137572E+00
         21   -1    0    0  501  502  0.00000000000E+00  0.00000000000E+00  0.68186374754E+03  0.68186374754E+03  0.00000000000E+00 0. -1.
         21   -1    0    0  502  503 -0.00000000000E+00 -0.00000000000E+00 -0.11770345877E+03  0.11770345877E+03  0.00000000000E+00 0.  1.
         -6    2    1    2    0  503  0.30167127600E+02 -0.12993217059E+03  0.21723962284E+02  0.21935966212E+03  0.17278398736E+03 0.  0.
        -24    2    3    3    0    0  0.40994251365E+02 -0.87074408841E+02  0.77188050812E+02  0.14827964054E+03  0.82257980107E+02 0.  0.
          6    2    1    2  501    0 -0.30167127600E+02  0.12993217059E+03  0.54243632649E+03  0.58020754419E+03  0.15687957641E+03 0.  0.
         24    2    5    5    0    0  0.32362688140E+01  0.43794679823E+02  0.40010803898E+03  0.41045806515E+03  0.80379928937E+02 0.  0.
          5    1    5    5  501    0 -0.33403396414E+02  0.86137490764E+02  0.14232828751E+03  0.16974947904E+03  0.47000000000E+01 0. -1.
        -15    1    6    6    0    0 -0.16259764555E+02 -0.37726258846E+01  0.16908986888E+02  0.23826124654E+02  0.17770000000E+01 0.  1.
         16    1    6    6    0    0  0.19496033369E+02  0.47567305707E+02  0.38319905209E+03  0.38663194050E+03  0.00000000000E+00 0. -1.
         -5    1    3    3    0  503 -0.10827123765E+02 -0.42857761745E+02 -0.55464088528E+02  0.71080021575E+02  0.47000000000E+01 0.  1.
         15    1    4    4    0    0 -0.24990552363E+02 -0.28692598634E+02  0.17926263329E+02  0.42098712209E+02  0.17770000000E+01 0. -1.
        -16    1    4    4    0    0  0.65984803728E+02 -0.58381810208E+02  0.59261787483E+02  0.10618092833E+03  0.00000000000E+00 0.  1.
<mgrwt>
<rscale>  2 0.21512347E+03</rscale>
<asrwt>0</asrwt>
<pdfrwt beam="1">  1       21 0.10490211E+00 0.21828131E+03</pdfrwt>
<pdfrwt beam="2">  1       21 0.18108225E-01 0.21828131E+03</pdfrwt>
<totfact> 0.20017383E+04</totfact>
</mgrwt>
</event>
<event>
12    2  0.4097182E-002  0.2626927E+03  0.7546771E-02  0.1105879E+00
         21   -1    0    0  503  502  0.00000000000E+00  0.00000000000E+00  0.60563047533E+03  0.60563047533E+03  0.00000000000E+00 0.  1.
         21   -1    0    0  501  503 -0.00000000000E+00 -0.00000000000E+00 -0.14901547663E+03  0.14901547663E+03  0.00000000000E+00 0. -1.
          6    2    1    2  501    0  0.17671234119E+03 -0.84175452595E+02  0.43433217023E+02  0.26625904188E+03  0.17519895745E+03 0.  0.
         24    2    3    3    0    0  0.61560260625E+02  0.68063624290E+00  0.67304313930E+02  0.12116432543E+03  0.79754586891E+02 0.  0.
         -6    2    1    2    0  502 -0.17671234119E+03  0.84175452595E+02  0.41318178168E+03  0.48838691009E+03  0.17172603438E+03 0.  0.
        -24    2    5    5    0    0 -0.11994758417E+03  0.95242890116E+02  0.18687820903E+03  0.25476301832E+03  0.80759516011E+02 0.  0.
          5    1    3    3  501    0  0.11515208057E+03 -0.84856088838E+02 -0.23871096907E+02  0.14509471644E+03  0.47000000000E+01 0. -1.
        -15    1    4    4    0    0  0.14588894959E+02 -0.31957297790E+02  0.50512468321E+02  0.61553000926E+02  0.17770000000E+01 0.  1.
         16    1    4    4    0    0  0.46971365666E+02  0.32637934033E+02  0.16791845609E+02  0.59611324506E+02  0.00000000000E+00 0. -1.
         -5    1    5    5    0  502 -0.56764757025E+02 -0.11067437521E+02  0.22630357264E+03  0.23362389177E+03  0.47000000000E+01 0.  1.
         15    1    6    6    0    0 -0.61125794593E+02  0.34693626377E+02  0.29645915588E+02  0.76302349347E+02  0.17770000000E+01 0. -1.
        -16    1    6    6    0    0 -0.58821789577E+02  0.60549263739E+02  0.15723229344E+03  0.17846066897E+03  0.00000000000E+00 0.  1.
<mgrwt>
<rscale>  2 0.26211492E+03</rscale>
<asrwt>0</asrwt>
<pdfrwt beam="1">  1       21 0.93173918E-01 0.26269266E+03</pdfrwt>
<pdfrwt beam="2">  1       21 0.22925458E-01 0.26269266E+03</pdfrwt>
<totfact> 0.16639803E+04</totfact>
</mgrwt>
</event>
<event>
12    2  0.4097182E-002  0.1751324E+03  0.7546771E-02  0.1172709E+00
         21   -1    0    0  501  502  0.00000000000E+00  0.00000000000E+00  0.19039920553E+03  0.19039920553E+03  0.00000000000E+00 0. -1.
         21   -1    0    0  502  503 -0.00000000000E+00 -0.00000000000E+00 -0.21885220830E+03  0.21885220830E+03  0.00000000000E+00 0. -1.
         -6    2    1    2    0  503 -0.63029930546E+01 -0.24835803719E+02 -0.11970489835E+03  0.21177158918E+03  0.17280450928E+03 0.  0.
        -24    2    3    3    0    0  0.45980015244E+02  0.11829640966E+02 -0.42444156030E+02  0.11142628489E+03  0.91434175096E+02 0.  0.
          6    2    1    2  501    0  0.63029930546E+01  0.24835803719E+02  0.91251895576E+02  0.19747982465E+03  0.17324787972E+03 0.  0.
         24    2    5    5    0    0  0.15787533357E+02  0.40849963515E+02 -0.12358744355E+02  0.92105897483E+02  0.80079910467E+02 0.  0.
          5    1    5    5  501    0 -0.94845403023E+01 -0.16014159796E+02  0.10361063993E+03  0.10537392716E+03  0.47000000000E+01 0. -1.
        -15    1    6    6    0    0 -0.13792037286E+02 -0.19497495033E+02 -0.11966063327E+01  0.23978369435E+02  0.17770000000E+01 0.  1.
         16    1    6    6    0    0  0.29579570643E+02  0.60347458548E+02 -0.11162138023E+02  0.68127528047E+02  0.00000000000E+00 0. -1.
         -5    1    3    3    0  503 -0.52283008299E+02 -0.36665444685E+02 -0.77260742316E+02  0.10034530429E+03  0.47000000000E+01 0.  1.
         15    1    4    4    0    0 -0.22559077805E+02 -0.15404106353E+02 -0.21355148153E+02  0.34718850292E+02  0.17770000000E+01 0. -1.
        -16    1    4    4    0    0  0.68539093049E+02  0.27233747319E+02 -0.21089007877E+02  0.76707434596E+02  0.00000000000E+00 0.  1.
<mgrwt>
<rscale>  2 0.17502269E+03</rscale>
<asrwt>0</asrwt>
<pdfrwt beam="1">  1       21 0.29292186E-01 0.17513244E+03</pdfrwt>
<pdfrwt beam="2">  1       21 0.33669570E-01 0.17513244E+03</pdfrwt>
<totfact> 0.95496032E+04</totfact>
</mgrwt>
</event>
<event>
12    2  0.4097182E-002  0.2243888E+03  0.7546771E-02  0.1130914E+00
         21   -1    0    0  503  502  0.00000000000E+00  0.00000000000E+00  0.13197175939E+04  0.13197175939E+04  0.00000000000E+00 0. -1.
         21   -1    0    0  501  503 -0.00000000000E+00 -0.00000000000E+00 -0.37942230281E+02  0.37942230281E+02  0.00000000000E+00 0.  1.
          6    2    1    2  501    0 -0.89377892996E+02  0.10902720769E+03  0.61869446773E+03  0.65764082408E+03  0.17272310017E+03 0.  0.
         24    2    3    3    0    0 -0.21095554447E+02  0.12289355715E+03  0.35510040492E+03  0.38495295609E+03  0.80898899996E+02 0.  0.
         -6    2    1    2    0  502  0.89377892996E+02 -0.10902720769E+03  0.66308089587E+03  0.70001900008E+03  0.17457086305E+03 0.  0.
        -24    2    5    5    0    0  0.64902768403E+02  0.91348102955E+01  0.29698128443E+03  0.31451632860E+03  0.80167471883E+02 0.  0.
          5    1    3    3  501    0 -0.68282338549E+02 -0.13866349455E+02  0.26359406281E+03  0.27268786800E+03  0.47000000000E+01 0. -1.
        -15    1    4    4    0    0  0.13236429873E+02  0.75464979438E+01  0.74345801932E+01  0.17046507521E+02  0.17770000000E+01 0.  1.
         16    1    4    4    0    0 -0.34331984320E+02  0.11534705921E+03  0.34766582472E+03  0.36790644857E+03  0.00000000000E+00 0. -1.
         -5    1    5    5    0  502  0.24475124592E+02 -0.11816201799E+03  0.36609961145E+03  0.38550267148E+03  0.47000000000E+01 0.  1.
         15    1    6    6    0    0 -0.60257920223E+01  0.85291155680E+01  0.15917092256E+03  0.15952302749E+03  0.17770000000E+01 0. -1.
        -16    1    6    6    0    0  0.70928560426E+02  0.60569472750E+00  0.13781036187E+03  0.15499330111E+03  0.00000000000E+00 0.  1.
<mgrwt>
<rscale>  2 0.22402929E+03</rscale>
<asrwt>0</asrwt>
<pdfrwt beam="1">  1       21 0.20303344E+00 0.22438878E+03</pdfrwt>
<pdfrwt beam="2">  1       21 0.58372672E-02 0.22438878E+03</pdfrwt>
<totfact> 0.25950757E+04</totfact>
</mgrwt>
</event>
<event>
12    2  0.4097182E-002  0.1792278E+03  0.7546771E-02  0.1169161E+00
         21   -1    0    0  501  502  0.00000000000E+00  0.00000000000E+00  0.38466731059E+02  0.38466731059E+02  0.00000000000E+00 0.  1.
         21   -1    0    0  502  503 -0.00000000000E+00 -0.00000000000E+00 -0.14097569728E+04  0.14097569728E+04  0.00000000000E+00 0. -1.
         -6    2    1    2    0  503 -0.31200220911E+02 -0.23099719817E+02 -0.21591754753E+03  0.27903223868E+03  0.17242839689E+03 0.  0.
        -24    2    3    3    0    0  0.10691873252E+02 -0.14279744388E+02 -0.29201423498E+02  0.87413501364E+02  0.80437365900E+02 0.  0.
          6    2    1    2  501    0  0.31200220911E+02  0.23099719817E+02 -0.11553726942E+04  0.11691914651E+04  0.17497305181E+03 0.  0.
         24    2    5    5    0    0  0.13983886727E+02  0.95912264001E+01 -0.23465133755E+03  0.24819809485E+03  0.79079095615E+02 0.  0.
          5    1    5    5  501    0  0.17216334184E+02  0.13508493417E+02 -0.92072135664E+03  0.92099337029E+03  0.47000000000E+01 0. -1.
        -15    1    6    6    0    0 -0.13288219547E+02  0.38699997853E+02 -0.11538932115E+03  0.12244231204E+03  0.17770000000E+01 0.  1.
         16    1    6    6    0    0  0.27272106274E+02 -0.29108771453E+02 -0.11926201640E+03  0.12575578281E+03  0.00000000000E+00 0. -1.
         -5    1    3    3    0  503 -0.41892094163E+02 -0.88199754294E+01 -0.18671612403E+03  0.19161873732E+03  0.47000000000E+01 0.  1.
         15    1    4    4    0    0  0.39405839685E+02  0.14099070582E+02 -0.12411146819E+02  0.43689796142E+02  0.17770000000E+01 0. -1.
        -16    1    4    4    0    0 -0.28713966433E+02 -0.28378814970E+02 -0.16790276679E+02  0.43723705222E+02  0.00000000000E+00 0.  1.
<mgrwt>
<rscale>  2 0.17860374E+03</rscale>
<asrwt>0</asrwt>
<pdfrwt beam="1">  1       21 0.59179581E-02 0.17922784E+03</pdfrwt>
<pdfrwt beam="2">  1       21 0.21688571E+00 0.17922784E+03</pdfrwt>
<totfact> 0.21455448E+04</totfact>
</mgrwt>
</event>
<event>
12    2  0.4097182E-002  0.1810435E+03  0.7546771E-02  0.1166852E+00
         21   -1    0    0  503  502  0.00000000000E+00  0.00000000000E+00  0.17309835361E+04  0.17309835361E+04  0.00000000000E+00 0.  1.
         21   -1    0    0  501  503 -0.00000000000E+00 -0.00000000000E+00 -0.24163956397E+02  0.24163956397E+02  0.00000000000E+00 0.  1.
          6    2    1    2  501    0 -0.43959083567E+02  0.33873942690E+02  0.44468176829E+03  0.48012356711E+03  0.17232794210E+03 0.  0.
         24    2    3    3    0    0 -0.44501204268E+02 -0.28424738093E+02  0.36851408800E+03  0.38160948161E+03  0.83873955920E+02 0.  0.
         -6    2    1    2    0  502  0.43959083567E+02 -0.33873942690E+02  0.12621378114E+04  0.12750239253E+04  0.17208808871E+03 0.  0.
        -24    2    5    5    0    0  0.30296039803E+02  0.42175947885E+02  0.87379964691E+03  0.87904553628E+03  0.80613716675E+02 0.  0.
          5    1    3    3  501    0  0.54212070150E+00  0.62298680782E+02  0.76167680282E+02  0.98514085499E+02  0.47000000000E+01 0. -1.
        -15    1    4    4    0    0  0.26872890161E+01  0.25835996379E+02  0.12584857154E+03  0.12851358262E+03  0.17770000000E+01 0.  1.
         16    1    4    4    0    0 -0.47188493285E+02 -0.54260734472E+02  0.24266551647E+03  0.25309589899E+03  0.00000000000E+00 0. -1.
         -5    1    5    5    0  502  0.13663043764E+02 -0.76049890574E+02  0.38833816446E+03  0.39597838905E+03  0.47000000000E+01 0.  1.
         15    1    6    6    0    0 -0.22884723693E+02  0.14076314805E+02  0.12675133517E+03  0.12957975117E+03  0.17770000000E+01 0. -1.
        -16    1    6    6    0    0  0.53180763496E+02  0.28099633080E+02  0.74704831173E+03  0.74946578511E+03  0.00000000000E+00 0.  1.
<mgrwt>
<rscale>  2 0.18098644E+03</rscale>
<asrwt>0</asrwt>
<pdfrwt beam="1">  1       21 0.26630506E+00 0.18104354E+03</pdfrwt>
<pdfrwt beam="2">  1       21 0.37175331E-02 0.18104354E+03</pdfrwt>
<totfact> 0.23908494E+04</totfact>
</mgrwt>
</event>
<event>
12    2  0.4097182E-002  0.1828754E+03  0.7546771E-02  0.1165542E+00
         21   -1    0    0  503  502  0.00000000000E+00  0.00000000000E+00  0.55378597252E+02  0.55378597252E+02  0.00000000000E+00 0. -1.
         21   -1    0    0  501  503 -0.00000000000E+00 -0.00000000000E+00 -0.65859585896E+03  0.65859585896E+03  0.00000000000E+00 0. -1.
          6    2    1    2  501    0 -0.23107544366E+02 -0.48868219863E+02 -0.40914396353E+03  0.44731387420E+03  0.17253654001E+03 0.  0.
         24    2    3    3    0    0 -0.77089507312E+02 -0.58300368338E+02 -0.30235425662E+03  0.32719248039E+03  0.79341651376E+02 0.  0.
         -6    2    1    2    0  502  0.23107544366E+02  0.48868219863E+02 -0.19407329817E+03  0.26666058201E+03  0.17470363309E+03 0.  0.
        -24    2    5    5    0    0 -0.15868638337E+01 -0.37656829003E+02 -0.12662551053E+03  0.15410974045E+03  0.79342531325E+02 0.  0.
          5    1    3    3  501    0  0.53981962946E+02  0.94321484755E+01 -0.10678970691E+03  0.12012139381E+03  0.47000000000E+01 0. -1.
        -15    1    4    4    0    0  0.15923903708E+02 -0.33997437528E+01 -0.29560294151E+02  0.33794935807E+02  0.17770000000E+01 0.  1.
         16    1    4    4    0    0 -0.93013411020E+02 -0.54900624586E+02 -0.27279396247E+03  0.29339754459E+03  0.00000000000E+00 0. -1.
         -5    1    5    5    0  502  0.24694408200E+02  0.86525048865E+02 -0.67447787645E+02  0.11255084156E+03  0.47000000000E+01 0.  1.
         15    1    6    6    0    0  0.24835833329E+02 -0.70310119657E+01 -0.10520398556E+03  0.10833877447E+03  0.17770000000E+01 0. -1.
        -16    1    6    6    0    0 -0.26422697163E+02 -0.30625817037E+02 -0.21421524962E+02  0.45770965975E+02  0.00000000000E+00 0.  1.
<mgrwt>
<rscale>  2 0.18235593E+03</rscale>
<asrwt>0</asrwt>
<pdfrwt beam="1">  1       21 0.85197844E-02 0.18287542E+03</pdfrwt>
<pdfrwt beam="2">  1       21 0.10132244E+00 0.18287542E+03</pdfrwt>
<totfact> 0.85915873E+04</totfact>
</mgrwt>
</event>
<event>
12    2  0.4097182E-002  0.2744344E+03  0.7546771E-02  0.1098956E+00
         21   -1    0    0  503  502  0.00000000000E+00  0.00000000000E+00  0.87097782246E+03  0.87097782246E+03  0.00000000000E+00 0.  1.
         21   -1    0    0  501  503 -0.00000000000E+00 -0.00000000000E+00 -0.28683851249E+03  0.28683851249E+03  0.00000000000E+00 0. -1.
          6    2    1    2  501    0  0.13705850487E+03  0.16318937833E+03 -0.19206650185E+03  0.33496835056E+03  0.17291167626E+03 0.  0.
         24    2    3    3    0    0  0.13764348506E+03  0.16249275101E+03 -0.10988779200E+03  0.25265032189E+03  0.80045207302E+02 0.  0.
         -6    2    1    2    0  502 -0.13705850487E+03 -0.16318937833E+03  0.77620581182E+03  0.82284798439E+03  0.17078505834E+03 0.  0.
        -24    2    5    5    0    0 -0.81302546082E+02 -0.17439124605E+02  0.27534833907E+03  0.29822224978E+03  0.78775474425E+02 0.  0.
          5    1    3    3  501    0 -0.58498019075E+00  0.69662732207E+00 -0.82178709846E+02  0.82318028666E+02  0.47000000000E+01 0. -1.
        -15    1    4    4    0    0  0.26760930512E+02  0.49109862750E+01  0.58398002970E+01  0.27884156515E+02  0.17770000000E+01 0.  1.
         16    1    4    4    0    0  0.11088255455E+03  0.15758176473E+03 -0.11572759230E+03  0.22476616538E+03  0.00000000000E+00 0. -1.
         -5    1    5    5    0  502 -0.55755958789E+02 -0.14575025373E+03  0.50085747275E+03  0.52462573461E+03  0.47000000000E+01 0.  1.
         15    1    6    6    0    0 -0.91819874337E+02 -0.27329699236E+02  0.26026739698E+03  0.27734469067E+03  0.17770000000E+01 0. -1.
        -16    1    6    6    0    0  0.10517328256E+02  0.98905746313E+01  0.15080942092E+02  0.20877559114E+02  0.00000000000E+00 0.  1.
<mgrwt>
<rscale>  2 0.27410009E+03</rscale>
<asrwt>0</asrwt>
<pdfrwt beam="1">  1       21 0.13399659E+00 0.27443443E+03</pdfrwt>
<pdfrwt beam="2">  1       21 0.44129002E-01 0.27443443E+03</pdfrwt>
<totfact> 0.18488940E+03</totfact>
</mgrwt>
</event>
<event>
12    2  0.4097182E-002  0.3845400E+03  0.7546771E-02  0.1049327E+00
         21   -1    0    0  501  502  0.00000000000E+00  0.00000000000E+00  0.71783229820E+03  0.71783229820E+03  0.00000000000E+00 0. -1.
         21   -1    0    0  502  503 -0.00000000000E+00 -0.00000000000E+00 -0.96459450056E+03  0.96459450056E+03  0.00000000000E+00 0.  1.
         -6    2    1    2    0  503 -0.34192293127E+03  0.31666161648E+02 -0.86957419659E+03  0.95080508706E+03  0.17308088711E+03 0.  0.
        -24    2    3    3    0    0 -0.31519495067E+03  0.40349759040E+02 -0.63894245372E+03  0.71841988824E+03  0.83088607365E+02 0.  0.
          6    2    1    2  501    0  0.34192293127E+03 -0.31666161648E+02  0.62281199423E+03  0.73162171170E+03  0.17164356132E+03 0.  0.
         24    2    5    5    0    0  0.13705347069E+03 -0.65276541341E+02  0.34026984884E+03  0.38097472764E+03  0.79457487982E+02 0.  0.
          5    1    5    5  501    0  0.20486946058E+03  0.33610379693E+02  0.28254214540E+03  0.35064698406E+03  0.47000000000E+01 0. -1.
        -15    1    6    6    0    0  0.26353565031E+02  0.34020869864E+01  0.13683761151E+03  0.13940507250E+03  0.17770000000E+01 0.  1.
         16    1    6    6    0    0  0.11069990566E+03 -0.68678628327E+02  0.20343223732E+03  0.24156965514E+03  0.00000000000E+00 0. -1.
         -5    1    3    3    0  503 -0.26727980599E+02 -0.86835973921E+01 -0.23063174287E+03  0.23238519882E+03  0.47000000000E+01 0.  1.
         15    1    4    4    0    0 -0.79540023170E+02  0.43091877847E+02 -0.14118025098E+03  0.16768585575E+03  0.17770000000E+01 0. -1.
        -16    1    4    4    0    0 -0.23565492750E+03 -0.27421188076E+01 -0.49776220274E+03  0.55073403249E+03  0.00000000000E+00 0.  1.
<mgrwt>
<rscale>  2 0.38437872E+03</rscale>
<asrwt>0</asrwt>
<pdfrwt beam="1">  1       21 0.11043574E+00 0.38454002E+03</pdfrwt>
<pdfrwt beam="2">  1       21 0.14839915E+00 0.38454002E+03</pdfrwt>
<totfact> 0.16769221E+02</totfact>
</mgrwt>
</event>
<event>
12    2  0.4097182E-002  0.2080207E+03  0.7546771E-02  0.1143255E+00
         21   -1    0    0  503  502  0.00000000000E+00  0.00000000000E+00  0.44341478654E+02  0.44341478654E+02  0.00000000000E+00 0.  1.
         21   -1    0    0  501  503 -0.00000000000E+00 -0.00000000000E+00 -0.10762488826E+04  0.10762488826E+04  0.00000000000E+00 0.  1.
          6    2    1    2  501    0 -0.76427186708E+02  0.86694373729E+02 -0.68987803607E+03  0.72055833428E+03  0.17296120705E+03 0.  0.
         24    2    3    3    0    0 -0.10838419300E+03  0.46033335961E+02 -0.60090649026E+03  0.61754087844E+03  0.80012031565E+02 0.  0.
         -6    2    1    2    0  502  0.76427186708E+02 -0.86694373729E+02 -0.34202936788E+03  0.40003202698E+03  0.17229191743E+03 0.  0.
        -24    2    5    5    0    0  0.40822746662E+02 -0.69985376612E+02 -0.88007477343E+02  0.14294045262E+03  0.78244535539E+02 0.  0.
          5    1    3    3  501    0  0.31957006295E+02  0.40661037768E+02 -0.88971545808E+02  0.10301745584E+03  0.47000000000E+01 0. -1.
        -15    1    4    4    0    0 -0.11618194439E+03  0.23538934030E+02 -0.50183331071E+03  0.51564731657E+03  0.17770000000E+01 0.  1.
         16    1    4    4    0    0  0.77977513824E+01  0.22494401931E+02 -0.99073179554E+02  0.10189356188E+03  0.00000000000E+00 0. -1.
         -5    1    5    5    0  502  0.35604440047E+02 -0.16708997117E+02 -0.25402189053E+03  0.25709157436E+03  0.47000000000E+01 0.  1.
         15    1    6    6    0    0  0.48717538810E+01 -0.75669348233E+02 -0.53791313597E+02  0.92985199873E+02  0.17770000000E+01 0. -1.
        -16    1    6    6    0    0  0.35950992781E+02  0.56839716208E+01 -0.34216163746E+02  0.49955252745E+02  0.00000000000E+00 0.  1.
<mgrwt>
<rscale>  2 0.20788151E+03</rscale>
<asrwt>0</asrwt>
<pdfrwt beam="1">  1       21 0.68217664E-02 0.20802069E+03</pdfrwt>
<pdfrwt beam="2">  1       21 0.16557674E+00 0.20802069E+03</pdfrwt>
<totfact> 0.35927135E+04</totfact>
</mgrwt>
</event>
<event>
12    2  0.4097182E-002  0.2174428E+03  0.7546771E-02  0.1135825E+00
         21   -1    0    0  503  502  0.00000000000E+00  0.00000000000E+00  0.62485448105E+03  0.62485448105E+03  0.00000000000E+00 0.  1.
         21   -1    0    0  501  503 -0.00000000000E+00 -0.00000000000E+00 -0.14309554422E+03  0.14309554422E+03  0.00000000000E+00 0.  1.
          6    2    1    2  501    0 -0.12502007927E+03 -0.41285289112E+02 -0.22742105553E+02  0.21862887465E+03  0.17305168635E+03 0.  0.
         24    2    3    3    0    0 -0.95489638340E+02 -0.48261809018E+02 -0.71186668360E+02  0.16127310391E+03  0.97437154377E+02 0.  0.
         -6    2    1    2    0  502  0.12502007927E+03  0.41285289112E+02  0.50450104239E+03  0.54932115062E+03  0.17291017734E+03 0.  0.
        -24    2    5    5    0    0  0.40939655256E+02 -0.25040206410E+02  0.14369588208E+03  0.17292901100E+03  0.83383865407E+02 0.  0.
          5    1    3    3  501    0 -0.29530440929E+02  0.69765199062E+01  0.48444562807E+02  0.57355770739E+02  0.47000000000E+01 0. -1.
        -15    1    4    4    0    0 -0.56604341829E+02  0.88947102387E+01 -0.72130913764E+02  0.92136821269E+02  0.17770000000E+01 0.  1.
         16    1    4    4    0    0 -0.38885296511E+02 -0.57156519256E+02  0.94424540380E+00  0.69136282643E+02  0.00000000000E+00 0. -1.
         -5    1    5    5    0  502  0.84080424012E+02  0.66325495521E+02  0.36080516031E+03  0.37639213961E+03  0.47000000000E+01 0.  1.
         15    1    6    6    0    0  0.55897852708E+02 -0.37202605393E+02  0.13689457090E+03  0.15248568804E+03  0.17770000000E+01 0. -1.
        -16    1    6    6    0    0 -0.14958197451E+02  0.12162398983E+02  0.68013111765E+01  0.20443322962E+02  0.00000000000E+00 0.  1.
<mgrwt>
<rscale>  2 0.21741467E+03</rscale>
<asrwt>0</asrwt>
<pdfrwt beam="1">  1       21 0.96131457E-01 0.21744282E+03</pdfrwt>
<pdfrwt beam="2">  1       21 0.22014699E-01 0.21744282E+03</pdfrwt>
<totfact> 0.17104726E+04</totfact>
</mgrwt>
</event>
<event>
12    2  0.4097182E-002  0.2302135E+03  0.7546771E-02  0.1126700E+00
         21   -1    0    0  501  502  0.00000000000E+00  0.00000000000E+00  0.49518271189E+03  0.49518271189E+03  0.00000000000E+00 0.  1.
         21   -1    0    0  502  503 -0.00000000000E+00 -0.00000000000E+00 -0.13386025613E+03  0.13386025613E+03  0.00000000000E+00 0. -1.
         -6    2    1    2    0  503 -0.15033494864E+03  0.21782775140E+02  0.38026794753E+02  0.23215714739E+03  0.17139375102E+03 0.  0.
        -24    2    3    3    0    0 -0.90650609651E+02  0.30618268507E+02 -0.41052751063E+02  0.13257828000E+03  0.82077162247E+02 0.  0.
          6    2    1    2  501    0  0.15033494864E+03 -0.21782775140E+02  0.32329566101E+03  0.39688582063E+03  0.17298319026E+03 0.  0.
         24    2    5    5    0    0  0.16020815978E+03  0.82416273948E+01  0.20137404091E+03  0.27084647561E+03  0.84093579502E+02 0.  0.
          5    1    5    5  501    0 -0.98732111421E+01 -0.30024402535E+02  0.12192162010E+03  0.12603934503E+03  0.47000000000E+01 0. -1.
        -15    1    6    6    0    0  0.95889505758E+02 -0.14870585323E+02  0.16975876430E+03  0.19554315996E+03  0.17770000000E+01 0.  1.
         16    1    6    6    0    0  0.64318654023E+02  0.23112212717E+02  0.31615276612E+02  0.75303315646E+02  0.00000000000E+00 0. -1.
         -5    1    3    3    0  503 -0.59684338987E+02 -0.88354933666E+01  0.79079545816E+02  0.99578867386E+02  0.47000000000E+01 0.  1.
         15    1    4    4    0    0 -0.45386769978E+02  0.57603001682E+02 -0.23144442615E+02  0.76921308132E+02  0.17770000000E+01 0. -1.
        -16    1    4    4    0    0 -0.45263839673E+02 -0.26984733175E+02 -0.17908308449E+02  0.55656971872E+02  0.00000000000E+00 0.  1.
<mgrwt>
<rscale>  2 0.22991497E+03</rscale>
<asrwt>0</asrwt>
<pdfrwt beam="1">  1       21 0.76181955E-01 0.23021353E+03</pdfrwt>
<pdfrwt beam="2">  1       21 0.20593886E-01 0.23021353E+03</pdfrwt>
<totfact> 0.32902642E+04</totfact>
</mgrwt>
</event>
<event>
12    2  0.4097182E-002  0.1833483E+03  0.7546771E-02  0.1164972E+00
         21   -1    0    0  501  502  0.00000000000E+00  0.00000000000E+00  0.76445648474E+03  0.76445648474E+03  0.00000000000E+00 0.  1.
         21   -1    0    0  502  503 -0.00000000000E+00 -0.00000000000E+00 -0.29066800637E+03  0.29066800637E+03  0.00000000000E+00 0.  1.
         -6    2    1    2    0  503 -0.50275589562E+01  0.61583463096E+02 -0.24934090666E+03  0.30949550735E+03  0.17262323731E+03 0.  0.
        -24    2    3    3    0    0  0.59501274319E+02  0.46677561280E+02 -0.11730477423E+03  0.16170583755E+03  0.81664995362E+02 0.  0.
          6    2    1    2  501    0  0.50275589562E+01 -0.61583463096E+02  0.72312938502E+03  0.74562898376E+03  0.17096395722E+03 0.  0.
         24    2    5    5    0    0 -0.32393490270E+02 -0.10651332489E+02  0.60372989064E+03  0.61045226198E+03  0.83662382278E+02 0.  0.
          5    1    5    5  501    0  0.37421049226E+02 -0.50932130607E+02  0.11939949438E+03  0.13517672178E+03  0.47000000000E+01 0. -1.
        -15    1    6    6    0    0 -0.26786567083E+02 -0.37035102381E+02  0.17514594387E+03  0.18102038109E+03  0.17770000000E+01 0.  1.
         16    1    6    6    0    0 -0.56069231867E+01  0.26383769892E+02  0.42858394676E+03  0.42943188089E+03  0.00000000000E+00 0. -1.
         -5    1    3    3    0  503 -0.64528833275E+02  0.14905901815E+02 -0.13203613243E+03  0.14778966980E+03  0.47000000000E+01 0.  1.
         15    1    4    4    0    0  0.57957516313E+02  0.53421324265E+02 -0.48523538938E+02  0.92577552049E+02  0.17770000000E+01 0. -1.
        -16    1    4    4    0    0  0.15437580063E+01 -0.67437629842E+01 -0.68781235288E+02  0.69128285497E+02  0.00000000000E+00 0.  1.
<mgrwt>
<rscale>  2 0.18295666E+03</rscale>
<asrwt>0</asrwt>
<pdfrwt beam="1">  1       21 0.11760869E+00 0.18334825E+03</pdfrwt>
<pdfrwt beam="2">  1       21 0.44718155E-01 0.18334825E+03</pdfrwt>
<totfact> 0.26864710E+03</totfact>
</mgrwt>
</event>
<event>
12    2  0.4097182E-002  0.1807066E+03  0.7546771E-02  0.1167206E+00
         21   -1    0    0  503  502  0.00000000000E+00  0.00000000000E+00  0.22090369008E+03  0.22090369008E+03  0.00000000000E+00 0. -1.
         21   -1    0    0  501  503 -0.00000000000E+00 -0.00000000000E+00 -0.15274970149E+03  0.15274970149E+03  0.00000000000E+00 0. -1.
          6    2    1    2  501    0 -0.53777776601E+01 -0.50369785125E+02 -0.41070976272E+00  0.18070708804E+03  0.17346137103E+03 0.  0.
         24    2    3    3    0    0  0.88338581532E+01 -0.17411420165E+02  0.60449282392E+02  0.10989569730E+03  0.89675826965E+02 0.  0.
         -6    2    1    2    0  502  0.53777776601E+01  0.50369785125E+02  0.68564698355E+02  0.19294630353E+03  0.17309281452E+03 0.  0.
        -24    2    5    5    0    0  0.32907430129E+02 -0.14940802957E+02  0.81803696312E+02  0.12069178293E+03  0.81046500145E+02 0.  0.
          5    1    3    3  501    0 -0.14211635813E+02 -0.32958364960E+02 -0.60859992155E+02  0.70811390739E+02  0.47000000000E+01 0. -1.
        -15    1    4    4    0    0  0.11848281552E+02  0.21507008433E+02 -0.12160416627E+02  0.27458453143E+02  0.17770000000E+01 0.  1.
         16    1    4    4    0    0 -0.30144233987E+01 -0.38918428598E+02  0.72609699019E+02  0.82437244159E+02  0.00000000000E+00 0. -1.
         -5    1    5    5    0  502 -0.27529652468E+02  0.65310588082E+02 -0.13238997956E+02  0.72254520602E+02  0.47000000000E+01 0.  1.
         15    1    6    6    0    0  0.16459191879E+02 -0.29336537712E+02  0.90957186120E+02  0.96994354877E+02  0.17770000000E+01 0. -1.
        -16    1    6    6    0    0  0.16448238249E+02  0.14395734755E+02 -0.91534898079E+01  0.23697428052E+02  0.00000000000E+00 0.  1.
<mgrwt>
<rscale>  2 0.18061812E+03</rscale>
<asrwt>0</asrwt>
<pdfrwt beam="1">  1       21 0.33985183E-01 0.18070662E+03</pdfrwt>
<pdfrwt beam="2">  1       21 0.23499954E-01 0.18070662E+03</pdfrwt>
<totfact> 0.14269835E+05</totfact>
</mgrwt>
</event>
<event>
12    2  0.4097182E-002  0.1781005E+03  0.7546771E-02  0.1169903E+00
         21   -1    0    0  501  502  0.00000000000E+00  0.00000000000E+00  0.27702753403E+03  0.27702753403E+03  0.00000000000E+00 0. -1.
         21   -1    0    0  502  503 -0.00000000000E+00 -0.00000000000E+00 -0.12087538374E+03  0.12087538374E+03  0.00000000000E+00 0. -1.
         -6    2    1    2    0  503  0.27835888410E+01 -0.41812095378E+02  0.12582590067E+03  0.21723891884E+03  0.17205984684E+03 0.  0.
        -24    2    3    3    0    0 -0.24073309846E+02  0.31019551106E+02  0.33374712983E+02  0.96428928192E+02  0.81504171229E+02 0.  0.
          6    2    1    2  501    0 -0.27835888410E+01  0.41812095378E+02  0.30326249622E+02  0.18066399893E+03  0.17310054710E+03 0.  0.
         24    2    5    5    0    0  0.53011312660E+02 -0.11368259203E+02  0.43261937948E+02  0.10236557507E+03  0.75283989642E+02 0.  0.
          5    1    5    5  501    0 -0.55794901501E+02  0.53180354581E+02 -0.12935688326E+02  0.78298423863E+02  0.47000000000E+01 0. -1.
        -15    1    6    6    0    0  0.32676775615E+02  0.31423520281E+02  0.22415198615E+02  0.50604428160E+02  0.17770000000E+01 0.  1.
         16    1    6    6    0    0  0.20334537045E+02 -0.42791779484E+02  0.20846739333E+02  0.51761146907E+02  0.00000000000E+00 0. -1.
         -5    1    3    3    0  503  0.26856898687E+02 -0.72831646484E+02  0.92451187687E+02  0.12080999065E+03  0.47000000000E+01 0.  1.
         15    1    4    4    0    0 -0.23114091523E+02  0.34007777033E+02  0.58268333213E+02  0.71338254184E+02  0.17770000000E+01 0. -1.
        -16    1    4    4    0    0 -0.95921832342E+00 -0.29882259268E+01 -0.24893620230E+02  0.25090674007E+02  0.00000000000E+00 0.  1.
<mgrwt>
<rscale>  2 0.17784716E+03</rscale>
<asrwt>0</asrwt>
<pdfrwt beam="1">  1       21 0.42619620E-01 0.17810053E+03</pdfrwt>
<pdfrwt beam="2">  1       21 0.18596213E-01 0.17810053E+03</pdfrwt>
<totfact> 0.14066025E+05</totfact>
</mgrwt>
</event>
<event>
12    2  0.4097182E-002  0.2043069E+03  0.7546771E-02  0.1149783E+00
         21   -1    0    0  501  502  0.00000000000E+00  0.00000000000E+00  0.56787509671E+03  0.56787509671E+03  0.00000000000E+00 0.  1.
         21   -1    0    0  502  503 -0.00000000000E+00 -0.00000000000E+00 -0.15641615553E+03  0.15641615553E+03  0.00000000000E+00 0. -1.
         -6    2    1    2    0  503  0.76433595571E+02 -0.77391283572E+02 -0.63290592423E+02  0.21388550015E+03  0.17294450781E+03 0.  0.
        -24    2    3    3    0    0 -0.24107805155E+01 -0.95407486136E+02 -0.27036357303E+02  0.12513033828E+03  0.76277366683E+02 0.  0.
          6    2    1    2  501    0 -0.76433595571E+02  0.77391283572E+02  0.47474953361E+03  0.51040575209E+03  0.15262832895E+03 0.  0.
         24    2    5    5    0    0 -0.59244336500E+02 -0.14649275581E+00  0.34690627301E+03  0.35982830801E+03  0.74983572357E+02 0.  0.
          5    1    5    5  501    0 -0.17189259072E+02  0.77537776328E+02  0.12784326060E+03  0.15057744408E+03  0.47000000000E+01 0. -1.
        -15    1    6    6    0    0 -0.68050373004E+02  0.98591305770E+01  0.33489549325E+03  0.34188624548E+03  0.17770000000E+01 0.  1.
         16    1    6    6    0    0  0.88060365047E+01 -0.10005623333E+02  0.12010779754E+02  0.17942062521E+02  0.00000000000E+00 0. -1.
         -5    1    3    3    0  503  0.78844376087E+02  0.18016202563E+02 -0.36254235120E+02  0.88755161875E+02  0.47000000000E+01 0.  1.
         15    1    4    4    0    0 -0.90022943873E+01 -0.83709446518E+01 -0.35331652344E+02  0.37451267068E+02  0.17770000000E+01 0. -1.
        -16    1    4    4    0    0  0.65915138718E+01 -0.87036541484E+02  0.82952950416E+01  0.87679071211E+02  0.00000000000E+00 0.  1.
<mgrwt>
<rscale>  2 0.19994809E+03</rscale>
<asrwt>0</asrwt>
<pdfrwt beam="1">  1       21 0.87365399E-01 0.20430690E+03</pdfrwt>
<pdfrwt beam="2">  1       21 0.24064024E-01 0.20430690E+03</pdfrwt>
<totfact> 0.18194594E+04</totfact>
</mgrwt>
</event>
<event>
12    2  0.4097182E-002  0.1843869E+03  0.7546771E-02  0.1163765E+00
         21   -1    0    0  501  502  0.00000000000E+00  0.00000000000E+00  0.24873759808E+03  0.24873759808E+03  0.00000000000E+00 0. -1.
         21   -1    0    0  502  503 -0.00000000000E+00 -0.00000000000E+00 -0.16016229467E+03  0.16016229467E+03  0.00000000000E+00 0. -1.
         -6    2    1    2    0  503 -0.54971809086E+02 -0.28300323292E+02 -0.34667492990E+02  0.18761764819E+03  0.17371165404E+03 0.  0.
        -24    2    3    3    0    0 -0.16656155470E+02 -0.58831451646E+02 -0.73119394543E+02  0.12516064023E+03  0.81118264197E+02 0.  0.
          6    2    1    2  501    0  0.54971809086E+02  0.28300323292E+02  0.12324279640E+03  0.22128224456E+03  0.17307292335E+03 0.  0.
         24    2    5    5    0    0 -0.69750105944E+01 -0.18647913677E+02  0.11571319210E+03  0.14304970424E+03  0.81714622927E+02 0.  0.
          5    1    5    5  501    0  0.61946819680E+02  0.46948236969E+02  0.75296042995E+01  0.78232540314E+02  0.47000000000E+01 0. -1.
        -15    1    6    6    0    0 -0.37376368617E+02  0.13422448487E+02  0.50378588502E+02  0.64174098847E+02  0.17770000000E+01 0.  1.
         16    1    6    6    0    0  0.30401358023E+02 -0.32070362163E+02  0.65334603600E+02  0.78875605395E+02  0.00000000000E+00 0. -1.
         -5    1    3    3    0  503 -0.38315653616E+02  0.30531128354E+02  0.38451901553E+02  0.62457007962E+02  0.47000000000E+01 0.  1.
         15    1    4    4    0    0 -0.49545802548E+02 -0.31068299725E+02 -0.40565169246E+02  0.71194918940E+02  0.17770000000E+01 0. -1.
        -16    1    4    4    0    0  0.32889647078E+02 -0.27763151921E+02 -0.32554225297E+02  0.53965721288E+02  0.00000000000E+00 0.  1.
<mgrwt>
<rscale>  2 0.18423636E+03</rscale>
<asrwt>0</asrwt>
<pdfrwt beam="1">  1       21 0.38267323E-01 0.18438695E+03</pdfrwt>
<pdfrwt beam="2">  1       21 0.24640353E-01 0.18438695E+03</pdfrwt>
<totfact> 0.10285642E+05</totfact>
</mgrwt>
</event>
<event>
12    2  0.4097182E-002  0.1851605E+03  0.7546771E-02  0.1164877E+00
         21   -1    0    0  503  502  0.00000000000E+00  0.00000000000E+00  0.10066241528E+04  0.10066241528E+04  0.00000000000E+00 0. -1.
         21   -1    0    0  501  503 -0.00000000000E+00 -0.00000000000E+00 -0.33053743324E+02  0.33053743324E+02  0.00000000000E+00 0. -1.
          6    2    1    2  501    0  0.40445884713E+02 -0.53708091649E+02  0.53972727594E+03  0.56797429304E+03  0.16361184696E+03 0.  0.
         24    2    3    3    0    0  0.83782233092E+02 -0.23142330823E+02  0.29638889348E+03  0.31888000727E+03  0.79265710128E+02 0.  0.
         -6    2    1    2    0  502 -0.40445884713E+02  0.53708091649E+02  0.43384313359E+03  0.47170360313E+03  0.17252245056E+03 0.  0.
        -24    2    5    5    0    0 -0.17183637112E+02 -0.32689211832E+02  0.14691956806E+03  0.17111609729E+03  0.79570706408E+02 0.  0.
          5    1    3    3  501    0 -0.43336348380E+02 -0.30565760826E+02  0.24333838246E+03  0.24909428577E+03  0.47000000000E+01 0. -1.
        -15    1    4    4    0    0 -0.12439425353E+02 -0.15907766616E+02  0.67626632746E+02  0.70599685037E+02  0.17770000000E+01 0.  1.
         16    1    4    4    0    0  0.96221658445E+02 -0.72345642069E+01  0.22876226073E+03  0.24828032223E+03  0.00000000000E+00 0. -1.
         -5    1    5    5    0  502 -0.23262247601E+02  0.86397303481E+02  0.28692356553E+03  0.30058750584E+03  0.47000000000E+01 0.  1.
         15    1    6    6    0    0 -0.11541365456E+02 -0.39225964463E+02  0.15437485210E+03  0.15970795877E+03  0.17770000000E+01 0. -1.
        -16    1    6    6    0    0 -0.56422716565E+01  0.65367526307E+01 -0.74552840394E+01  0.11408138521E+02  0.00000000000E+00 0.  1.
<mgrwt>
<rscale>  2 0.18305675E+03</rscale>
<asrwt>0</asrwt>
<pdfrwt beam="1">  1       21 0.15486523E+00 0.18516054E+03</pdfrwt>
<pdfrwt beam="2">  1       21 0.50851920E-02 0.18516054E+03</pdfrwt>
<totfact> 0.72087890E+04</totfact>
</mgrwt>
</event>
<event>
12    2  0.4097182E-002  0.1889409E+03  0.7546771E-02  0.1159825E+00
         21   -1    0    0  503  502  0.00000000000E+00  0.00000000000E+00  0.79993900970E+03  0.79993900970E+03  0.00000000000E+00 0. -1.
         21   -1    0    0  501  503 -0.00000000000E+00 -0.00000000000E+00 -0.69218727503E+02  0.69218727503E+02  0.00000000000E+00 0. -1.
          6    2    1    2  501    0  0.26303510207E+02 -0.73694468332E+02  0.10303989385E+03  0.21365690774E+03  0.17002736600E+03 0.  0.
         24    2    3    3    0    0  0.18478357633E+02 -0.11189740814E+03  0.10477288603E+03  0.17434036053E+03  0.80961250085E+02 0.  0.
         -6    2    1    2    0  502 -0.26303510207E+02  0.73694468332E+02  0.62768038835E+03  0.65550082947E+03  0.17197650477E+03 0.  0.
        -24    2    5    5    0    0 -0.56297386696E+02  0.18532726089E+02  0.20579468013E+03  0.22894240294E+03  0.80934021339E+02 0.  0.
          5    1    3    3  501    0  0.78251525745E+01  0.38202939804E+02 -0.17329921846E+01  0.39316547208E+02  0.47000000000E+01 0. -1.
        -15    1    4    4    0    0 -0.21219863071E+02 -0.92790360873E+02  0.74453390832E+02  0.12085859008E+03  0.17770000000E+01 0.  1.
         16    1    4    4    0    0  0.39698220704E+02 -0.19107047263E+02  0.30319495200E+02  0.53481770458E+02  0.00000000000E+00 0. -1.
         -5    1    5    5    0  502  0.29993876489E+02  0.55161742243E+02  0.42188570822E+03  0.42655842652E+03  0.47000000000E+01 0.  1.
         15    1    6    6    0    0 -0.10966225839E+02 -0.30968471084E+02  0.76119250002E+02  0.82925281189E+02  0.17770000000E+01 0. -1.
        -16    1    6    6    0    0 -0.45331160857E+02  0.49501197173E+02  0.12967543013E+03  0.14601712176E+03  0.00000000000E+00 0.  1.
<mgrwt>
<rscale>  2 0.18849625E+03</rscale>
<asrwt>0</asrwt>
<pdfrwt beam="1">  1       21 0.12306753E+00 0.18894091E+03</pdfrwt>
<pdfrwt beam="2">  1       21 0.10649036E-01 0.18894091E+03</pdfrwt>
<totfact> 0.36080127E+04</totfact>
</mgrwt>
</event>
<event>
12    2  0.4097182E-002  0.1737777E+03  0.7546771E-02  0.1174041E+00
         21   -1    0    0  501  502  0.00000000000E+00  0.00000000000E+00  0.31003524880E+03  0.31003524880E+03  0.00000000000E+00 0. -1.
         21   -1    0    0  502  503 -0.00000000000E+00 -0.00000000000E+00 -0.15258869105E+03  0.15258869105E+03  0.00000000000E+00 0. -1.
         -6    2    1    2    0  503  0.15293491123E+02 -0.54145977760E+01 -0.60552069620E+02  0.18402508387E+03  0.17301869731E+03 0.  0.
        -24    2    3    3    0    0 -0.52543959550E+02  0.22994865008E+02 -0.43008089400E+02  0.10826956571E+03  0.81135513821E+02 0.  0.
          6    2    1    2  501    0 -0.15293491123E+02  0.54145977760E+01  0.21799862737E+03  0.27859885599E+03  0.17271569784E+03 0.  0.
         24    2    5    5    0    0  0.40996586207E+01  0.62104613487E+02  0.81740690459E+02  0.12967549479E+03  0.79122710112E+02 0.  0.
          5    1    5    5  501    0 -0.19393149743E+02 -0.56690015711E+02  0.13625793691E+03  0.14892336119E+03  0.47000000000E+01 0. -1.
        -15    1    6    6    0    0 -0.31322666377E+02  0.38207111018E+02  0.69383871844E+02  0.85194906904E+02  0.17770000000E+01 0.  1.
         16    1    6    6    0    0  0.35422324998E+02  0.23897502469E+02  0.12356818615E+02  0.44480587887E+02  0.00000000000E+00 0. -1.
         -5    1    3    3    0  503  0.67837450673E+02 -0.28409462784E+02 -0.17543980220E+02  0.75755518159E+02  0.47000000000E+01 0.  1.
         15    1    4    4    0    0 -0.44019922567E+02  0.39574410657E+01 -0.64571120381E+02  0.78268782020E+02  0.17770000000E+01 0. -1.
        -16    1    4    4    0    0 -0.85240369836E+01  0.19037423942E+02  0.21563030981E+02  0.30000783689E+02  0.00000000000E+00 0.  1.
<mgrwt>
<rscale>  2 0.17370220E+03</rscale>
<asrwt>0</asrwt>
<pdfrwt beam="1">  1       21 0.47697730E-01 0.17377767E+03</pdfrwt>
<pdfrwt beam="2">  1       21 0.23475183E-01 0.17377767E+03</pdfrwt>
<totfact> 0.72334086E+04</totfact>
</mgrwt>
</event>
<event>
12    2  0.4097182E-002  0.2036236E+03  0.7546771E-02  0.1146813E+00
         21   -1    0    0  503  502  0.00000000000E+00  0.00000000000E+00  0.27911959409E+03  0.27911959409E+03  0.00000000000E+00 0. -1.
         21   -1    0    0  501  503 -0.00000000000E+00 -0.00000000000E+00 -0.17896355246E+03  0.17896355246E+03  0.00000000000E+00 0. -1.
          6    2    1    2  501    0 -0.12906996776E+02 -0.10568383795E+03 -0.44824023592E+02  0.20849884342E+03  0.17357105302E+03 0.  0.
         24    2    3    3    0    0  0.40442370404E+02 -0.11693802948E+03 -0.14198846728E+02  0.14578677709E+03  0.75776573318E+02 0.  0.
         -6    2    1    2    0  502  0.12906996776E+02  0.10568383795E+03  0.14498006522E+03  0.24958430312E+03  0.17302439390E+03 0.  0.
        -24    2    5    5    0    0 -0.34036731321E+02  0.41307098513E+02  0.13973323798E+03  0.16959869577E+03  0.79834606168E+02 0.  0.
          5    1    3    3  501    0 -0.53349367181E+02  0.11254191530E+02 -0.30625176864E+02  0.62712066331E+02  0.47000000000E+01 0. -1.
        -15    1    4    4    0    0  0.69606271589E+01 -0.16117136925E+02 -0.33452467087E+02  0.37821127909E+02  0.17770000000E+01 0.  1.
         16    1    4    4    0    0  0.33481743245E+02 -0.10082089256E+03  0.19253620359E+02  0.10796564918E+03  0.00000000000E+00 0. -1.
         -5    1    5    5    0  502  0.46943728098E+02  0.64376739439E+02  0.52468272392E+01  0.79985607359E+02  0.47000000000E+01 0.  1.
         15    1    6    6    0    0 -0.15409360627E+02  0.46314081233E+02  0.28177500006E+02  0.56387691484E+02  0.17770000000E+01 0. -1.
        -16    1    6    6    0    0 -0.18627370694E+02 -0.50069827201E+01  0.11155573798E+03  0.11321100428E+03  0.00000000000E+00 0.  1.
<mgrwt>
<rscale>  2 0.20350707E+03</rscale>
<asrwt>0</asrwt>
<pdfrwt beam="1">  1       21 0.42941476E-01 0.20362361E+03</pdfrwt>
<pdfrwt beam="2">  1       21 0.27532854E-01 0.20362361E+03</pdfrwt>
<totfact> 0.65313401E+04</totfact>
</mgrwt>
</event>
<event>
12    2  0.4097182E-002  0.2068708E+03  0.7546771E-02  0.1144537E+00
         21   -1    0    0  503  502  0.00000000000E+00  0.00000000000E+00  0.16394442231E+03  0.16394442231E+03  0.00000000000E+00 0. -1.
         21   -1    0    0  501  503 -0.00000000000E+00 -0.00000000000E+00 -0.25913057204E+03  0.25913057204E+03  0.00000000000E+00 0.  1.
          6    2    1    2  501    0  0.70838154300E+02  0.87284216778E+02 -0.60464779815E+02  0.21331061034E+03  0.17090596327E+03 0.  0.
         24    2    3    3    0    0 -0.15131059244E+02  0.46066399127E+02 -0.67279462418E+02  0.11761241773E+03  0.83397198150E+02 0.  0.
         -6    2    1    2    0  502 -0.70838154300E+02 -0.87284216778E+02 -0.34721369914E+02  0.20976438401E+03  0.17366330835E+03 0.  0.
        -24    2    5    5    0    0 -0.49302283835E+02 -0.90474774017E+02  0.36563258167E+02  0.13508130981E+03  0.79332770573E+02 0.  0.
          5    1    3    3  501    0  0.85969213544E+02  0.41217817651E+02  0.68146826032E+01  0.95698192608E+02  0.47000000000E+01 0. -1.
        -15    1    4    4    0    0  0.41911619210E+01 -0.10094412160E+02  0.13429453333E+02  0.17406060465E+02  0.17770000000E+01 0.  1.
         16    1    4    4    0    0 -0.19322221165E+02  0.56160811287E+02 -0.80708915751E+02  0.10020635727E+03  0.00000000000E+00 0. -1.
         -5    1    5    5    0  502 -0.21535870466E+02  0.31905572388E+01 -0.71284628080E+02  0.74683074205E+02  0.47000000000E+01 0.  1.
         15    1    6    6    0    0 -0.33733702033E+02 -0.37258837036E+00  0.26804486194E+02  0.43124699235E+02  0.17770000000E+01 0. -1.
        -16    1    6    6    0    0 -0.15568581801E+02 -0.90102185647E+02  0.97587719727E+01  0.91956610573E+02  0.00000000000E+00 0.  1.
<mgrwt>
<rscale>  2 0.20629105E+03</rscale>
<asrwt>0</asrwt>
<pdfrwt beam="1">  1       21 0.25222219E-01 0.20687079E+03</pdfrwt>
<pdfrwt beam="2">  1       21 0.39866242E-01 0.20687079E+03</pdfrwt>
<totfact> 0.89786021E+04</totfact>
</mgrwt>
</event>
<event>
12    2  0.4097182E-002  0.1751279E+03  0.7546771E-02  0.1173004E+00
         21   -1    0    0  501  502  0.00000000000E+00  0.00000000000E+00  0.79839479179E+03  0.79839479179E+03  0.00000000000E+00 0. -1.
         21   -1    0    0  502  503 -0.00000000000E+00 -0.00000000000E+00 -0.84109998493E+02  0.84109998493E+02  0.00000000000E+00 0. -1.
         -6    2    1    2    0  503  0.17736543414E+02  0.15589823776E+02  0.31407813899E+02  0.17792197376E+03  0.17352852905E+03 0.  0.
        -24    2    3    3    0    0  0.44701223231E+01 -0.24021658626E-01 -0.49169971158E+02  0.94647370535E+02  0.80749341266E+02 0.  0.
          6    2    1    2  501    0 -0.17736543414E+02 -0.15589823776E+02  0.68287697940E+03  0.70458281652E+03  0.17192541629E+03 0.  0.
         24    2    5    5    0    0 -0.75418675844E+02  0.37050137313E+01  0.40573018035E+03  0.42080128544E+03  0.82189043033E+02 0.  0.
          5    1    5    5  501    0  0.57682132430E+02 -0.19294837507E+02  0.27714679905E+03  0.28378153108E+03  0.47000000000E+01 0. -1.
        -15    1    6    6    0    0 -0.90345262563E+02 -0.57980542562E+01  0.37014351899E+03  0.38105808781E+03  0.17770000000E+01 0.  1.
         16    1    6    6    0    0  0.14926586719E+02  0.95030679875E+01  0.35586661354E+02  0.39743197639E+02  0.00000000000E+00 0. -1.
         -5    1    3    3    0  503  0.13266421091E+02  0.15613845435E+02  0.80577785057E+02  0.83274603227E+02  0.47000000000E+01 0.  1.
         15    1    4    4    0    0  0.31664463915E+02 -0.15253376006E+02 -0.52604299477E+02  0.63290392692E+02  0.17770000000E+01 0. -1.
        -16    1    4    4    0    0 -0.27194341592E+02  0.15229354348E+02  0.34343283189E+01  0.31356977843E+02  0.00000000000E+00 0.  1.
<mgrwt>
<rscale>  2 0.17472945E+03</rscale>
<asrwt>0</asrwt>
<pdfrwt beam="1">  1       21 0.12282996E+00 0.17512789E+03</pdfrwt>
<pdfrwt beam="2">  1       21 0.12940000E-01 0.17512789E+03</pdfrwt>
<totfact> 0.25820345E+04</totfact>
</mgrwt>
</event>
<event>
12    2  0.4097182E-002  0.2350128E+03  0.7546771E-02  0.1123288E+00
         21   -1    0    0  501  502  0.00000000000E+00  0.00000000000E+00  0.10757486759E+03  0.10757486759E+03  0.00000000000E+00 0. -1.
         21   -1    0    0  502  503 -0.00000000000E+00 -0.00000000000E+00 -0.51561445307E+03  0.51561445307E+03  0.00000000000E+00 0.  1.
         -6    2    1    2    0  503  0.15896635533E+03 -0.94028507868E+01 -0.23114954951E+03  0.32963785115E+03  0.17283600013E+03 0.  0.
        -24    2    3    3    0    0  0.18269714034E+03 -0.18046800806E+02 -0.16819358767E+03  0.26164218099E+03  0.80396615796E+02 0.  0.
          6    2    1    2  501    0 -0.15896635533E+03  0.94028507868E+01 -0.17689003597E+03  0.29355146951E+03  0.17182451716E+03 0.  0.
         24    2    5    5    0    0 -0.55175442450E+02  0.31510311931E+02 -0.15367768628E+03  0.18482154441E+03  0.80653225663E+02 0.  0.
          5    1    5    5  501    0 -0.10379091288E+03 -0.22107461144E+02 -0.23212349687E+02  0.10872992510E+03  0.47000000000E+01 0. -1.
        -15    1    6    6    0    0 -0.76010653949E+02  0.30100638050E+02 -0.12095892593E+03  0.14600646361E+03  0.17770000000E+01 0.  1.
         16    1    6    6    0    0  0.20835211498E+02  0.14096738807E+01 -0.32718760352E+02  0.38815080801E+02  0.00000000000E+00 0. -1.
         -5    1    3    3    0  503 -0.23730785010E+02  0.86439500190E+01 -0.62955961839E+02  0.67995670158E+02  0.47000000000E+01 0.  1.
         15    1    4    4    0    0  0.94439098715E+01 -0.21763025512E+02 -0.65799281256E+01  0.24683393126E+02  0.17770000000E+01 0. -1.
        -16    1    4    4    0    0  0.17325323047E+03  0.37162247062E+01 -0.16161365954E+03  0.23695878786E+03  0.00000000000E+00 0.  1.
<mgrwt>
<rscale>  2 0.23482682E+03</rscale>
<asrwt>0</asrwt>
<pdfrwt beam="1">  1       21 0.16549979E-01 0.23501276E+03</pdfrwt>
<pdfrwt beam="2">  1       21 0.79325303E-01 0.23501276E+03</pdfrwt>
<totfact> 0.45018020E+04</totfact>
</mgrwt>
</event>
<event>
12    2  0.4097182E-002  0.2072983E+03  0.7546771E-02  0.1143791E+00
         21   -1    0    0  503  502  0.00000000000E+00  0.00000000000E+00  0.37660660603E+03  0.37660660603E+03  0.00000000000E+00 0. -1.
         21   -1    0    0  501  503 -0.00000000000E+00 -0.00000000000E+00 -0.12899446730E+03  0.12899446730E+03  0.00000000000E+00 0. -1.
          6    2    1    2  501    0  0.88699325695E+02 -0.69985955470E+02  0.37473626295E+02  0.21065814707E+03  0.17380154751E+03 0.  0.
         24    2    3    3    0    0  0.35471591249E+02 -0.42636171958E+01  0.77334928558E+02  0.11704388063E+03  0.80263108588E+02 0.  0.
         -6    2    1    2    0  502 -0.88699325695E+02  0.69985955470E+02  0.21013851244E+03  0.29494292626E+03  0.17339991638E+03 0.  0.
        -24    2    5    5    0    0 -0.11033787712E+03  0.39258785338E+02  0.21239381143E+03  0.25700136243E+03  0.84987468503E+02 0.  0.
          5    1    3    3  501    0  0.53227734446E+02 -0.65722338275E+02 -0.39861302263E+02  0.93614266437E+02  0.47000000000E+01 0. -1.
        -15    1    4    4    0    0  0.13876118686E+02 -0.41842988958E+02  0.44539118425E+02  0.62691890973E+02  0.17770000000E+01 0.  1.
         16    1    4    4    0    0  0.21595472563E+02  0.37579371762E+02  0.32795810133E+02  0.54351989656E+02  0.00000000000E+00 0. -1.
         -5    1    5    5    0  502  0.21638551428E+02  0.30727170132E+02 -0.22552989947E+01  0.37941563829E+02  0.47000000000E+01 0.  1.
         15    1    6    6    0    0 -0.49037848036E+02 -0.22521617503E+02  0.11059415918E+03  0.12306973458E+03  0.17770000000E+01 0. -1.
        -16    1    6    6    0    0 -0.61300029086E+02  0.61780402841E+02  0.10179965225E+03  0.13393162786E+03  0.00000000000E+00 0.  1.
<mgrwt>
<rscale>  2 0.20721409E+03</rscale>
<asrwt>0</asrwt>
<pdfrwt beam="1">  1       21 0.57939478E-01 0.20729829E+03</pdfrwt>
<pdfrwt beam="2">  1       21 0.19845303E-01 0.20729829E+03</pdfrwt>
<totfact> 0.64965011E+04</totfact>
</mgrwt>
</event>
<event>
12    2  0.4097182E-002  0.2443353E+03  0.7546771E-02  0.1117086E+00
         21   -1    0    0  501  502  0.00000000000E+00  0.00000000000E+00  0.18409701684E+03  0.18409701684E+03  0.00000000000E+00 0.  1.
         21   -1    0    0  502  503 -0.00000000000E+00 -0.00000000000E+00 -0.45686807556E+03  0.45686807556E+03  0.00000000000E+00 0.  1.
         -6    2    1    2    0  503  0.10633366926E+03 -0.13471178448E+03 -0.30998987224E+03  0.39470680852E+03  0.17391270714E+03 0.  0.
        -24    2    3    3    0    0  0.48496819465E+02  0.16570183884E+01 -0.10032898660E+03  0.13795531669E+03  0.81308527489E+02 0.  0.
          6    2    1    2  501    0 -0.10633366926E+03  0.13471178448E+03  0.37218813522E+02  0.24625828388E+03  0.17263773691E+03 0.  0.
         24    2    5    5    0    0 -0.77892755572E+02  0.16601111265E+03  0.35383521217E+02  0.20366730111E+03  0.81249031218E+02 0.  0.
          5    1    5    5  501    0 -0.28440913684E+02 -0.31299328174E+02  0.18352923046E+01  0.42590982768E+02  0.47000000000E+01 0. -1.
        -15    1    6    6    0    0 -0.70350896726E+02  0.66318736694E+02 -0.25592341473E+01  0.96732264086E+02  0.17770000000E+01 0.  1.
         16    1    6    6    0    0 -0.75418588461E+01  0.99692375958E+02  0.37942755364E+02  0.10693503703E+03  0.00000000000E+00 0. -1.
         -5    1    3    3    0  503  0.57836849790E+02 -0.13636880287E+03 -0.20966088564E+03  0.25675149183E+03  0.47000000000E+01 0.  1.
         15    1    4    4    0    0  0.12376415611E+00  0.18413629393E+01  0.13780155243E+02  0.14016288473E+02  0.17770000000E+01 0. -1.
        -16    1    4    4    0    0  0.48373055309E+02 -0.18434455084E+00 -0.11410914184E+03  0.12393902821E+03  0.00000000000E+00 0.  1.
<mgrwt>
<rscale>  2 0.24410853E+03</rscale>
<asrwt>0</asrwt>
<pdfrwt beam="1">  1       21 0.28322618E-01 0.24433531E+03</pdfrwt>
<pdfrwt beam="2">  1       21 0.70287396E-01 0.24433531E+03</pdfrwt>
<totfact> 0.21269089E+04</totfact>
</mgrwt>
</event>
<event>
12    2  0.4097182E-002  0.1920504E+03  0.7546771E-02  0.1157044E+00
         21   -1    0    0  503  502  0.00000000000E+00  0.00000000000E+00  0.48021221189E+03  0.48021221189E+03  0.00000000000E+00 0.  1.
         21   -1    0    0  501  503 -0.00000000000E+00 -0.00000000000E+00 -0.90841877325E+02  0.90841877325E+02  0.00000000000E+00 0.  1.
          6    2    1    2  501    0 -0.43409906343E+02  0.73734798188E+02  0.80302741196E+02  0.20816317053E+03  0.17193642688E+03 0.  0.
         24    2    3    3    0    0 -0.57287783001E+02  0.64518521961E+02 -0.93950763642E+01  0.11681042737E+03  0.78178505518E+02 0.  0.
         -6    2    1    2    0  502  0.43409906343E+02 -0.73734798188E+02  0.30906759337E+03  0.36289091869E+03  0.16984051684E+03 0.  0.
        -24    2    5    5    0    0  0.38686005213E+02 -0.12102300304E+02  0.28098261984E+03  0.29483406176E+03  0.79579008819E+02 0.  0.
          5    1    3    3  501    0  0.13877876658E+02  0.92162762272E+01  0.89697817560E+02  0.91352743161E+02  0.47000000000E+01 0. -1.
        -15    1    4    4    0    0 -0.72892226964E+02  0.33842054924E+02 -0.15473615892E+02  0.81860564077E+02  0.17770000000E+01 0.  1.
         16    1    4    4    0    0  0.15604443964E+02  0.30676467037E+02  0.60785395276E+01  0.34949863291E+02  0.00000000000E+00 0. -1.
         -5    1    5    5    0  502  0.47239011304E+01 -0.61632497884E+02  0.28084973524E+02  0.68056856930E+02  0.47000000000E+01 0.  1.
         15    1    6    6    0    0 -0.15351475320E+02 -0.19500899452E+00  0.10345629982E+02  0.18598269052E+02  0.17770000000E+01 0. -1.
        -16    1    6    6    0    0  0.54037480533E+02 -0.11907291310E+02  0.27063698986E+03  0.27623579270E+03  0.00000000000E+00 0.  1.
<mgrwt>
<rscale>  2 0.19158020E+03</rscale>
<asrwt>0</asrwt>
<pdfrwt beam="1">  1       21 0.73878800E-01 0.19205045E+03</pdfrwt>
<pdfrwt beam="2">  1       21 0.13975674E-01 0.19205045E+03</pdfrwt>
<totfact> 0.73362222E+04</totfact>
</mgrwt>
</event>
<event>
12    2  0.4097182E-002  0.2424518E+03  0.7546771E-02  0.1118227E+00
         21   -1    0    0  501  502  0.00000000000E+00  0.00000000000E+00  0.27191819297E+03  0.27191819297E+03  0.00000000000E+00 0. -1.
         21   -1    0    0  502  503 -0.00000000000E+00 -0.00000000000E+00 -0.27769433482E+03  0.27769433482E+03  0.00000000000E+00 0.  1.
         -6    2    1    2    0  503  0.11526458144E+03  0.12440998294E+03 -0.13255610575E+03  0.27632223243E+03  0.17326017250E+03 0.  0.
        -24    2    3    3    0    0  0.12209860037E+03  0.60174268226E+02 -0.39307441119E+02  0.16278662429E+03  0.80158588771E+02 0.  0.
          6    2    1    2  501    0 -0.11526458144E+03 -0.12440998294E+03  0.12677996390E+03  0.27329029536E+03  0.17277343169E+03 0.  0.
         24    2    5    5    0    0 -0.89993142694E+02 -0.20872107662E+02  0.11248029794E+03  0.16565522821E+03  0.79091254872E+02 0.  0.
          5    1    5    5  501    0 -0.25271438742E+02 -0.10353787528E+03  0.14299665961E+02  0.10763506715E+03  0.47000000000E+01 0. -1.
        -15    1    6    6    0    0 -0.53797610663E+02 -0.15966261837E+02  0.10220474660E+02  0.57067681409E+02  0.17770000000E+01 0.  1.
         16    1    6    6    0    0 -0.36195532031E+02 -0.49058458249E+01  0.10225982328E+03  0.10858754680E+03  0.00000000000E+00 0. -1.
         -5    1    3    3    0  503 -0.68340189289E+01  0.64235714718E+02 -0.93248664632E+02  0.11353560814E+03  0.47000000000E+01 0.  1.
         15    1    4    4    0    0  0.76243351293E+01 -0.61611645702E+00  0.19076776125E+02  0.20629861899E+02  0.17770000000E+01 0. -1.
        -16    1    4    4    0    0  0.11447426524E+03  0.60790384683E+02 -0.58384217244E+02  0.14215676239E+03  0.00000000000E+00 0.  1.
<mgrwt>
<rscale>  2 0.24236481E+03</rscale>
<asrwt>0</asrwt>
<pdfrwt beam="1">  1       21 0.41833568E-01 0.24245176E+03</pdfrwt>
<pdfrwt beam="2">  1       21 0.42722205E-01 0.24245176E+03</pdfrwt>
<totfact> 0.28254027E+04</totfact>
</mgrwt>
</event>
<event>
12    2  0.4097182E-002  0.2082121E+03  0.7546771E-02  0.1143125E+00
         21   -1    0    0  501  502  0.00000000000E+00  0.00000000000E+00  0.46548996847E+03  0.46548996847E+03  0.00000000000E+00 0. -1.
         21   -1    0    0  502  503 -0.00000000000E+00 -0.00000000000E+00 -0.95611248864E+02  0.95611248864E+02  0.00000000000E+00 0.  1.
         -6    2    1    2    0  503  0.94219005822E+02  0.64504571412E+02  0.13739686038E+03  0.24945978312E+03  0.17410980834E+03 0.  0.
        -24    2    3    3    0    0 -0.39127261713E+01 -0.47063337461E+01  0.11396531528E+03  0.12702158025E+03  0.55757777566E+02 0.  0.
          6    2    1    2  501    0 -0.94219005822E+02 -0.64504571412E+02  0.23248185923E+03  0.31164143421E+03  0.17330466773E+03 0.  0.
         24    2    5    5    0    0 -0.45951094293E+02 -0.10751926307E+03  0.17334106937E+03  0.22389305527E+03  0.80056722837E+02 0.  0.
          5    1    5    5  501    0 -0.48267911529E+02  0.43014691656E+02  0.59140789856E+02  0.87748378939E+02  0.47000000000E+01 0. -1.
        -15    1    6    6    0    0 -0.24946576713E+02 -0.33956749045E+02  0.97316650544E+01  0.43281122087E+02  0.17770000000E+01 0.  1.
         16    1    6    6    0    0 -0.21004517580E+02 -0.73562514024E+02  0.16360940432E+03  0.18061193319E+03  0.00000000000E+00 0. -1.
         -5    1    3    3    0  503  0.98131731994E+02  0.69210905158E+02  0.23431545101E+02  0.12243820287E+03  0.47000000000E+01 0.  1.
         15    1    4    4    0    0  0.19131422050E+02 -0.13965681884E+02  0.24301355430E+02  0.33981836103E+02  0.17770000000E+01 0. -1.
        -16    1    4    4    0    0 -0.23044148222E+02  0.92593481383E+01  0.89663959847E+02  0.93039744146E+02  0.00000000000E+00 0.  1.
<mgrwt>
<rscale>  2 0.20804371E+03</rscale>
<asrwt>0</asrwt>
<pdfrwt beam="1">  1       21 0.71613840E-01 0.20821212E+03</pdfrwt>
<pdfrwt beam="2">  1       21 0.14709423E-01 0.20821212E+03</pdfrwt>
<totfact> 0.71120123E+04</totfact>
</mgrwt>
</event>
<event>
12    2  0.4097182E-002  0.1920828E+03  0.7546771E-02  0.1156878E+00
         21   -1    0    0  501  502  0.00000000000E+00  0.00000000000E+00  0.13995181143E+03  0.13995181143E+03  0.00000000000E+00 0. -1.
         21   -1    0    0  502  503 -0.00000000000E+00 -0.00000000000E+00 -0.96334985807E+03  0.96334985807E+03  0.00000000000E+00 0. -1.
         -6    2    1    2    0  503 -0.80397850552E+02  0.38254182295E+01 -0.88279675986E+03  0.90345222050E+03  0.17440569749E+03 0.  0.
        -24    2    3    3    0    0 -0.24270470882E+02 -0.54324038066E+02 -0.33099328313E+03  0.34574189341E+03  0.80254261653E+02 0.  0.
          6    2    1    2  501    0  0.80397850552E+02 -0.38254182295E+01  0.59398713214E+02  0.19984944900E+03  0.17301198495E+03 0.  0.
         24    2    5    5    0    0  0.87832204582E+02  0.38351356587E+02  0.84366943513E+02  0.15005333993E+03  0.78821957306E+02 0.  0.
          5    1    5    5  501    0 -0.74343540302E+01 -0.42176774817E+02 -0.24968230299E+02  0.49796109065E+02  0.47000000000E+01 0. -1.
        -15    1    6    6    0    0 -0.24554220187E+01  0.30656151751E+02  0.87282841726E+01  0.32018266834E+02  0.17770000000E+01 0.  1.
         16    1    6    6    0    0  0.90287626601E+02  0.76952048361E+01  0.75638659341E+02  0.11803507310E+03  0.00000000000E+00 0. -1.
         -5    1    3    3    0  503 -0.56127379670E+02  0.58149456295E+02 -0.55180347673E+03  0.55771032709E+03  0.47000000000E+01 0.  1.
         15    1    4    4    0    0 -0.34882661204E+02 -0.49687796205E+02 -0.32827523594E+03  0.33384646981E+03  0.17770000000E+01 0. -1.
        -16    1    4    4    0    0  0.10612190322E+02 -0.46362418601E+01 -0.27180471850E+01  0.11895423595E+02  0.00000000000E+00 0.  1.
<mgrwt>
<rscale>  2 0.19176586E+03</rscale>
<asrwt>0</asrwt>
<pdfrwt beam="1">  1       21 0.21531047E-01 0.19208278E+03</pdfrwt>
<pdfrwt beam="2">  1       21 0.14820767E+00 0.19208278E+03</pdfrwt>
<totfact> 0.62046025E+03</totfact>
</mgrwt>
</event>
<event>
12    2  0.4097182E-002  0.1968741E+03  0.7546771E-02  0.1152580E+00
         21   -1    0    0  501  502  0.00000000000E+00  0.00000000000E+00  0.19523475096E+03  0.19523475096E+03  0.00000000000E+00 0.  1.
         21   -1    0    0  502  503 -0.00000000000E+00 -0.00000000000E+00 -0.24505360611E+03  0.24505360611E+03  0.00000000000E+00 0. -1.
         -6    2    1    2    0  503 -0.42885786327E+02 -0.81980590532E+02 -0.12172080165E+03  0.23146356918E+03  0.17377981013E+03 0.  0.
        -24    2    3    3    0    0 -0.88484754834E+02 -0.77424972997E+02 -0.64066262599E+02  0.15766549702E+03  0.83245087942E+02 0.  0.
          6    2    1    2  501    0  0.42885786327E+02  0.81980590532E+02  0.71901946499E+02  0.20882478790E+03  0.17285223238E+03 0.  0.
         24    2    5    5    0    0 -0.38810457566E+01  0.10958724533E+03  0.72680124413E+02  0.15430910636E+03  0.80650312874E+02 0.  0.
          5    1    5    5  501    0  0.46766832084E+02 -0.27606654798E+02 -0.77817791357E+00  0.54515681535E+02  0.47000000000E+01 0. -1.
        -15    1    6    6    0    0  0.31986215230E+02  0.32683372474E+02  0.47118735915E+02  0.65686024421E+02  0.17770000000E+01 0.  1.
         16    1    6    6    0    0 -0.35867260986E+02  0.76903872856E+02  0.25561388498E+02  0.88623081942E+02  0.00000000000E+00 0. -1.
         -5    1    3    3    0  503  0.45598968507E+02 -0.45556175348E+01 -0.57654539053E+02  0.73798072152E+02  0.47000000000E+01 0.  1.
         15    1    4    4    0    0 -0.52003611736E+02  0.53876784717E+01 -0.33641450874E+02  0.62195720583E+02  0.17770000000E+01 0. -1.
        -16    1    4    4    0    0 -0.36481143098E+02 -0.82812651469E+02 -0.30424811724E+02  0.95469776440E+02  0.00000000000E+00 0.  1.
<mgrwt>
<rscale>  2 0.19666926E+03</rscale>
<asrwt>0</asrwt>
<pdfrwt beam="1">  1       21 0.30036116E-01 0.19687415E+03</pdfrwt>
<pdfrwt beam="2">  1       21 0.37700555E-01 0.19687415E+03</pdfrwt>
<totfact> 0.72003786E+04</totfact>
</mgrwt>
</event>
<event>
11    2  0.4097182E-002  0.2373262E+03  0.7546771E-02  0.1121697E+00
         21   -1    0    0  503  502  0.00000000000E+00  0.00000000000E+00  0.38622115432E+03  0.38622115432E+03  0.00000000000E+00 0. -1.
         21   -1    0    0  501  503 -0.00000000000E+00 -0.00000000000E+00 -0.15355347165E+03  0.15355347165E+03  0.00000000000E+00 0. -1.
          6    2    1    2  501    0  0.12674844560E+03  0.10062493832E+03  0.54120573566E+02  0.24278505653E+03  0.17269916189E+03 0.  0.
         24    2    3    3    0    0  0.13137554395E+03  0.11255400045E+03  0.44912550358E+01  0.19131786484E+03  0.81574612907E+02 0.  0.
         -6    2    1    2    0  502 -0.12674844560E+03 -0.10062493832E+03  0.17854710911E+03  0.29698956944E+03  0.17358913420E+03 0.  0.
          5    1    3    3  501    0 -0.46270983505E+01 -0.11929062131E+02  0.49629318531E+02  0.51467191688E+02  0.47000000000E+01 0. -1.
        -15    1    4    4    0    0  0.32762159473E+02 -0.18835954795E+01  0.21539818164E+02  0.39294128325E+02  0.17770000000E+01 0.  1.
         16    1    4    4    0    0  0.98613384475E+02  0.11443759593E+03 -0.17048563128E+02  0.15202373652E+03  0.00000000000E+00 0. -1.
         -5    1    5    5    0  502 -0.15398404930E+00 -0.40311459966E+02  0.74333529260E+01  0.41259935184E+02  0.47000000000E+01 0.  1.
         15    1    5    5    0    0  0.20633015071E+02 -0.22058960687E+02  0.60512324968E+02  0.67655142152E+02  0.17770000000E+01 0. -1.
        -16    1    5    5    0    0 -0.14722747662E+03 -0.38254517670E+02  0.11060143121E+03  0.18807449210E+03  0.00000000000E+00 0.  1.
<mgrwt>
<rscale>  2 0.23716351E+03</rscale>
<asrwt>0</asrwt>
<pdfrwt beam="1">  1       21 0.59418639E-01 0.23732622E+03</pdfrwt>
<pdfrwt beam="2">  1       21 0.23623611E-01 0.23732622E+03</pdfrwt>
<totfact> 0.43702257E+04</totfact>
</mgrwt>
</event>
<event>
12    2  0.4097182E-002  0.1763346E+03  0.7546771E-02  0.1171858E+00
         21   -1    0    0  501  502  0.00000000000E+00  0.00000000000E+00  0.11341588867E+03  0.11341588867E+03  0.00000000000E+00 0. -1.
         21   -1    0    0  502  503 -0.00000000000E+00 -0.00000000000E+00 -0.36038896831E+03  0.36038896831E+03  0.00000000000E+00 0. -1.
         -6    2    1    2    0  503 -0.15704385279E+02  0.21458957719E+02 -0.24077901618E+03  0.29736145885E+03  0.17245923575E+03 0.  0.
        -24    2    3    3    0    0  0.22657910765E+02 -0.19995694098E+02 -0.22081190187E+03  0.23727044814E+03  0.81401233705E+02 0.  0.
          6    2    1    2  501    0  0.15704385279E+02 -0.21458957719E+02 -0.61940634516E+01  0.17644339813E+03  0.17431807634E+03 0.  0.
         24    2    5    5    0    0  0.11552884277E+02 -0.79316159569E+02  0.15101672484E+02  0.11447333168E+03  0.80321608862E+02 0.  0.
          5    1    5    5  501    0  0.41515010019E+01  0.57857201851E+02 -0.21295735935E+02  0.61970066448E+02  0.47000000000E+01 0. -1.
        -15    1    6    6    0    0 -0.37198331693E+01 -0.20484835986E+02 -0.31557163789E+02  0.37848090831E+02  0.17770000000E+01 0.  1.
         16    1    6    6    0    0  0.15272717446E+02 -0.58831323584E+02  0.46658836273E+02  0.76625240849E+02  0.00000000000E+00 0. -1.
         -5    1    3    3    0  503 -0.38362296044E+02  0.41454651817E+02 -0.19967114313E+02  0.60091010717E+02  0.47000000000E+01 0.  1.
         15    1    4    4    0    0  0.43245236815E+01 -0.11226787451E+02 -0.21605704495E+03  0.21639904497E+03  0.17770000000E+01 0. -1.
        -16    1    4    4    0    0  0.18333387083E+02 -0.87689066470E+01 -0.47548569149E+01  0.20871403163E+02  0.00000000000E+00 0.  1.
<mgrwt>
<rscale>  2 0.17587350E+03</rscale>
<asrwt>0</asrwt>
<pdfrwt beam="1">  1       21 0.17448598E-01 0.17633464E+03</pdfrwt>
<pdfrwt beam="2">  1       21 0.55444457E-01 0.17633464E+03</pdfrwt>
<totfact> 0.91773714E+04</totfact>
</mgrwt>
</event>
<event>
12    2  0.4097182E-002  0.2137421E+03  0.7546771E-02  0.1138930E+00
         21   -1    0    0  503  502  0.00000000000E+00  0.00000000000E+00  0.15992241154E+03  0.15992241154E+03  0.00000000000E+00 0. -1.
         21   -1    0    0  501  503 -0.00000000000E+00 -0.00000000000E+00 -0.99220239519E+03  0.99220239519E+03  0.00000000000E+00 0. -1.
          6    2    1    2  501    0  0.11562645305E+03 -0.42733821641E+02 -0.90251998482E+03  0.92713735339E+03  0.17275906023E+03 0.  0.
         24    2    3    3    0    0  0.12601280828E+03 -0.32879246458E+02 -0.46809580635E+03  0.49245189715E+03  0.80217918106E+02 0.  0.
         -6    2    1    2    0  502 -0.11562645305E+03  0.42733821641E+02  0.70240001169E+02  0.22498745335E+03  0.17461397494E+03 0.  0.
        -24    2    5    5    0    0 -0.37915671240E+02  0.84479853398E+02  0.61713382740E+02  0.13623786181E+03  0.78598788959E+02 0.  0.
          5    1    3    3  501    0 -0.10386355228E+02 -0.98545751833E+01 -0.43442417846E+03  0.43468545623E+03  0.47000000000E+01 0. -1.
        -15    1    4    4    0    0  0.72465226684E+02 -0.56744951865E+02 -0.24317119324E+03  0.26001266429E+03  0.17770000000E+01 0.  1.
         16    1    4    4    0    0  0.53547581592E+02  0.23865705407E+02 -0.22492461311E+03  0.23243923286E+03  0.00000000000E+00 0. -1.
         -5    1    5    5    0  502 -0.77710781808E+02 -0.41746031756E+02  0.85266184292E+01  0.88749591539E+02  0.47000000000E+01 0.  1.
         15    1    6    6    0    0 -0.60612409193E+02  0.51800444359E+02  0.29459172675E+02  0.85018531907E+02  0.17770000000E+01 0. -1.
        -16    1    6    6    0    0  0.22696737953E+02  0.32679409039E+02  0.32254210065E+02  0.51219329903E+02  0.00000000000E+00 0.  1.
<mgrwt>
<rscale>  2 0.21336295E+03</rscale>
<asrwt>0</asrwt>
<pdfrwt beam="1">  1       21 0.24603448E-01 0.21374213E+03</pdfrwt>
<pdfrwt beam="2">  1       21 0.15264652E+00 0.21374213E+03</pdfrwt>
<totfact> 0.43788461E+03</totfact>
</mgrwt>
</event>
<event>
12    2  0.4097182E-002  0.1763894E+03  0.7546771E-02  0.1171706E+00
         21   -1    0    0  503  502  0.00000000000E+00  0.00000000000E+00  0.48221085386E+03  0.48221085386E+03  0.00000000000E+00 0. -1.
         21   -1    0    0  501  503 -0.00000000000E+00 -0.00000000000E+00 -0.20484323724E+03  0.20484323724E+03  0.00000000000E+00 0. -1.
          6    2    1    2  501    0 -0.79198819313E+00  0.64335168454E+01 -0.14599562587E+03  0.22897150768E+03  0.17627027875E+03 0.  0.
         24    2    3    3    0    0  0.30434298484E+02 -0.11028858300E+01 -0.16857649415E+03  0.18942578784E+03  0.80849439327E+02 0.  0.
         -6    2    1    2    0  502  0.79198819313E+00 -0.64335168454E+01  0.42336324249E+03  0.45808258343E+03  0.17481762144E+03 0.  0.
        -24    2    5    5    0    0 -0.33907985298E+02  0.24892679493E+02  0.38979535974E+03  0.40033908605E+03  0.81003483774E+02 0.  0.
          5    1    3    3  501    0 -0.31226286677E+02  0.75364026754E+01  0.22580868280E+02  0.39545719834E+02  0.47000000000E+01 0. -1.
        -15    1    4    4    0    0  0.47993103752E+02 -0.26874523081E+02 -0.10169598653E+03  0.11563221611E+03  0.17770000000E+01 0.  1.
         16    1    4    4    0    0 -0.17558805269E+02  0.25771637251E+02 -0.66880507621E+02  0.73793571730E+02  0.00000000000E+00 0. -1.
         -5    1    5    5    0  502  0.34699973491E+02 -0.31326196338E+02  0.33567882745E+02  0.57743497376E+02  0.47000000000E+01 0.  1.
         15    1    6    6    0    0  0.22786929808E+02  0.99414755901E+01  0.20386027742E+03  0.20537830349E+03  0.17770000000E+01 0. -1.
        -16    1    6    6    0    0 -0.56694915106E+02  0.14951203903E+02  0.18593508232E+03  0.19496078256E+03  0.00000000000E+00 0.  1.
<mgrwt>
<rscale>  2 0.17602538E+03</rscale>
<asrwt>0</asrwt>
<pdfrwt beam="1">  1       21 0.74186285E-01 0.17638942E+03</pdfrwt>
<pdfrwt beam="2">  1       21 0.31514344E-01 0.17638942E+03</pdfrwt>
<totfact> 0.15931432E+04</totfact>
</mgrwt>
</event>
<event>
12    2  0.4097182E-002  0.1753339E+03  0.7546771E-02  0.1172466E+00
         21   -1    0    0  503  502  0.00000000000E+00  0.00000000000E+00  0.12923900936E+03  0.12923900936E+03  0.00000000000E+00 0.  1.
         21   -1    0    0  501  503 -0.00000000000E+00 -0.00000000000E+00 -0.23770070340E+03  0.23770070340E+03  0.00000000000E+00 0.  1.
          6    2    1    2  501    0  0.15286170762E+01 -0.30633201282E+02 -0.59611370793E+02  0.18492784180E+03  0.17234866247E+03 0.  0.
         24    2    3    3    0    0 -0.55206129646E+02 -0.72685861975E+01 -0.72653626416E+02  0.12202373100E+03  0.80688861692E+02 0.  0.
         -6    2    1    2    0  502 -0.15286170762E+01  0.30633201282E+02 -0.48850323244E+02  0.18201187096E+03  0.17263034901E+03 0.  0.
        -24    2    5    5    0    0 -0.27244757271E+02 -0.39834855062E+02 -0.34096493200E+01  0.94182424429E+02  0.80806007736E+02 0.  0.
          5    1    3    3  501    0  0.56734746722E+02 -0.23364615084E+02  0.13042255623E+02  0.62904110799E+02  0.47000000000E+01 0. -1.
        -15    1    4    4    0    0  0.84576205579E+01 -0.28456102664E+02 -0.31454862598E+02  0.43287957152E+02  0.17770000000E+01 0.  1.
         16    1    4    4    0    0 -0.63663750204E+02  0.21187516467E+02 -0.41198763818E+02  0.78735773853E+02  0.00000000000E+00 0. -1.
         -5    1    5    5    0  502  0.25716140194E+02  0.70468056344E+02 -0.45440673924E+02  0.87829446532E+02  0.47000000000E+01 0.  1.
         15    1    6    6    0    0  0.27569048367E+02 -0.39764209355E+01  0.42590084424E+01  0.28234043870E+02  0.17770000000E+01 0. -1.
        -16    1    6    6    0    0 -0.54813805638E+02 -0.35858434127E+02 -0.76686577624E+01  0.65948380559E+02  0.00000000000E+00 0.  1.
<mgrwt>
<rscale>  2 0.17526450E+03</rscale>
<asrwt>0</asrwt>
<pdfrwt beam="1">  1       21 0.19882925E-01 0.17533387E+03</pdfrwt>
<pdfrwt beam="2">  1       21 0.36569339E-01 0.17533387E+03</pdfrwt>
<totfact> 0.16919985E+05</totfact>
</mgrwt>
</event>
<event>
12    2  0.4097182E-002  0.1973407E+03  0.7546771E-02  0.1152529E+00
         21   -1    0    0  501  502  0.00000000000E+00  0.00000000000E+00  0.32660609178E+03  0.32660609178E+03  0.00000000000E+00 0. -1.
         21   -1    0    0  502  503 -0.00000000000E+00 -0.00000000000E+00 -0.13324224251E+03  0.13324224251E+03  0.00000000000E+00 0. -1.
         -6    2    1    2    0  503 -0.73856297930E+02 -0.47082821789E+02  0.17799235029E+02  0.19571527845E+03  0.17411522793E+03 0.  0.
        -24    2    3    3    0    0 -0.30116553012E+02 -0.20712061806E+02 -0.52578261521E+02  0.10863104171E+03  0.87750973606E+02 0.  0.
          6    2    1    2  501    0  0.73856297930E+02  0.47082821789E+02  0.17556461424E+03  0.26413305584E+03  0.17683832323E+03 0.  0.
         24    2    5    5    0    0  0.11631363366E+03  0.10171757478E+02  0.12002952639E+03  0.18494159160E+03  0.78511012432E+02 0.  0.
          5    1    5    5  501    0 -0.42457335730E+02  0.36911064311E+02  0.55535087848E+02  0.79191464238E+02  0.47000000000E+01 0. -1.
        -15    1    6    6    0    0  0.64668423942E+02 -0.24972242732E+02  0.30461074592E+02  0.75740694191E+02  0.17770000000E+01 0.  1.
         16    1    6    6    0    0  0.51645209719E+02  0.35144000211E+02  0.89568451800E+02  0.10920089741E+03  0.00000000000E+00 0. -1.
         -5    1    3    3    0  503 -0.43739744918E+02 -0.26370759983E+02  0.70377496550E+02  0.87084236738E+02  0.47000000000E+01 0.  1.
         15    1    4    4    0    0 -0.25920597321E+02  0.31998357659E+02 -0.30754291249E+02  0.51427195311E+02  0.17770000000E+01 0. -1.
        -16    1    4    4    0    0 -0.41959556912E+01 -0.52710419465E+02 -0.21823970272E+02  0.57203846398E+02  0.00000000000E+00 0.  1.
<mgrwt>
<rscale>  2 0.19672871E+03</rscale>
<asrwt>0</asrwt>
<pdfrwt beam="1">  1       21 0.50247091E-01 0.19734066E+03</pdfrwt>
<pdfrwt beam="2">  1       21 0.20498807E-01 0.19734066E+03</pdfrwt>
<totfact> 0.82972039E+04</totfact>
</mgrwt>
</event>
<event>
12    2  0.4097182E-002  0.2231169E+03  0.7546771E-02  0.1132047E+00
         21   -1    0    0  501  502  0.00000000000E+00  0.00000000000E+00  0.48496146931E+03  0.48496146931E+03  0.00000000000E+00 0. -1.
         21   -1    0    0  502  503 -0.00000000000E+00 -0.00000000000E+00 -0.44898489929E+03  0.44898489929E+03  0.00000000000E+00 0.  1.
         -6    2    1    2    0  503 -0.56909174921E+02  0.11709778476E+03 -0.39280783484E+03  0.45175121404E+03  0.18119221532E+03 0.  0.
        -24    2    3    3    0    0  0.18645589583E+02  0.16058712448E+00 -0.13763808979E+03  0.16103396410E+03  0.81486256705E+02 0.  0.
          6    2    1    2  501    0  0.56909174921E+02 -0.11709778476E+03  0.42878440486E+03  0.48219515456E+03  0.17806053983E+03 0.  0.
         24    2    5    5    0    0 -0.16034147833E+02 -0.50684027358E+01  0.16347271000E+03  0.18506942999E+03  0.85115124385E+02 0.  0.
          5    1    5    5  501    0  0.72943322755E+02 -0.11202938202E+03  0.26531169485E+03  0.29712572456E+03  0.47000000000E+01 0. -1.
        -15    1    6    6    0    0 -0.12258500997E+02 -0.22798534298E+02  0.16485951782E+03  0.16688877241E+03  0.17770000000E+01 0.  1.
         16    1    6    6    0    0 -0.37756468358E+01  0.17730131562E+02 -0.13868078129E+01  0.18180657583E+02  0.00000000000E+00 0. -1.
         -5    1    3    3    0  503 -0.75554764504E+02  0.11693719763E+03 -0.25516974504E+03  0.29071724994E+03  0.47000000000E+01 0.  1.
         15    1    4    4    0    0  0.40561420647E+02  0.26875647719E+02 -0.87646065358E+02  0.10026225505E+03  0.17770000000E+01 0.  1.
        -16    1    4    4    0    0 -0.21915831064E+02 -0.26715060595E+02 -0.49992024437E+02  0.60771709052E+02  0.00000000000E+00 0.  1.
<mgrwt>
<rscale>  2 0.22248030E+03</rscale>
<asrwt>0</asrwt>
<pdfrwt beam="1">  1       21 0.74609457E-01 0.22311693E+03</pdfrwt>
<pdfrwt beam="2">  1       21 0.69074600E-01 0.22311693E+03</pdfrwt>
<totfact> 0.29942124E+03</totfact>
</mgrwt>
</event>
<event>
12    2  0.4097182E-002  0.2194019E+03  0.7546771E-02  0.1134560E+00
         21   -1    0    0  503  502  0.00000000000E+00  0.00000000000E+00  0.11786939859E+04  0.11786939859E+04  0.00000000000E+00 0. -1.
         21   -1    0    0  501  503 -0.00000000000E+00 -0.00000000000E+00 -0.70391222129E+02  0.70391222129E+02  0.00000000000E+00 0.  1.
          6    2    1    2  501    0 -0.88897103009E+01 -0.13497358633E+03  0.14882567955E+03  0.26511558026E+03  0.17274342838E+03 0.  0.
         24    2    3    3    0    0  0.46270261222E+02 -0.13428691229E+03  0.11933573368E+03  0.20238727017E+03  0.80905363902E+02 0.  0.
         -6    2    1    2    0  502  0.88897103009E+01  0.13497358633E+03  0.95947708419E+03  0.98396962774E+03  0.17118135783E+03 0.  0.
        -24    2    5    5    0    0  0.18576198070E+02  0.45925834553E+02  0.22718870911E+03  0.24620836255E+03  0.80929542354E+02 0.  0.
          5    1    3    3  501    0 -0.55159971523E+02 -0.68667404353E+00  0.29489945868E+02  0.62728310092E+02  0.47000000000E+01 0. -1.
        -15    1    4    4    0    0  0.21545613939E+02 -0.74476810331E+02  0.14069027433E+02  0.78816901862E+02  0.17770000000E+01 0.  1.
         16    1    4    4    0    0  0.24724647283E+02 -0.59810101954E+02  0.10526670625E+03  0.12357036831E+03  0.00000000000E+00 0. -1.
         -5    1    5    5    0  502 -0.96864877689E+01  0.89047751776E+02  0.73228837508E+03  0.73776126519E+03  0.47000000000E+01 0.  1.
         15    1    6    6    0    0  0.16607962618E+01 -0.23152465848E+02  0.67404774987E+02  0.71311684450E+02  0.17770000000E+01 0. -1.
        -16    1    6    6    0    0  0.16915401808E+02  0.69078300401E+02  0.15978393412E+03  0.17489667810E+03  0.00000000000E+00 0.  1.
<mgrwt>
<rscale>  2 0.21909430E+03</rscale>
<asrwt>0</asrwt>
<pdfrwt beam="1">  1       21 0.18133752E+00 0.21940189E+03</pdfrwt>
<pdfrwt beam="2">  1       21 0.10829420E-01 0.21940189E+03</pdfrwt>
<totfact> 0.12305203E+04</totfact>
</mgrwt>
</event>
<event>
12    2  0.4097182E-002  0.2239846E+03  0.7546771E-02  0.1131041E+00
         21   -1    0    0  503  502  0.00000000000E+00  0.00000000000E+00  0.83096537406E+02  0.83096537406E+02  0.00000000000E+00 0. -1.
         21   -1    0    0  501  503 -0.00000000000E+00 -0.00000000000E+00 -0.65350360560E+03  0.65350360560E+03  0.00000000000E+00 0.  1.
          6    2    1    2  501    0 -0.10073270880E+03 -0.10079417924E+03 -0.38794343911E+03  0.44770213376E+03  0.17213524750E+03 0.  0.
         24    2    3    3    0    0 -0.60581752877E+02 -0.13495727039E+03 -0.26775552186E+03  0.31637642603E+03  0.80730476573E+02 0.  0.
         -6    2    1    2    0  502  0.10073270880E+03  0.10079417924E+03 -0.18246362908E+03  0.28889800924E+03  0.17280780832E+03 0.  0.
        -24    2    5    5    0    0  0.34427214230E+02  0.45851350614E+02 -0.77173623793E+01  0.94030154651E+02  0.74125116316E+02 0.  0.
          5    1    3    3  501    0 -0.40150955923E+02  0.34163091144E+02 -0.12018791725E+03  0.13132570773E+03  0.47000000000E+01 0. -1.
        -15    1    4    4    0    0 -0.39511709104E+02 -0.10937558154E+02 -0.86551974480E+02  0.95787302656E+02  0.17770000000E+01 0.  1.
         16    1    4    4    0    0 -0.21070043773E+02 -0.12401971223E+03 -0.18120354738E+03  0.22058912337E+03  0.00000000000E+00 0. -1.
         -5    1    5    5    0  502  0.66305494570E+02  0.54942828629E+02 -0.17474626670E+03  0.19486785459E+03  0.47000000000E+01 0.  1.
         15    1    6    6    0    0  0.82085390167E+01  0.18540493297E+02 -0.39606500185E+02  0.44530468113E+02  0.17770000000E+01 0. -1.
        -16    1    6    6    0    0  0.26218675213E+02  0.27310857317E+02  0.31889137806E+02  0.49499686538E+02  0.00000000000E+00 0.  1.
<mgrwt>
<rscale>  2 0.22385483E+03</rscale>
<asrwt>0</asrwt>
<pdfrwt beam="1">  1       21 0.12784083E-01 0.22398456E+03</pdfrwt>
<pdfrwt beam="2">  1       21 0.10053902E+00 0.22398456E+03</pdfrwt>
<totfact> 0.41781016E+04</totfact>
</mgrwt>
</event>
<event>
12    2  0.4097182E-002  0.2419447E+03  0.7546771E-02  0.1121179E+00
         21   -1    0    0  503  502  0.00000000000E+00  0.00000000000E+00  0.49760701716E+03  0.49760701716E+03  0.00000000000E+00 0. -1.
         21   -1    0    0  501  503 -0.00000000000E+00 -0.00000000000E+00 -0.11015019870E+03  0.11015019870E+03  0.00000000000E+00 0. -1.
          6    2    1    2  501    0  0.97684474269E+02  0.10763662612E+03  0.19869335227E+03  0.31307549497E+03  0.19341488442E+03 0.  0.
         24    2    3    3    0    0  0.88383478731E+01  0.11960913278E+03  0.15845388817E+03  0.21469724756E+03  0.81257691309E+02 0.  0.
         -6    2    1    2    0  502 -0.97684474269E+02 -0.10763662612E+03  0.18876346619E+03  0.29468172089E+03  0.17342944001E+03 0.  0.
        -24    2    5    5    0    0 -0.58258425421E+02 -0.46868287469E+02  0.19369233742E+03  0.22192467256E+03  0.78378301930E+02 0.  0.
          5    1    3    3  501    0  0.88846126396E+02 -0.11972506657E+02  0.40239464103E+02  0.98378247405E+02  0.47000000000E+01 0. -1.
        -15    1    4    4    0    0 -0.31074038089E+02  0.67599303250E+02  0.11151311543E+03  0.13406563424E+03  0.17770000000E+01 0.  1.
         16    1    4    4    0    0  0.39912385962E+02  0.52009829529E+02  0.46940772738E+02  0.80631613316E+02  0.00000000000E+00 0. -1.
         -5    1    5    5    0  502 -0.39426048848E+02 -0.60768338654E+02 -0.49288712273E+01  0.72757048333E+02  0.47000000000E+01 0.  1.
         15    1    6    6    0    0 -0.61044358543E+02 -0.63551532756E+02  0.13821413722E+03  0.16392533813E+03  0.17770000000E+01 0. -1.
        -16    1    6    6    0    0  0.27859331221E+01  0.16683245287E+02  0.55478200202E+02  0.57999334430E+02  0.00000000000E+00 0.  1.
<mgrwt>
<rscale>  2 0.23793141E+03</rscale>
<asrwt>0</asrwt>
<pdfrwt beam="1">  1       21 0.76554924E-01 0.24194466E+03</pdfrwt>
<pdfrwt beam="2">  1       21 0.16946185E-01 0.24194466E+03</pdfrwt>
<totfact> 0.46563116E+04</totfact>
</mgrwt>
</event>
<event>
12    2  0.4097182E-002  0.1914077E+03  0.7546771E-02  0.1157470E+00
         21   -1    0    0  503  502  0.00000000000E+00  0.00000000000E+00  0.69289789402E+02  0.69289789402E+02  0.00000000000E+00 0.  1.
         21   -1    0    0  501  503 -0.00000000000E+00 -0.00000000000E+00 -0.54312714673E+03  0.54312714673E+03  0.00000000000E+00 0.  1.
          6    2    1    2  501    0 -0.44790102332E+02 -0.67735593486E+02 -0.29151292162E+03  0.34807034837E+03  0.17198523206E+03 0.  0.
         24    2    3    3    0    0  0.39663431489E+01 -0.90107867082E+02 -0.25698981605E+03  0.28410438539E+03  0.80847861161E+02 0.  0.
         -6    2    1    2    0  502  0.44790102332E+02  0.67735593486E+02 -0.18232443570E+03  0.26434658776E+03  0.17332817058E+03 0.  0.
        -24    2    5    5    0    0 -0.21884803810E+02 -0.16468399648E+02 -0.71546375376E+02  0.10997779487E+03  0.78905504946E+02 0.  0.
          5    1    3    3  501    0 -0.48756445481E+02  0.22372273596E+02 -0.34523105573E+02  0.63965962982E+02  0.47000000000E+01 0. -1.
        -15    1    4    4    0    0 -0.18123053490E+02 -0.12811481248E+02 -0.14238504711E+03  0.14411536520E+03  0.17770000000E+01 0.  1.
         16    1    4    4    0    0  0.22089396639E+02 -0.77296385834E+02 -0.11460476894E+03  0.13998902018E+03  0.00000000000E+00 0. -1.
         -5    1    5    5    0  502  0.66674906142E+02  0.84203993134E+02 -0.11077806033E+03  0.15436879289E+03  0.47000000000E+01 0.  1.
         15    1    6    6    0    0 -0.25071592569E+02  0.23813513210E+01 -0.83632669892E+02  0.87360384559E+02  0.17770000000E+01 0. -1.
        -16    1    6    6    0    0  0.31867887591E+01 -0.18849750969E+02  0.12086294515E+02  0.22617410314E+02  0.00000000000E+00 0.  1.
<mgrwt>
<rscale>  2 0.19110319E+03</rscale>
<asrwt>0</asrwt>
<pdfrwt beam="1">  1       21 0.10659968E-01 0.19140773E+03</pdfrwt>
<pdfrwt beam="2">  1       21 0.83558023E-01 0.19140773E+03</pdfrwt>
<totfact> 0.90339944E+04</totfact>
</mgrwt>
</event>
<event>
12    2  0.4097182E-002  0.2055759E+03  0.7546771E-02  0.1145528E+00
         21   -1    0    0  501  502  0.00000000000E+00  0.00000000000E+00  0.95632587255E+02  0.95632587255E+02  0.00000000000E+00 0. -1.
         21   -1    0    0  502  503 -0.00000000000E+00 -0.00000000000E+00 -0.17826118698E+04  0.17826118698E+04  0.00000000000E+00 0. -1.
         -6    2    1    2    0  503 -0.80723130664E+02  0.70244566358E+02 -0.16602464127E+04  0.16729254585E+04  0.17553038415E+03 0.  0.
        -24    2    3    3    0    0 -0.42632901357E+02  0.36649030671E+02 -0.40217155835E+03  0.41381706172E+03  0.79635937246E+02 0.  0.
          6    2    1    2  501    0  0.80723130664E+02 -0.70244566358E+02 -0.26732869809E+02  0.20531899856E+03  0.17317829516E+03 0.  0.
         24    2    5    5    0    0  0.68173059040E+02 -0.49967247645E+02  0.53740668013E+02  0.12125500959E+03  0.68340516060E+02 0.  0.
          5    1    5    5  501    0  0.12550071624E+02 -0.20277318713E+02 -0.80473537822E+02  0.84063988970E+02  0.47000000000E+01 0. -1.
        -15    1    6    6    0    0 -0.10385061244E+02 -0.18053423781E+02  0.69051005509E-01  0.20903064472E+02  0.17770000000E+01 0.  1.
         16    1    6    6    0    0  0.78558120284E+02 -0.31913823864E+02  0.53671617008E+02  0.10035194512E+03  0.00000000000E+00 0. -1.
         -5    1    3    3    0  503 -0.38090229307E+02  0.33595535687E+02 -0.12580748544E+04  0.12591083967E+04  0.47000000000E+01 0.  1.
         15    1    4    4    0    0  0.13642885608E+02  0.19103130271E+02 -0.24200499816E+03  0.24314735198E+03  0.17770000000E+01 0. -1.
        -16    1    4    4    0    0 -0.56275786965E+02  0.17545900400E+02 -0.16016656019E+03  0.17066970974E+03  0.00000000000E+00 0.  1.
<mgrwt>
<rscale>  2 0.20507287E+03</rscale>
<asrwt>0</asrwt>
<pdfrwt beam="1">  1       21 0.14712706E-01 0.20557587E+03</pdfrwt>
<pdfrwt beam="2">  1       21 0.27424797E+00 0.20557587E+03</pdfrwt>
<totfact> 0.19223544E+03</totfact>
</mgrwt>
</event>
<event>
12    2  0.4097182E-002  0.1863716E+03  0.7546771E-02  0.1161862E+00
         21   -1    0    0  501  502  0.00000000000E+00  0.00000000000E+00  0.93340841919E+03  0.93340841919E+03  0.00000000000E+00 0.  1.
         21   -1    0    0  502  503 -0.00000000000E+00 -0.00000000000E+00 -0.51142140124E+02  0.51142140124E+02  0.00000000000E+00 0.  1.
         -6    2    1    2    0  503  0.28690007720E+02  0.60857200382E+02  0.18320814395E+03  0.26107516723E+03  0.17340214403E+03 0.  0.
        -24    2    3    3    0    0  0.63629604919E+02  0.85152351032E+02  0.17018994675E+03  0.21632482359E+03  0.80821790491E+02 0.  0.
          6    2    1    2  501    0 -0.28690007720E+02 -0.60857200382E+02  0.69905813512E+03  0.72347539209E+03  0.17380348470E+03 0.  0.
         24    2    5    5    0    0 -0.53037644345E+02  0.21898953112E+02  0.35298696881E+03  0.36678402619E+03  0.81474940053E+02 0.  0.
          5    1    5    5  501    0  0.24347636626E+02 -0.82756153494E+02  0.34607116632E+03  0.35669136590E+03  0.47000000000E+01 0. -1.
        -15    1    6    6    0    0  0.86465509101E+01  0.33359107852E+02  0.16611306602E+03  0.16965936859E+03  0.17770000000E+01 0.  1.
         16    1    6    6    0    0 -0.61684195256E+02 -0.11460154740E+02  0.18687390278E+03  0.19712465760E+03  0.00000000000E+00 0. -1.
         -5    1    3    3    0  503 -0.34939597199E+02 -0.24295150650E+02  0.13018197198E+02  0.44750343639E+02  0.47000000000E+01 0.  1.
         15    1    4    4    0    0  0.64050747815E+02  0.41981295669E+02  0.15049989626E+03  0.16887363319E+03  0.17770000000E+01 0. -1.
        -16    1    4    4    0    0 -0.42114289618E+00  0.43171055363E+02  0.19690050487E+02  0.47451190403E+02  0.00000000000E+00 0.  1.
<mgrwt>
<rscale>  2 0.18627796E+03</rscale>
<asrwt>0</asrwt>
<pdfrwt beam="1">  1       21 0.14360128E+00 0.18637158E+03</pdfrwt>
<pdfrwt beam="2">  1       21 0.78680223E-02 0.18637158E+03</pdfrwt>
<totfact> 0.41532432E+04</totfact>
</mgrwt>
</event>
<event>
12    2  0.4097182E-002  0.2648510E+03  0.7546771E-02  0.1104373E+00
         21   -1    0    0  503  502  0.00000000000E+00  0.00000000000E+00  0.16204694525E+03  0.16204694525E+03  0.00000000000E+00 0. -1.
         21   -1    0    0  501  503 -0.00000000000E+00 -0.00000000000E+00 -0.71091758190E+03  0.71091758190E+03  0.00000000000E+00 0. -1.
          6    2    1    2  501    0 -0.76884828441E+02 -0.18474167113E+03 -0.54776698731E+03  0.60811121403E+03  0.17236535137E+03 0.  0.
         24    2    3    3    0    0  0.51657650888E+01 -0.15995169597E+03 -0.36019868606E+03  0.40183276049E+03  0.78200024200E+02 0.  0.
         -6    2    1    2    0  502  0.76884828441E+02  0.18474167113E+03 -0.11036493375E+01  0.26485331312E+03  0.17350878229E+03 0.  0.
        -24    2    5    5    0    0  0.12609564781E+02  0.99768771726E+02 -0.60932424027E+02  0.14256972701E+03  0.80626036894E+02 0.  0.
          5    1    3    3  501    0 -0.82050593530E+02 -0.24789975162E+02 -0.18756830124E+03  0.20627845355E+03  0.47000000000E+01 0. -1.
        -15    1    4    4    0    0  0.35648535344E+02 -0.70659194807E+02 -0.21036052679E+03  0.22476265002E+03  0.17770000000E+01 0.  1.
         16    1    4    4    0    0 -0.30482770255E+02 -0.89292501161E+02 -0.14983815927E+03  0.17707011047E+03  0.00000000000E+00 0. -1.
         -5    1    5    5    0  502  0.64275263660E+02  0.84972899404E+02  0.59828774689E+02  0.12228358611E+03  0.47000000000E+01 0.  1.
         15    1    6    6    0    0  0.12608850520E+02  0.49596884827E+02  0.13362926057E+02  0.52920313848E+02  0.17770000000E+01 0. -1.
        -16    1    6    6    0    0  0.71426090572E-03  0.50171886899E+02 -0.74295350084E+02  0.89649413158E+02  0.00000000000E+00 0.  1.
<mgrwt>
<rscale>  2 0.26466390E+03</rscale>
<asrwt>0</asrwt>
<pdfrwt beam="1">  1       21 0.24930299E-01 0.26485101E+03</pdfrwt>
<pdfrwt beam="2">  1       21 0.10937194E+00 0.26485101E+03</pdfrwt>
<totfact> 0.96369000E+03</totfact>
</mgrwt>
</event>
<event>
12    2  0.4097182E-002  0.3496684E+03  0.7546771E-02  0.1062796E+00
         21   -1    0    0  503  502  0.00000000000E+00  0.00000000000E+00  0.27321997810E+03  0.27321997810E+03  0.00000000000E+00 0. -1.
         21   -1    0    0  501  503 -0.00000000000E+00 -0.00000000000E+00 -0.67623822510E+03  0.67623822510E+03  0.00000000000E+00 0.  1.
          6    2    1    2  501    0 -0.15952886283E+03  0.25838909702E+03 -0.47785469661E+03  0.59187112728E+03  0.17248749725E+03 0.  0.
         24    2    3    3    0    0 -0.58780774186E+02  0.41966322004E+02 -0.17727171900E+03  0.20799456986E+03  0.81364163721E+02 0.  0.
         -6    2    1    2    0  502  0.15952886283E+03 -0.25838909702E+03  0.74836449613E+02  0.35758707592E+03  0.17335985447E+03 0.  0.
        -24    2    5    5    0    0  0.10814749580E+03 -0.19861180976E+03  0.11728430637E+03  0.26793620033E+03  0.83016065349E+02 0.  0.
          5    1    3    3  501    0 -0.10074808865E+03  0.21642277501E+03 -0.30058297760E+03  0.38387655742E+03  0.47000000000E+01 0. -1.
        -15    1    4    4    0    0 -0.63512850053E+02  0.37692793935E+02 -0.18426972914E+03  0.19852737756E+03  0.17770000000E+01 0.  1.
         16    1    4    4    0    0  0.47320758669E+01  0.42735280692E+01  0.69980101363E+01  0.94671922995E+01  0.00000000000E+00 0. -1.
         -5    1    5    5    0  502  0.51381367033E+02 -0.59777287260E+02 -0.42447856755E+02  0.89650875587E+02  0.47000000000E+01 0.  1.
         15    1    6    6    0    0  0.12140165527E+03 -0.16689034748E+03  0.10369494394E+03  0.23096871890E+03  0.17770000000E+01 0. -1.
        -16    1    6    6    0    0 -0.13254159467E+02 -0.31721462281E+02  0.13589362431E+02  0.36967481435E+02  0.00000000000E+00 0.  1.
<mgrwt>
<rscale>  2 0.34956048E+03</rscale>
<asrwt>0</asrwt>
<pdfrwt beam="1">  1       21 0.42033843E-01 0.34966845E+03</pdfrwt>
<pdfrwt beam="2">  1       21 0.10403665E+00 0.34966845E+03</pdfrwt>
<totfact> 0.36930166E+03</totfact>
</mgrwt>
</event>
<event>
12    2  0.4097182E-002  0.2882295E+03  0.7546771E-02  0.1091346E+00
         21   -1    0    0  501  502  0.00000000000E+00  0.00000000000E+00  0.12256520647E+04  0.12256520647E+04  0.00000000000E+00 0.  1.
         21   -1    0    0  502  503 -0.00000000000E+00 -0.00000000000E+00 -0.88251318024E+02  0.88251318024E+02  0.00000000000E+00 0.  1.
         -6    2    1    2    0  503 -0.61859375021E+02 -0.22335118929E+03  0.25096443959E+03  0.38178452561E+03  0.17048148879E+03 0.  0.
        -24    2    3    3    0    0 -0.58822892768E+02 -0.57265139206E+02  0.13966337092E+03  0.18177499047E+03  0.82443077960E+02 0.  0.
          6    2    1    2  501    0  0.61859375021E+02  0.22335118929E+03  0.88643630709E+03  0.93211885712E+03  0.17135898354E+03 0.  0.
         24    2    5    5    0    0  0.91611352132E+02  0.10219603860E+03  0.57482550789E+03  0.59642981819E+03  0.80420727178E+02 0.  0.
          5    1    5    5  501    0 -0.29751977111E+02  0.12115515069E+03  0.31161079920E+03  0.33568903893E+03  0.47000000000E+01 0. -1.
        -15    1    6    6    0    0  0.25270089441E+02  0.82163713351E+02  0.38120784294E+03  0.39078386668E+03  0.17770000000E+01 0.  1.
         16    1    6    6    0    0  0.66341262691E+02  0.20032325249E+02  0.19361766495E+03  0.20564595151E+03  0.00000000000E+00 0. -1.
         -5    1    3    3    0  503 -0.30364822526E+01 -0.16608605008E+03  0.11130106867E+03  0.20000953514E+03  0.47000000000E+01 0.  1.
         15    1    4    4    0    0 -0.31747974328E+01  0.13585941684E+02  0.59635811714E+02  0.61271893377E+02  0.17770000000E+01 0. -1.
        -16    1    4    4    0    0 -0.55648095335E+02 -0.70851080891E+02  0.80027559206E+02  0.12050309710E+03  0.00000000000E+00 0.  1.
<mgrwt>
<rscale>  2 0.28809919E+03</rscale>
<asrwt>0</asrwt>
<pdfrwt beam="1">  1       21 0.18856184E+00 0.28822949E+03</pdfrwt>
<pdfrwt beam="2">  1       21 0.13577127E-01 0.28822949E+03</pdfrwt>
<totfact> 0.69971336E+03</totfact>
</mgrwt>
</event>
<event>
12    2  0.4097182E-002  0.1746404E+03  0.7546771E-02  0.1173600E+00
         21   -1    0    0  501  502  0.00000000000E+00  0.00000000000E+00  0.24245970006E+02  0.24245970006E+02  0.00000000000E+00 0. -1.
         21   -1    0    0  502  503 -0.00000000000E+00 -0.00000000000E+00 -0.13739074182E+04  0.13739074182E+04  0.00000000000E+00 0. -1.
         -6    2    1    2    0  503 -0.16092203655E+02 -0.16756581799E+02 -0.89370097776E+03  0.91060458573E+03  0.17308821990E+03 0.  0.
        -24    2    3    3    0    0 -0.17984073873E+02  0.35355524212E+02 -0.78399654147E+03  0.78904635234E+03  0.79813088492E+02 0.  0.
          6    2    1    2  501    0  0.16092203655E+02  0.16756581799E+02 -0.45596047043E+03  0.48754880246E+03  0.17106765368E+03 0.  0.
         24    2    5    5    0    0  0.47936845404E+02 -0.71103796303E+01 -0.42932232437E+03  0.43943026257E+03  0.80204730623E+02 0.  0.
          5    1    5    5  501    0 -0.31844641748E+02  0.23866961429E+02 -0.26638146061E+02  0.48118539894E+02  0.47000000000E+01 0. -1.
        -15    1    6    6    0    0  0.36634113166E+01  0.29161209751E+02 -0.23551718416E+03  0.23735058142E+03  0.17770000000E+01 0.  1.
         16    1    6    6    0    0  0.44273434087E+02 -0.36271589381E+02 -0.19380514021E+03  0.20207968115E+03  0.00000000000E+00 0. -1.
         -5    1    3    3    0  503  0.18918702175E+01 -0.52112106011E+02 -0.10970443629E+03  0.12155823340E+03  0.47000000000E+01 0.  1.
         15    1    4    4    0    0 -0.21132281146E+02 -0.41991367383E+01 -0.61781923109E+03  0.61819735205E+03  0.17770000000E+01 0. -1.
        -16    1    4    4    0    0  0.31482072734E+01  0.39554660951E+02 -0.16617731038E+03  0.17084900028E+03  0.00000000000E+00 0.  1.
<mgrwt>
<rscale>  2 0.17413765E+03</rscale>
<asrwt>0</asrwt>
<pdfrwt beam="1">  1       21 0.37301482E-02 0.17464041E+03</pdfrwt>
<pdfrwt beam="2">  1       21 0.21137043E+00 0.17464041E+03</pdfrwt>
<totfact> 0.50738654E+04</totfact>
</mgrwt>
</event>
<event>
12    2  0.4097182E-002  0.2192832E+03  0.7546771E-02  0.1134600E+00
         21   -1    0    0  503  502  0.00000000000E+00  0.00000000000E+00  0.95385875333E+02  0.95385875333E+02  0.00000000000E+00 0. -1.
         21   -1    0    0  501  503 -0.00000000000E+00 -0.00000000000E+00 -0.62421756948E+03  0.62421756948E+03  0.00000000000E+00 0. -1.
          6    2    1    2  501    0  0.36997500732E+02  0.12792981097E+03 -0.42322552648E+03  0.47621533766E+03  0.17299234075E+03 0.  0.
         24    2    3    3    0    0  0.59530859951E+02  0.30873730889E+02 -0.11368055243E+03  0.15099569508E+03  0.73343857181E+02 0.  0.
         -6    2    1    2    0  502 -0.36997500732E+02 -0.12792981097E+03 -0.10560616767E+03  0.24338810716E+03  0.17421324996E+03 0.  0.
        -24    2    5    5    0    0 -0.71623445409E+02 -0.96294600242E+02 -0.20087904292E+02  0.14573972789E+03  0.80212071528E+02 0.  0.
          5    1    3    3  501    0 -0.22533359219E+02  0.97056080082E+02 -0.30954497405E+03  0.32521964258E+03  0.47000000000E+01 0. -1.
        -15    1    4    4    0    0 -0.11545741210E+02 -0.95148852576E+01 -0.32316721610E+02  0.35656211326E+02  0.17770000000E+01 0.  1.
         16    1    4    4    0    0  0.71076601160E+02  0.40388616146E+02 -0.81363830824E+02  0.11533948376E+03  0.00000000000E+00 0. -1.
         -5    1    5    5    0  502  0.34625944676E+02 -0.31635210729E+02 -0.85518263374E+02  0.97648379265E+02  0.47000000000E+01 0.  1.
         15    1    6    6    0    0 -0.23694746078E+02 -0.43517710632E+02  0.30600490072E+02  0.58264739354E+02  0.17770000000E+01 0. -1.
        -16    1    6    6    0    0 -0.47928699330E+02 -0.52776889610E+02 -0.50688394363E+02  0.87474988537E+02  0.00000000000E+00 0.  1.
<mgrwt>
<rscale>  2 0.21904059E+03</rscale>
<asrwt>0</asrwt>
<pdfrwt beam="1">  1       21 0.14674750E-01 0.21928317E+03</pdfrwt>
<pdfrwt beam="2">  1       21 0.96033472E-01 0.21928317E+03</pdfrwt>
<totfact> 0.36351654E+04</totfact>
</mgrwt>
</event>
<event>
12    2  0.4097182E-002  0.2835174E+03  0.7546771E-02  0.1093871E+00
         21   -1    0    0  503  502  0.00000000000E+00  0.00000000000E+00  0.93704744893E+03  0.93704744893E+03  0.00000000000E+00 0. -1.
         21   -1    0    0  501  503 -0.00000000000E+00 -0.00000000000E+00 -0.94259751524E+02  0.94259751524E+02  0.00000000000E+00 0.  1.
          6    2    1    2  501    0 -0.21912256124E+03  0.53527667828E+02  0.26540407590E+03  0.38835739386E+03  0.17176214310E+03 0.  0.
         24    2    3    3    0    0 -0.20753115052E+03  0.31896665517E+02  0.28017650471E+03  0.35933023905E+03  0.80825560287E+02 0.  0.
         -6    2    1    2    0  502  0.21912256124E+03 -0.53527667828E+02  0.57738362151E+03  0.64294980659E+03  0.17068303765E+03 0.  0.
        -24    2    5    5    0    0  0.41877499346E+02 -0.16099855713E+02  0.27884307293E+03  0.29371463907E+03  0.80634357314E+02 0.  0.
          5    1    3    3  501    0 -0.11591410716E+02  0.21631002311E+02 -0.14772428818E+02  0.29027154813E+02  0.47000000000E+01 0. -1.
        -15    1    4    4    0    0 -0.54564572131E+02 -0.25056911240E+02  0.56790426937E+02  0.82664694116E+02  0.17770000000E+01 0.  1.
         16    1    4    4    0    0 -0.15296657839E+03  0.56953576757E+02  0.22338607778E+03  0.27666554494E+03  0.00000000000E+00 0. -1.
         -5    1    5    5    0  502  0.17724506189E+03 -0.37427812115E+02  0.29854054858E+03  0.34923516752E+03  0.47000000000E+01 0.  1.
         15    1    6    6    0    0  0.30878789154E+02 -0.46637782454E+02  0.21407232838E+03  0.22126613360E+03  0.17770000000E+01 0. -1.
        -16    1    6    6    0    0  0.10998710192E+02  0.30537926741E+02  0.64770744549E+02  0.72448505470E+02  0.00000000000E+00 0.  1.
<mgrwt>
<rscale>  2 0.28335419E+03</rscale>
<asrwt>0</asrwt>
<pdfrwt beam="1">  1       21 0.14416114E+00 0.28351745E+03</pdfrwt>
<pdfrwt beam="2">  1       21 0.14501501E-01 0.28351745E+03</pdfrwt>
<totfact> 0.13093903E+04</totfact>
</mgrwt>
</event>
<event>
12    2  0.4097182E-002  0.1854589E+03  0.7546771E-02  0.1162807E+00
         21   -1    0    0  503  502  0.00000000000E+00  0.00000000000E+00  0.43405856044E+03  0.43405856044E+03  0.00000000000E+00 0. -1.
         21   -1    0    0  501  503 -0.00000000000E+00 -0.00000000000E+00 -0.28887982010E+03  0.28887982010E+03  0.00000000000E+00 0. -1.
          6    2    1    2  501    0 -0.63145380259E+02  0.12920075980E+02 -0.23562937289E+03  0.29937040092E+03  0.17305250118E+03 0.  0.
         24    2    3    3    0    0  0.57987732248E+01 -0.56475632710E+02 -0.10892502327E+03  0.13922939150E+03  0.65551810822E+02 0.  0.
         -6    2    1    2    0  502  0.63145380259E+02 -0.12920075980E+02  0.38080811323E+03  0.42356797962E+03  0.17389866835E+03 0.  0.
        -24    2    5    5    0    0  0.91668307888E+02  0.51341387642E+00  0.11972194066E+03  0.16054308431E+03  0.55112580958E+02 0.  0.
          5    1    3    3  501    0 -0.68944153483E+02  0.69395708690E+02 -0.12670434963E+03  0.16014100942E+03  0.47000000000E+01 0. -1.
        -15    1    4    4    0    0  0.31854963885E+02 -0.10913399038E+02 -0.35364966874E+02  0.48863888647E+02  0.17770000000E+01 0.  1.
         16    1    4    4    0    0 -0.26056190660E+02 -0.45562233672E+02 -0.73560056391E+02  0.90365502849E+02  0.00000000000E+00 0. -1.
         -5    1    5    5    0  502 -0.28522927629E+02 -0.13433489856E+02  0.26108617256E+03  0.26302489531E+03  0.47000000000E+01 0.  1.
         15    1    6    6    0    0  0.97103088213E+02  0.74823797912E+01  0.11429769447E+03  0.15017362098E+03  0.17770000000E+01 0. -1.
        -16    1    6    6    0    0 -0.54347803247E+01 -0.69689659147E+01  0.54242461967E+01  0.10369463337E+02  0.00000000000E+00 0.  1.
<mgrwt>
<rscale>  2 0.18526031E+03</rscale>
<asrwt>0</asrwt>
<pdfrwt beam="1">  1       21 0.66778240E-01 0.18545893E+03</pdfrwt>
<pdfrwt beam="2">  1       21 0.44443049E-01 0.18545893E+03</pdfrwt>
<totfact> 0.10038931E+04</totfact>
</mgrwt>
</event>
<event>
12    2  0.4097182E-002  0.2399460E+03  0.7546771E-02  0.1120117E+00
         21   -1    0    0  501  502  0.00000000000E+00  0.00000000000E+00  0.36938531952E+03  0.36938531952E+03  0.00000000000E+00 0.  1.
         21   -1    0    0  502  503 -0.00000000000E+00 -0.00000000000E+00 -0.17253657315E+03  0.17253657315E+03  0.00000000000E+00 0.  1.
         -6    2    1    2    0  503 -0.15066734950E+03  0.69118520176E+02  0.18575059461E+03  0.30344251403E+03  0.17348214861E+03 0.  0.
        -24    2    3    3    0    0 -0.55635114864E+02  0.54034591516E+02  0.26235443849E+02  0.11709385198E+03  0.83711818594E+02 0.  0.
          6    2    1    2  501    0  0.15066734950E+03 -0.69118520176E+02  0.11098151769E+02  0.23847937864E+03  0.17108835444E+03 0.  0.
         24    2    5    5    0    0  0.86254415193E+01 -0.28837097130E+02 -0.18015859458E+02  0.87919714999E+02  0.80618414033E+02 0.  0.
          5    1    5    5  501    0  0.14204190798E+03 -0.40281423046E+02  0.29114011227E+02  0.15055966364E+03  0.47000000000E+01 0. -1.
        -15    1    6    6    0    0  0.30312823475E+02 -0.29243869518E+02 -0.39224594912E+02  0.57582964029E+02  0.17770000000E+01 0.  1.
         16    1    6    6    0    0 -0.21687381956E+02  0.40677238772E+00  0.21208735453E+02  0.30336750970E+02  0.00000000000E+00 0. -1.
         -5    1    3    3    0  503 -0.95032234639E+02  0.15083928661E+02  0.15951515076E+03  0.18634866204E+03  0.47000000000E+01 0.  1.
         15    1    4    4    0    0 -0.28825113465E+02  0.10591021585E+02 -0.28721295409E+02  0.42084764980E+02  0.17770000000E+01 0. -1.
        -16    1    4    4    0    0 -0.26810001399E+02  0.43443569930E+02  0.54956739258E+02  0.75009087004E+02  0.00000000000E+00 0.  1.
<mgrwt>
<rscale>  2 0.23951357E+03</rscale>
<asrwt>0</asrwt>
<pdfrwt beam="1">  1       21 0.56828510E-01 0.23994599E+03</pdfrwt>
<pdfrwt beam="2">  1       21 0.26544088E-01 0.23994599E+03</pdfrwt>
<totfact> 0.38407921E+04</totfact>
</mgrwt>
</event>
<event>
12    2  0.4097182E-002  0.1804765E+03  0.7546771E-02  0.1167877E+00
         21   -1    0    0  503  502  0.00000000000E+00  0.00000000000E+00  0.31698514871E+03  0.31698514871E+03  0.00000000000E+00 0.  1.
         21   -1    0    0  501  503 -0.00000000000E+00 -0.00000000000E+00 -0.11451236485E+03  0.11451236485E+03  0.00000000000E+00 0.  1.
          6    2    1    2  501    0  0.33229862824E+02 -0.19192328471E+02  0.27972806544E+02  0.18045568843E+03  0.17409540007E+03 0.  0.
         24    2    3    3    0    0  0.43984435829E+02 -0.17743248494E+02 -0.54060646850E+02  0.97574217946E+02  0.65944833062E+02 0.  0.
         -6    2    1    2    0  502 -0.33229862824E+02  0.19192328471E+02  0.17449997732E+03  0.25104182513E+03  0.17634961476E+03 0.  0.
        -24    2    5    5    0    0 -0.12347824220E+01 -0.46455471529E+02  0.12408111664E+03  0.16217411262E+03  0.93513013929E+02 0.  0.
          5    1    3    3  501    0 -0.10754573005E+02 -0.14490799776E+01  0.82033453394E+02  0.82881470480E+02  0.47000000000E+01 0. -1.
        -15    1    4    4    0    0  0.49917700902E+02 -0.23739447766E+02 -0.14567329705E+02  0.57190060913E+02  0.17770000000E+01 0.  1.
         16    1    4    4    0    0 -0.59332650729E+01  0.59961992718E+01 -0.39493317145E+02  0.40384157033E+02  0.00000000000E+00 0. -1.
         -5    1    5    5    0  502 -0.31995080402E+02  0.65647800000E+02  0.50418860679E+02  0.88867712511E+02  0.47000000000E+01 0.  1.
         15    1    6    6    0    0  0.81100083396E+01  0.79898126159E+00 -0.13797905005E+02  0.16122981048E+02  0.17770000000E+01 0. -1.
        -16    1    6    6    0    0 -0.93447907616E+01 -0.47254452791E+02  0.13787902165E+03  0.14605113157E+03  0.00000000000E+00 0.  1.
<mgrwt>
<rscale>  2 0.17992343E+03</rscale>
<asrwt>0</asrwt>
<pdfrwt beam="1">  1       21 0.48766946E-01 0.18047647E+03</pdfrwt>
<pdfrwt beam="2">  1       21 0.17617287E-01 0.18047647E+03</pdfrwt>
<totfact> 0.11776075E+05</totfact>
</mgrwt>
</event>
<event>
12    2  0.4097182E-002  0.2448931E+03  0.7546771E-02  0.1116715E+00
         21   -1    0    0  501  502  0.00000000000E+00  0.00000000000E+00  0.31344593148E+02  0.31344593148E+02  0.00000000000E+00 0. -1.
         21   -1    0    0  502  503 -0.00000000000E+00 -0.00000000000E+00 -0.19713301721E+04  0.19713301721E+04  0.00000000000E+00 0.  1.
         -6    2    1    2    0  503  0.26724033177E+02 -0.17185159244E+03 -0.11530468560E+04  0.11787661681E+04  0.17241079739E+03 0.  0.
        -24    2    3    3    0    0 -0.38975047795E+02 -0.13809892111E+03 -0.89996031094E+03  0.91507979876E+03  0.82777475650E+02 0.  0.
          6    2    1    2  501    0 -0.26724033177E+02  0.17185159244E+03 -0.78693872291E+03  0.82390859714E+03  0.17118901560E+03 0.  0.
         24    2    5    5    0    0 -0.27902308580E+02  0.62802922394E+02 -0.58407167878E+03  0.59353904975E+03  0.80163157004E+02 0.  0.
          5    1    5    5  501    0  0.11782754037E+01  0.10904867005E+03 -0.20286704413E+03  0.23036954739E+03  0.47000000000E+01 0. -1.
        -15    1    6    6    0    0 -0.70123238333E+01 -0.19066457896E+02 -0.14309802625E+03  0.14454378349E+03  0.17770000000E+01 0.  1.
         16    1    6    6    0    0 -0.20889984747E+02  0.81869380290E+02 -0.44097365254E+03  0.44899526626E+03  0.00000000000E+00 0. -1.
         -5    1    3    3    0  503  0.65699080972E+02 -0.33752671331E+02 -0.25308654507E+03  0.26368636931E+03  0.47000000000E+01 0.  1.
         15    1    4    4    0    0 -0.38127899926E+02 -0.78586218263E+02 -0.30849237061E+03  0.32062475093E+03  0.17770000000E+01 0. -1.
        -16    1    4    4    0    0 -0.84714786864E+00 -0.59512702851E+02 -0.59146794033E+03  0.59445504783E+03  0.00000000000E+00 0.  1.
<mgrwt>
<rscale>  2 0.24467815E+03</rscale>
<asrwt>0</asrwt>
<pdfrwt beam="1">  1       21 0.48222436E-02 0.24489309E+03</pdfrwt>
<pdfrwt beam="2">  1       21 0.30328166E+00 0.24489309E+03</pdfrwt>
<totfact> 0.88789882E+03</totfact>
</mgrwt>
</event>
<event>
12    2  0.4097182E-002  0.1970959E+03  0.7546771E-02  0.1152232E+00
         21   -1    0    0  501  502  0.00000000000E+00  0.00000000000E+00  0.39947910444E+03  0.39947910444E+03  0.00000000000E+00 0.  1.
         21   -1    0    0  502  503 -0.00000000000E+00 -0.00000000000E+00 -0.23106555100E+03  0.23106555100E+03  0.00000000000E+00 0.  1.
         -6    2    1    2    0  503  0.26309268741E+01  0.94180256928E+02 -0.15576874456E+03  0.25114914921E+03  0.17301777596E+03 0.  0.
        -24    2    3    3    0    0 -0.57925330758E+02  0.73416918002E+02 -0.72999193936E+02  0.14640629699E+03  0.85793552729E+02 0.  0.
          6    2    1    2  501    0 -0.26309268741E+01 -0.94180256928E+02  0.32418229800E+03  0.37939550624E+03  0.17311829842E+03 0.  0.
         24    2    5    5    0    0 -0.19974565233E+02 -0.12618516072E+03  0.20273071614E+03  0.25251882440E+03  0.79651336269E+02 0.  0.
          5    1    5    5  501    0  0.17343638358E+02  0.32004903789E+02  0.12145158186E+03  0.12687668184E+03  0.47000000000E+01 0. -1.
        -15    1    6    6    0    0 -0.43281769025E+02 -0.94003539948E+02  0.10700175980E+03  0.14887078753E+03  0.17770000000E+01 0.  1.
         16    1    6    6    0    0  0.23307203792E+02 -0.32181620769E+02  0.95728956343E+02  0.10364803687E+03  0.00000000000E+00 0. -1.
         -5    1    3    3    0  503  0.60556257632E+02  0.20763338926E+02 -0.82769550621E+02  0.10474285222E+03  0.47000000000E+01 0.  1.
         15    1    4    4    0    0 -0.63511383567E+02  0.36585624686E+02 -0.79986275103E+02  0.10850421978E+03  0.17770000000E+01 0. -1.
        -16    1    4    4    0    0  0.55860528091E+01  0.36831293316E+02  0.69870811673E+01  0.37902077207E+02  0.00000000000E+00 0.  1.
<mgrwt>
<rscale>  2 0.19707381E+03</rscale>
<asrwt>0</asrwt>
<pdfrwt beam="1">  1       21 0.61458324E-01 0.19709588E+03</pdfrwt>
<pdfrwt beam="2">  1       21 0.35548546E-01 0.19709588E+03</pdfrwt>
<totfact> 0.18724469E+04</totfact>
</mgrwt>
</event>
<event>
12    2  0.4097182E-002  0.3180814E+03  0.7546771E-02  0.1076573E+00
         21   -1    0    0  501  502  0.00000000000E+00  0.00000000000E+00  0.88190733868E+02  0.88190733868E+02  0.00000000000E+00 0. -1.
         21   -1    0    0  502  503 -0.00000000000E+00 -0.00000000000E+00 -0.15802947790E+04  0.15802947790E+04  0.00000000000E+00 0.  1.
         -6    2    1    2    0  503 -0.49632792191E+01  0.26671703035E+03 -0.11836178581E+04  0.12256129126E+04  0.17324309266E+03 0.  0.
        -24    2    3    3    0    0 -0.25136012299E+02  0.18490042144E+03 -0.55114526115E+03  0.58753409888E+03  0.81334085707E+02 0.  0.
          6    2    1    2  501    0  0.49632792191E+01 -0.26671703035E+03 -0.30848618708E+03  0.44287260029E+03  0.17265515935E+03 0.  0.
         24    2    5    5    0    0 -0.37918902581E+02 -0.71151835244E+02 -0.14107288479E+03  0.18184782975E+03  0.81649540903E+02 0.  0.
          5    1    5    5  501    0  0.42882181800E+02 -0.19556519511E+03 -0.16741330229E+03  0.26102477054E+03  0.47000000000E+01 0. -1.
        -15    1    6    6    0    0 -0.41478809899E+02  0.18521478863E+01 -0.47539190657E+02  0.63143127098E+02  0.17770000000E+01 0.  1.
         16    1    6    6    0    0  0.35599073186E+01 -0.73003983130E+02 -0.93533694138E+02  0.11870470265E+03  0.00000000000E+00 0. -1.
         -5    1    3    3    0  503  0.20172733080E+02  0.81816608913E+02 -0.63247259692E+03  0.63807881372E+03  0.47000000000E+01 0.  1.
         15    1    4    4    0    0 -0.43713655359E+02  0.66972178071E+02 -0.28144084484E+03  0.29258889790E+03  0.17770000000E+01 0. -1.
        -16    1    4    4    0    0  0.18577643060E+02  0.11792824337E+03 -0.26970441630E+03  0.29494520098E+03  0.00000000000E+00 0.  1.
<mgrwt>
<rscale>  2 0.31800141E+03</rscale>
<asrwt>0</asrwt>
<pdfrwt beam="1">  1       21 0.13567805E-01 0.31808140E+03</pdfrwt>
<pdfrwt beam="2">  1       21 0.24312228E+00 0.31808140E+03</pdfrwt>
<totfact> 0.30948097E+03</totfact>
</mgrwt>
</event>
<event>
12    2  0.4097182E-002  0.1764610E+03  0.7546771E-02  0.1171525E+00
         21   -1    0    0  501  502  0.00000000000E+00  0.00000000000E+00  0.26265138674E+02  0.26265138674E+02  0.00000000000E+00 0.  1.
         21   -1    0    0  502  503 -0.00000000000E+00 -0.00000000000E+00 -0.11850720789E+04  0.11850720789E+04  0.00000000000E+00 0.  1.
         -6    2    1    2    0  503 -0.16537306910E+02 -0.29333217753E+02 -0.62195610614E+03  0.64622898686E+03  0.17218764566E+03 0.  0.
        -24    2    3    3    0    0  0.81907175766E+01 -0.16707138289E+02 -0.61011083654E+03  0.61567913434E+03  0.80494392759E+02 0.  0.
          6    2    1    2  501    0  0.16537306910E+02  0.29333217753E+02 -0.53685083412E+03  0.56510823074E+03  0.17321828476E+03 0.  0.
         24    2    5    5    0    0  0.66671277903E+02  0.45217522499E+02 -0.26534517884E+03  0.28851622609E+03  0.79648384473E+02 0.  0.
          5    1    5    5  501    0 -0.50133970994E+02 -0.15884304746E+02 -0.27150565528E+03  0.27659200464E+03  0.47000000000E+01 0. -1.
        -15    1    6    6    0    0  0.56179480018E+02  0.11534674220E+02 -0.23524412585E+03  0.24214074246E+03  0.17770000000E+01 0.  1.
         16    1    6    6    0    0  0.10491797885E+02  0.33682848278E+02 -0.30101052985E+02  0.46375483629E+02  0.00000000000E+00 0. -1.
         -5    1    3    3    0  503 -0.24728024486E+02 -0.12626079464E+02 -0.11845269593E+02  0.30549852526E+02  0.47000000000E+01 0.  1.
         15    1    4    4    0    0  0.42599800453E+01 -0.11833742339E+02 -0.11805573720E+02  0.17341112640E+02  0.17770000000E+01 0. -1.
        -16    1    4    4    0    0  0.39307375313E+01 -0.48733959496E+01 -0.59830526282E+03  0.59833802170E+03  0.00000000000E+00 0.  1.
<mgrwt>
<rscale>  2 0.17620759E+03</rscale>
<asrwt>0</asrwt>
<pdfrwt beam="1">  1       21 0.40407917E-02 0.17646103E+03</pdfrwt>
<pdfrwt beam="2">  1       21 0.18231873E+00 0.17646103E+03</pdfrwt>
<totfact> 0.68253902E+04</totfact>
</mgrwt>
</event>
<event>
12    2  0.4097182E-002  0.1776007E+03  0.7546771E-02  0.1170333E+00
         21   -1    0    0  503  502  0.00000000000E+00  0.00000000000E+00  0.16657029956E+03  0.16657029956E+03  0.00000000000E+00 0. -1.
         21   -1    0    0  501  503 -0.00000000000E+00 -0.00000000000E+00 -0.21729677534E+03  0.21729677534E+03  0.00000000000E+00 0. -1.
          6    2    1    2  501    0 -0.68258106937E+01  0.37852011672E+02  0.44397747840E+02  0.18306603268E+03  0.17338582938E+03 0.  0.
         24    2    3    3    0    0 -0.24898601541E+02 -0.37903066967E+02  0.50403612194E+02  0.10481248251E+03  0.79928402478E+02 0.  0.
         -6    2    1    2    0  502  0.68258106937E+01 -0.37852011672E+02 -0.95124223624E+02  0.20080104222E+03  0.17260670368E+03 0.  0.
        -24    2    5    5    0    0  0.10132851995E+01 -0.20879731578E+02 -0.13377778957E+03  0.15792876791E+03  0.81289659948E+02 0.  0.
          5    1    3    3  501    0  0.18072790847E+02  0.75755078638E+02 -0.60058643546E+01  0.78253550176E+02  0.47000000000E+01 0. -1.
        -15    1    4    4    0    0  0.26538016954E+02 -0.24288104355E+01  0.40516466651E+01  0.27013682342E+02  0.17770000000E+01 0.  1.
         16    1    4    4    0    0 -0.51436618495E+02 -0.35474256531E+02  0.46351965529E+02  0.77798800164E+02  0.00000000000E+00 0. -1.
         -5    1    5    5    0  502  0.58125254942E+01 -0.16972280093E+02  0.38653565944E+02  0.42872274308E+02  0.47000000000E+01 0.  1.
         15    1    6    6    0    0  0.27523003544E+02  0.61671809850E+01 -0.12549445820E+02  0.30922421716E+02  0.17770000000E+01 0. -1.
        -16    1    6    6    0    0 -0.26509718345E+02 -0.27046912563E+02 -0.12122834375E+03  0.12700634619E+03  0.00000000000E+00 0.  1.
<mgrwt>
<rscale>  2 0.17741027E+03</rscale>
<asrwt>0</asrwt>
<pdfrwt beam="1">  1       21 0.25626200E-01 0.17760071E+03</pdfrwt>
<pdfrwt beam="2">  1       21 0.33430273E-01 0.17760071E+03</pdfrwt>
<totfact> 0.12515046E+05</totfact>
</mgrwt>
</event>
<event>
11    2  0.4097182E-002  0.2920783E+03  0.7546771E-02  0.1089582E+00
         21   -1    0    0  501  502  0.00000000000E+00  0.00000000000E+00  0.18028734075E+04  0.18028734075E+04  0.00000000000E+00 0.  1.
         21   -1    0    0  502  503 -0.00000000000E+00 -0.00000000000E+00 -0.52601356339E+02  0.52601356339E+02  0.00000000000E+00 0. -1.
         -6    2    1    2    0  503  0.26572038901E+02 -0.23435932451E+03  0.57372032594E+03  0.64378936175E+03  0.17227699694E+03 0.  0.
        -24    2    3    3    0    0  0.53407932606E+02 -0.24058248562E+03  0.47522665371E+03  0.54140778922E+03  0.80930106760E+02 0.  0.
          6    2    1    2  501    0 -0.26572038901E+02  0.23435932451E+03  0.11765517252E+04  0.12116854021E+04  0.16815821497E+03 0.  0.
          5    1    5    5  501    0  0.11065264649E+02 -0.53646583981E+01  0.39126954411E+01  0.13733856964E+02  0.47000000000E+01 0. -1.
        -15    1    5    5    0    0 -0.33729945043E+02  0.14869143757E+03  0.79349649295E+03  0.80801404372E+03  0.17770000000E+01 0.  1.
         16    1    5    5    0    0 -0.39073585068E+01  0.91032545344E+02  0.37914253682E+03  0.38993750139E+03  0.00000000000E+00 0. -1.
         -5    1    3    3    0  503 -0.26835893706E+02  0.62231611107E+01  0.98493672225E+02  0.10238157253E+03  0.47000000000E+01 0.  1.
         15    1    4    4    0    0  0.44457127531E+02 -0.16577226012E+03  0.24480475761E+03  0.29898061056E+03  0.17770000000E+01 0. -1.
        -16    1    4    4    0    0  0.89508050757E+01 -0.74810225502E+02  0.23042189610E+03  0.24242717866E+03  0.00000000000E+00 0.  1.
<mgrwt>
<rscale>  2 0.29147385E+03</rscale>
<asrwt>0</asrwt>
<pdfrwt beam="1">  1       21 0.27736509E+00 0.29207829E+03</pdfrwt>
<pdfrwt beam="2">  1       21 0.80925178E-02 0.29207829E+03</pdfrwt>
<totfact> 0.49594914E+03</totfact>
</mgrwt>
</event>
<event>
12    2  0.4097182E-002  0.3462951E+03  0.7546771E-02  0.1064202E+00
         21   -1    0    0  501  502  0.00000000000E+00  0.00000000000E+00  0.12638017169E+04  0.12638017169E+04  0.00000000000E+00 0. -1.
         21   -1    0    0  502  503 -0.00000000000E+00 -0.00000000000E+00 -0.14618813299E+03  0.14618813299E+03  0.00000000000E+00 0. -1.
         -6    2    1    2    0  503 -0.58961939532E+02  0.29354630465E+03  0.14086582438E+03  0.37384952635E+03  0.17399524299E+03 0.  0.
        -24    2    3    3    0    0 -0.89259108842E+02  0.12477126881E+03  0.52798203421E+02  0.18102596178E+03  0.80297512548E+02 0.  0.
          6    2    1    2  501    0  0.58961939532E+02 -0.29354630465E+03  0.97674775957E+03  0.10361403236E+04  0.17292958400E+03 0.  0.
         24    2    5    5    0    0  0.10214084111E+03 -0.16737176123E+03  0.62525773671E+03  0.66017256017E+03  0.80215422486E+02 0.  0.
          5    1    5    5  501    0 -0.43178901578E+02 -0.12617454343E+03  0.35149002285E+03  0.37596776340E+03  0.47000000000E+01 0. -1.
        -15    1    6    6    0    0  0.14355734574E+02  0.40070150090E+01  0.19883965077E+02  0.24913311314E+02  0.17770000000E+01 0.  1.
         16    1    6    6    0    0  0.87785106535E+02 -0.17137877623E+03  0.60537377164E+03  0.63525924886E+03  0.00000000000E+00 0. -1.
         -5    1    3    3    0  503  0.30297169311E+02  0.16877503585E+03  0.88067620962E+02  0.19282356457E+03  0.47000000000E+01 0.  1.
         15    1    4    4    0    0 -0.34896685304E+02  0.80346005089E+02  0.65869018256E+02  0.10961361446E+03  0.17770000000E+01 0. -1.
        -16    1    4    4    0    0 -0.54362423538E+02  0.44425263719E+02 -0.13070814835E+02  0.71412347321E+02  0.00000000000E+00 0.  1.
<mgrwt>
<rscale>  2 0.34616146E+03</rscale>
<asrwt>0</asrwt>
<pdfrwt beam="1">  1       21 0.19443103E+00 0.34629509E+03</pdfrwt>
<pdfrwt beam="2">  1       21 0.22490483E-01 0.34629509E+03</pdfrwt>
<totfact> 0.24100007E+03</totfact>
</mgrwt>
</event>
<event>
12    2  0.4097182E-002  0.1860934E+03  0.7546771E-02  0.1162142E+00
         21   -1    0    0  501  502  0.00000000000E+00  0.00000000000E+00  0.16928395044E+03  0.16928395044E+03  0.00000000000E+00 0.  1.
         21   -1    0    0  502  503 -0.00000000000E+00 -0.00000000000E+00 -0.64703056396E+03  0.64703056396E+03  0.00000000000E+00 0. -1.
         -6    2    1    2    0  503  0.64054808448E+02 -0.10231005189E+02 -0.57668845633E+03  0.60597056736E+03  0.17442207684E+03 0.  0.
        -24    2    3    3    0    0 -0.14554056603E+02 -0.17593617954E+02 -0.44322654105E+03  0.45083277518E+03  0.79240573763E+02 0.  0.
          6    2    1    2  501    0 -0.64054808448E+02  0.10231005189E+02  0.98941842813E+02  0.21034394704E+03  0.17391778473E+03 0.  0.
         24    2    5    5    0    0 -0.12014154219E+02 -0.17511779539E+02 -0.12181172041E+02  0.84453890934E+02  0.80827448416E+02 0.  0.
          5    1    5    5  501    0 -0.52040654229E+02  0.27742784728E+02  0.11112301485E+03  0.12589005611E+03  0.47000000000E+01 0. -1.
        -15    1    6    6    0    0  0.15889738487E+02 -0.41630713391E+02  0.27112619624E+01  0.44677832949E+02  0.17770000000E+01 0.  1.
         16    1    6    6    0    0 -0.27903892706E+02  0.24118933851E+02 -0.14892434003E+02  0.39776057985E+02  0.00000000000E+00 0. -1.
         -5    1    3    3    0  503  0.78608865051E+02  0.73626127654E+01 -0.13346191528E+03  0.15513779217E+03  0.47000000000E+01 0.  1.
         15    1    4    4    0    0  0.31217336453E+02  0.13066151517E+01 -0.21736573190E+03  0.21960703192E+03  0.17770000000E+01 0. -1.
        -16    1    4    4    0    0 -0.45771393056E+02 -0.18900233106E+02 -0.22586080915E+03  0.23122574326E+03  0.00000000000E+00 0.  1.
<mgrwt>
<rscale>  2 0.18597514E+03</rscale>
<asrwt>0</asrwt>
<pdfrwt beam="1">  1       21 0.26043685E-01 0.18609340E+03</pdfrwt>
<pdfrwt beam="2">  1       21 0.99543163E-01 0.18609340E+03</pdfrwt>
<totfact> 0.11676711E+04</totfact>
</mgrwt>
</event>
<event>
12    2  0.4097182E-002  0.1994871E+03  0.7546771E-02  0.1150406E+00
         21   -1    0    0  501  502  0.00000000000E+00  0.00000000000E+00  0.40427617846E+03  0.40427617846E+03  0.00000000000E+00 0.  1.
         21   -1    0    0  502  503 -0.00000000000E+00 -0.00000000000E+00 -0.10799187518E+03  0.10799187518E+03  0.00000000000E+00 0.  1.
         -6    2    1    2    0  503 -0.19105592356E+02 -0.97888900971E+02  0.22683697891E+03  0.30207633842E+03  0.17276527035E+03 0.  0.
        -24    2    3    3    0    0 -0.39483660621E+02 -0.77220992884E+01  0.17202949091E+03  0.19450650746E+03  0.81363661598E+02 0.  0.
          6    2    1    2  501    0  0.19105592356E+02  0.97888900971E+02  0.69447324359E+02  0.21019171522E+03  0.17149450630E+03 0.  0.
         24    2    5    5    0    0 -0.45597526895E+02  0.66689693927E+02  0.77950711036E+02  0.13770529065E+03  0.79748253823E+02 0.  0.
          5    1    5    5  501    0  0.64703119252E+02  0.31199207045E+02 -0.85033866769E+01  0.72486424564E+02  0.47000000000E+01 0. -1.
        -15    1    6    6    0    0 -0.45464369553E+01  0.71769132368E+02  0.45331204377E+02  0.85026785598E+02  0.17770000000E+01 0.  1.
         16    1    6    6    0    0 -0.41051089940E+02 -0.50794384417E+01  0.32619506659E+02  0.52678505055E+02  0.00000000000E+00 0. -1.
         -5    1    3    3    0  503  0.20378068264E+02 -0.90166801683E+02  0.54807488003E+02  0.10756983096E+03  0.47000000000E+01 0.  1.
         15    1    4    4    0    0 -0.38038843678E+02  0.13998666188E+02  0.29100016749E+02  0.49928799177E+02  0.17770000000E+01 0. -1.
        -16    1    4    4    0    0 -0.14448169423E+01 -0.21720765476E+02  0.14292947416E+03  0.14457770829E+03  0.00000000000E+00 0.  1.
<mgrwt>
<rscale>  2 0.19921164E+03</rscale>
<asrwt>0</asrwt>
<pdfrwt beam="1">  1       21 0.62196334E-01 0.19948709E+03</pdfrwt>
<pdfrwt beam="2">  1       21 0.16614135E-01 0.19948709E+03</pdfrwt>
<totfact> 0.77805723E+04</totfact>
</mgrwt>
</event>
<event>
12    2  0.4097182E-002  0.3816234E+03  0.7546771E-02  0.1050382E+00
         21   -1    0    0  501  502  0.00000000000E+00  0.00000000000E+00  0.52731218656E+03  0.52731218656E+03  0.00000000000E+00 0.  1.
         21   -1    0    0  502  503 -0.00000000000E+00 -0.00000000000E+00 -0.27817894672E+03  0.27817894672E+03  0.00000000000E+00 0.  1.
         -6    2    1    2    0  503 -0.30080221983E+03  0.15896901063E+03  0.16157579698E+03  0.41395219530E+03  0.17174562592E+03 0.  0.
        -24    2    3    3    0    0 -0.97128173673E+02  0.16437239449E+02  0.89168653279E+02  0.15498635327E+03  0.79785061334E+02 0.  0.
          6    2    1    2  501    0  0.30080221983E+03 -0.15896901063E+03  0.87557442857E+02  0.39153893797E+03  0.17286790435E+03 0.  0.
         24    2    5    5    0    0  0.13802169228E+03 -0.11999894251E+02  0.51545164747E+02  0.16924094992E+03  0.82411225683E+02 0.  0.
          5    1    5    5  501    0  0.16278052755E+03 -0.14696911638E+03  0.36012278109E+02  0.22229798805E+03  0.47000000000E+01 0. -1.
        -15    1    6    6    0    0  0.75877760386E+02 -0.31709651024E+02 -0.57371744183E+01  0.82456105830E+02  0.17770000000E+01 0.  1.
         16    1    6    6    0    0  0.62143931898E+02  0.19709756773E+02  0.57282339166E+02  0.86784844092E+02  0.00000000000E+00 0. -1.
         -5    1    3    3    0  503 -0.20367404616E+03  0.14253177118E+03  0.72407143705E+02  0.25896584202E+03  0.47000000000E+01 0.  1.
         15    1    4    4    0    0 -0.71036966594E+02  0.21621614533E+02  0.10141164133E+03  0.12570291788E+03  0.17770000000E+01 0. -1.
        -16    1    4    4    0    0 -0.26091207079E+02 -0.51843750835E+01 -0.12242988053E+02  0.29283435391E+02  0.00000000000E+00 0.  1.
<mgrwt>
<rscale>  2 0.38149659E+03</rscale>
<asrwt>0</asrwt>
<pdfrwt beam="1">  1       21 0.81124952E-01 0.38162342E+03</pdfrwt>
<pdfrwt beam="2">  1       21 0.42796761E-01 0.38162342E+03</pdfrwt>
<totfact> 0.63296966E+03</totfact>
</mgrwt>
</event>
<event>
12    2  0.4097182E-002  0.1971069E+03  0.7546771E-02  0.1152270E+00
         21   -1    0    0  503  502  0.00000000000E+00  0.00000000000E+00  0.51943230117E+03  0.51943230117E+03  0.00000000000E+00 0. -1.
         21   -1    0    0  501  503 -0.00000000000E+00 -0.00000000000E+00 -0.10571913090E+03  0.10571913090E+03  0.00000000000E+00 0. -1.
          6    2    1    2  501    0 -0.36592772870E+02  0.86594603683E+02  0.37597794731E+02  0.20066072840E+03  0.17324398212E+03 0.  0.
         24    2    3    3    0    0  0.27053367119E+02  0.89717942145E+02  0.54645239241E+02  0.13452986010E+03  0.79567501344E+02 0.  0.
         -6    2    1    2    0  502  0.36592772870E+02 -0.86594603683E+02  0.37611537555E+03  0.42449070367E+03  0.17289281467E+03 0.  0.
        -24    2    5    5    0    0  0.67340570651E+02 -0.79799159892E+00  0.20213529958E+03  0.22802787627E+03  0.81256653733E+02 0.  0.
          5    1    3    3  501    0 -0.63646139989E+02 -0.31233384620E+01 -0.17047444511E+02  0.66130868306E+02  0.47000000000E+01 0. -1.
        -15    1    4    4    0    0  0.29439842200E+00  0.93303896377E+02  0.53363498416E+02  0.10750127647E+03  0.17770000000E+01 0.  1.
         16    1    4    4    0    0  0.26758968697E+02 -0.35859542316E+01  0.12817408253E+01  0.27028583630E+02  0.00000000000E+00 0. -1.
         -5    1    5    5    0  502 -0.30747797781E+02 -0.85796612084E+02  0.17398007597E+03  0.19646282739E+03  0.47000000000E+01 0.  1.
         15    1    6    6    0    0  0.29260702609E+02 -0.14013869108E+02  0.17822311790E+03  0.18116074279E+03  0.17770000000E+01 0. -1.
        -16    1    6    6    0    0  0.38079868042E+02  0.13215877510E+02  0.23912181677E+02  0.46867133484E+02  0.00000000000E+00 0.  1.
<mgrwt>
<rscale>  2 0.19702972E+03</rscale>
<asrwt>0</asrwt>
<pdfrwt beam="1">  1       21 0.79912660E-01 0.19710691E+03</pdfrwt>
<pdfrwt beam="2">  1       21 0.16264482E-01 0.19710691E+03</pdfrwt>
<totfact> 0.46547551E+04</totfact>
</mgrwt>
</event>
<event>
12    2  0.4097182E-002  0.1867592E+03  0.7546771E-02  0.1161715E+00
         21   -1    0    0  503  502  0.00000000000E+00  0.00000000000E+00  0.88908217875E+02  0.88908217875E+02  0.00000000000E+00 0. -1.
         21   -1    0    0  501  503 -0.00000000000E+00 -0.00000000000E+00 -0.46643023932E+03  0.46643023932E+03  0.00000000000E+00 0. -1.
          6    2    1    2  501    0 -0.31577396950E+02  0.64324052433E+02 -0.30090360895E+03  0.35347365778E+03  0.17107287671E+03 0.  0.
         24    2    3    3    0    0 -0.83380603986E+02  0.39069014428E+02 -0.24687175415E+03  0.27433504181E+03  0.76389391671E+02 0.  0.
         -6    2    1    2    0  502  0.31577396950E+02 -0.64324052433E+02 -0.76618412493E+02  0.20186479941E+03  0.17246535997E+03 0.  0.
        -24    2    5    5    0    0  0.21556193611E+02 -0.10929216859E+03 -0.69794538581E+02  0.15505442404E+03  0.82226207511E+02 0.  0.
          5    1    3    3  501    0  0.51803207036E+02  0.25255038005E+02 -0.54031854797E+02  0.79138615964E+02  0.47000000000E+01 0. -1.
        -15    1    4    4    0    0 -0.63082391476E+02  0.19401127804E+02 -0.74013700296E+02  0.99181537772E+02  0.17770000000E+01 0.  1.
         16    1    4    4    0    0 -0.20298212510E+02  0.19667886623E+02 -0.17285805386E+03  0.17515350404E+03  0.00000000000E+00 0. -1.
         -5    1    5    5    0  502  0.10021203339E+02  0.44968116157E+02 -0.68238739126E+01  0.46810375370E+02  0.47000000000E+01 0.  1.
         15    1    6    6    0    0 -0.10420149649E+02 -0.65925774469E+02  0.14373589754E+00  0.66767998675E+02  0.17770000000E+01 0. -1.
        -16    1    6    6    0    0  0.31976343260E+02 -0.43366394121E+02 -0.69938274478E+02  0.88286425369E+02  0.00000000000E+00 0.  1.
<mgrwt>
<rscale>  2 0.18643713E+03</rscale>
<asrwt>0</asrwt>
<pdfrwt beam="1">  1       21 0.13678188E-01 0.18675925E+03</pdfrwt>
<pdfrwt beam="2">  1       21 0.71758498E-01 0.18675925E+03</pdfrwt>
<totfact> 0.81542769E+04</totfact>
</mgrwt>
</event>
<event>
12    2  0.4097182E-002  0.2656571E+03  0.7546771E-02  0.1103851E+00
         21   -1    0    0  501  502  0.00000000000E+00  0.00000000000E+00  0.47513918491E+03  0.47513918491E+03  0.00000000000E+00 0. -1.
         21   -1    0    0  502  503 -0.00000000000E+00 -0.00000000000E+00 -0.32368851563E+03  0.32368851563E+03  0.00000000000E+00 0.  1.
         -6    2    1    2    0  503 -0.16447485663E+03 -0.11564977520E+03 -0.21830571049E+03  0.34353279506E+03  0.17300447705E+03 0.  0.
        -24    2    3    3    0    0 -0.63641708140E+02  0.12974468098E+02 -0.24769387892E+02  0.90175501964E+02  0.57441228578E+02 0.  0.
          6    2    1    2  501    0  0.16447485663E+03  0.11564977520E+03  0.36975637977E+03  0.45529490548E+03  0.17362840092E+03 0.  0.
         24    2    5    5    0    0  0.16810564038E+03  0.49260913177E+02  0.31293339272E+03  0.36770720401E+03  0.81210440882E+02 0.  0.
          5    1    5    5  501    0 -0.36307837423E+01  0.66388862026E+02  0.56822987052E+02  0.87587701472E+02  0.47000000000E+01 0. -1.
        -15    1    6    6    0    0  0.60731982366E+02 -0.19049129097E+02  0.79687320411E+02  0.10200230274E+03  0.17770000000E+01 0.  1.
         16    1    6    6    0    0  0.10737365801E+03  0.68310042274E+02  0.23324607231E+03  0.26570490127E+03  0.00000000000E+00 0. -1.
         -5    1    3    3    0  503 -0.10083314849E+03 -0.12862424330E+03 -0.19353632260E+03  0.25335729310E+03  0.47000000000E+01 0.  1.
         15    1    4    4    0    0 -0.43379737301E+02  0.37089918832E+01  0.13736733606E+02  0.45688223956E+02  0.17770000000E+01 0. -1.
        -16    1    4    4    0    0 -0.20261970839E+02  0.92654762144E+01 -0.38506121498E+02  0.44487278008E+02  0.00000000000E+00 0.  1.
<mgrwt>
<rscale>  2 0.26555515E+03</rscale>
<asrwt>0</asrwt>
<pdfrwt beam="1">  1       21 0.73098336E-01 0.26565705E+03</pdfrwt>
<pdfrwt beam="2">  1       21 0.49798233E-01 0.26565705E+03</pdfrwt>
<totfact> 0.61664651E+03</totfact>
</mgrwt>
</event>
<event>
12    2  0.4097182E-002  0.1791067E+03  0.7546771E-02  0.1169423E+00
         21   -1    0    0  503  502  0.00000000000E+00  0.00000000000E+00  0.26149897833E+03  0.26149897833E+03  0.00000000000E+00 0.  1.
         21   -1    0    0  501  503 -0.00000000000E+00 -0.00000000000E+00 -0.12220696785E+03  0.12220696785E+03  0.00000000000E+00 0.  1.
          6    2    1    2  501    0 -0.33420239291E+02 -0.44903005816E+01  0.46956895580E+02  0.18219918350E+03  0.17278459779E+03 0.  0.
         24    2    3    3    0    0 -0.72483744641E+02  0.39880447606E+02  0.39253633849E+02  0.12239825553E+03  0.81216635295E+02 0.  0.
         -6    2    1    2    0  502  0.33420239291E+02  0.44903005816E+01  0.92335114906E+02  0.20150676268E+03  0.17590374290E+03 0.  0.
        -24    2    5    5    0    0 -0.31244339746E+02 -0.44164387806E+02  0.35172988699E+02  0.10231812847E+03  0.79405027315E+02 0.  0.
          5    1    3    3  501    0  0.39063505349E+02 -0.44370748188E+02  0.77032617312E+01  0.59800927971E+02  0.47000000000E+01 0. -1.
        -15    1    4    4    0    0 -0.40954627012E+02  0.44281732072E+02  0.59440681936E+02  0.84702453725E+02  0.17770000000E+01 0.  1.
         16    1    4    4    0    0 -0.31529117629E+02 -0.44012844663E+01 -0.20187048087E+02  0.37695801807E+02  0.00000000000E+00 0. -1.
         -5    1    5    5    0  502  0.64664579037E+02  0.48654688387E+02  0.57162126207E+02  0.99188634211E+02  0.47000000000E+01 0.  1.
         15    1    6    6    0    0 -0.18096796991E+02  0.19485329163E+02  0.24983387531E+02  0.36530802009E+02  0.17770000000E+01 0. -1.
        -16    1    6    6    0    0 -0.13147542755E+02 -0.63649716968E+02  0.10189601168E+02  0.65787326459E+02  0.00000000000E+00 0.  1.
<mgrwt>
<rscale>  2 0.17833612E+03</rscale>
<asrwt>0</asrwt>
<pdfrwt beam="1">  1       21 0.40230612E-01 0.17910668E+03</pdfrwt>
<pdfrwt beam="2">  1       21 0.18801072E-01 0.17910668E+03</pdfrwt>
<totfact> 0.15487297E+05</totfact>
</mgrwt>
</event>
<event>
12    2  0.4097182E-002  0.2327675E+03  0.7546771E-02  0.1124770E+00
         21   -1    0    0  503  502  0.00000000000E+00  0.00000000000E+00  0.77924421737E+02  0.77924421737E+02  0.00000000000E+00 0. -1.
         21   -1    0    0  501  503 -0.00000000000E+00 -0.00000000000E+00 -0.69492325557E+03  0.69492325557E+03  0.00000000000E+00 0.  1.
          6    2    1    2  501    0  0.15403765903E+03  0.11447059118E+01 -0.32058119822E+03  0.39596026326E+03  0.17402101793E+03 0.  0.
         24    2    3    3    0    0  0.65500750596E+02 -0.63203340448E+02 -0.18716812865E+03  0.22333178254E+03  0.80994852540E+02 0.  0.
         -6    2    1    2    0  502 -0.15403765903E+03 -0.11447059118E+01 -0.29641763561E+03  0.37688741404E+03  0.17450443378E+03 0.  0.
        -24    2    5    5    0    0 -0.17372445737E+03 -0.22157502902E+02 -0.28671843446E+03  0.34614213523E+03  0.83281300976E+02 0.  0.
          5    1    3    3  501    0  0.88536908431E+02  0.64348046360E+02 -0.13341306957E+03  0.17262848072E+03  0.47000000000E+01 0. -1.
        -15    1    4    4    0    0 -0.34856537231E+01 -0.45142117444E+02 -0.42884963633E+02  0.62387806373E+02  0.17770000000E+01 0.  1.
         16    1    4    4    0    0  0.68986404319E+02 -0.18061223004E+02 -0.14428316502E+03  0.16094397617E+03  0.00000000000E+00 0. -1.
         -5    1    5    5    0  502  0.19686798346E+02  0.21012796990E+02 -0.96992011449E+01  0.30745278813E+02  0.47000000000E+01 0.  1.
         15    1    6    6    0    0 -0.94901579524E+02 -0.52864882995E+02 -0.14665672239E+03  0.18251673238E+03  0.17770000000E+01 0. -1.
        -16    1    6    6    0    0 -0.78822877850E+02  0.30707380093E+02 -0.14006171208E+03  0.16362540284E+03  0.00000000000E+00 0.  1.
<mgrwt>
<rscale>  2 0.23267690E+03</rscale>
<asrwt>0</asrwt>
<pdfrwt beam="1">  1       21 0.11988373E-01 0.23276750E+03</pdfrwt>
<pdfrwt beam="2">  1       21 0.10691127E+00 0.23276750E+03</pdfrwt>
<totfact> 0.40283748E+04</totfact>
</mgrwt>
</event>
<event>
12    2  0.4097182E-002  0.1990548E+03  0.7546771E-02  0.1151013E+00
         21   -1    0    0  501  502  0.00000000000E+00  0.00000000000E+00  0.23540022362E+04  0.23540022362E+04  0.00000000000E+00 0.  1.
         21   -1    0    0  502  503 -0.00000000000E+00 -0.00000000000E+00 -0.25920949638E+02  0.25920949638E+02  0.00000000000E+00 0.  1.
         -6    2    1    2    0  503  0.88531471969E+02  0.35245707348E+02  0.44800332567E+03  0.48933705022E+03  0.17223149390E+03 0.  0.
        -24    2    3    3    0    0  0.45527475866E+02  0.36044451036E+02  0.43398577406E+03  0.44385558778E+03  0.72747351913E+02 0.  0.
          6    2    1    2  501    0 -0.88531471969E+02 -0.35245707348E+02  0.18800779609E+04  0.18905861356E+04  0.17476474401E+03 0.  0.
         24    2    5    5    0    0 -0.44868904653E+02  0.35145705860E+02  0.87304866288E+03  0.88014491125E+03  0.95878349004E+02 0.  0.
          5    1    5    5  501    0 -0.43662567316E+02 -0.70391413209E+02  0.10070292980E+04  0.10104412244E+04  0.47000000000E+01 0. -1.
        -15    1    6    6    0    0 -0.32852879614E+02  0.73050464665E+01  0.80430170843E+03  0.80500749768E+03  0.17770000000E+01 0.  1.
         16    1    6    6    0    0 -0.12016025039E+02  0.27840659394E+02  0.68746954447E+02  0.75137413577E+02  0.00000000000E+00 0. -1.
         -5    1    3    3    0  503  0.43003996102E+02 -0.79874368802E+00  0.14017551612E+02  0.45481462437E+02  0.47000000000E+01 0.  1.
         15    1    4    4    0    0  0.69182756823E+01 -0.12349843953E+02  0.23566798270E+03  0.23609942182E+03  0.17770000000E+01 0. -1.
        -16    1    4    4    0    0  0.38609200184E+02  0.48394294989E+02  0.19831779136E+03  0.20775616597E+03  0.00000000000E+00 0.  1.
<mgrwt>
<rscale>  2 0.19849732E+03</rscale>
<asrwt>0</asrwt>
<pdfrwt beam="1">  1       21 0.36215402E+00 0.19905476E+03</pdfrwt>
<pdfrwt beam="2">  1       21 0.39878403E-02 0.19905476E+03</pdfrwt>
<totfact> 0.57866162E+03</totfact>
</mgrwt>
</event>
<event>
12    2  0.4097182E-002  0.2248254E+03  0.7546771E-02  0.1130526E+00
         21   -1    0    0  503  502  0.00000000000E+00  0.00000000000E+00  0.57468522178E+02  0.57468522178E+02  0.00000000000E+00 0. -1.
         21   -1    0    0  501  503 -0.00000000000E+00 -0.00000000000E+00 -0.10003168144E+04  0.10003168144E+04  0.00000000000E+00 0. -1.
          6    2    1    2  501    0 -0.67676156947E+02 -0.12672782294E+03 -0.28361193989E+03  0.36126612158E+03  0.17157352601E+03 0.  0.
         24    2    3    3    0    0 -0.43300094651E+01 -0.26146545820E+02 -0.42201864627E+02  0.92137449481E+02  0.77497879833E+02 0.  0.
         -6    2    1    2    0  502  0.67676156947E+02  0.12672782294E+03 -0.65923635230E+03  0.69651921496E+03  0.17293480072E+03 0.  0.
        -24    2    5    5    0    0  0.81996808078E+02  0.13470868311E+03 -0.40409044893E+03  0.44080394912E+03  0.78416355479E+02 0.  0.
          5    1    3    3  501    0 -0.63346147482E+02 -0.10058127712E+03 -0.24141007526E+03  0.26912867209E+03  0.47000000000E+01 0. -1.
        -15    1    4    4    0    0  0.13429235285E+02  0.22835823051E+02 -0.25711985692E+01  0.26675606194E+02  0.17770000000E+01 0.  1.
         16    1    4    4    0    0 -0.17759244750E+02 -0.48982368871E+02 -0.39630666058E+02  0.65461843287E+02  0.00000000000E+00 0. -1.
         -5    1    5    5    0  502 -0.14320651131E+02 -0.79808601777E+01 -0.25514590337E+03  0.25571526584E+03  0.47000000000E+01 0.  1.
         15    1    6    6    0    0  0.97288066912E+02  0.10838558513E+03 -0.33142523446E+03  0.36201967736E+03  0.17770000000E+01 0. -1.
        -16    1    6    6    0    0 -0.15291258833E+02  0.26323097981E+02 -0.72665214467E+02  0.78784271765E+02  0.00000000000E+00 0.  1.
<mgrwt>
<rscale>  2 0.22456357E+03</rscale>
<asrwt>0</asrwt>
<pdfrwt beam="1">  1       21 0.88413121E-02 0.22482537E+03</pdfrwt>
<pdfrwt beam="2">  1       21 0.15389488E+00 0.22482537E+03</pdfrwt>
<totfact> 0.27597099E+04</totfact>
</mgrwt>
</event>
<event>
12    2  0.4097182E-002  0.1760425E+03  0.7546771E-02  0.1172086E+00
         21   -1    0    0  501  502  0.00000000000E+00  0.00000000000E+00  0.47992909669E+02  0.47992909669E+02  0.00000000000E+00 0.  1.
         21   -1    0    0  502  503 -0.00000000000E+00 -0.00000000000E+00 -0.15826849680E+04  0.15826849680E+04  0.00000000000E+00 0.  1.
         -6    2    1    2    0  503 -0.38309677595E+02 -0.15881764653E+02 -0.13980179179E+04  0.14090582156E+04  0.17108797238E+03 0.  0.
        -24    2    3    3    0    0 -0.40737440134E+02 -0.63748258810E+02 -0.12056947864E+04  0.12107973465E+04  0.81282943166E+02 0.  0.
          6    2    1    2  501    0  0.38309677595E+02  0.15881764653E+02 -0.13667414042E+03  0.22161966207E+03  0.16945675587E+03 0.  0.
         24    2    5    5    0    0  0.38853517014E+02 -0.25377517058E+02 -0.20400167546E+02  0.98151646552E+02  0.84047395727E+02 0.  0.
          5    1    5    5  501    0 -0.54383941961E+00  0.41259281711E+02 -0.11627397287E+03  0.12346801552E+03  0.47000000000E+01 0. -1.
        -15    1    6    6    0    0 -0.33384984432E+01  0.12120198572E+02  0.23454857127E+02  0.26670823705E+02  0.17770000000E+01 0.  1.
         16    1    6    6    0    0  0.42192015458E+02 -0.37497715630E+02 -0.43855024673E+02  0.71480822847E+02  0.00000000000E+00 0. -1.
         -5    1    3    3    0  503  0.24277625397E+01  0.47866494157E+02 -0.19232313150E+03  0.19826086907E+03  0.47000000000E+01 0.  1.
         15    1    4    4    0    0  0.11428429058E+02 -0.50318359871E+02 -0.40244013917E+03  0.40573854842E+03  0.17770000000E+01 0. -1.
        -16    1    4    4    0    0 -0.52165869193E+02 -0.13429898938E+02 -0.80325464724E+03  0.80505879810E+03  0.00000000000E+00 0.  1.
<mgrwt>
<rscale>  2 0.17564492E+03</rscale>
<asrwt>0</asrwt>
<pdfrwt beam="1">  1       21 0.73835237E-02 0.17604248E+03</pdfrwt>
<pdfrwt beam="2">  1       21 0.24349002E+00 0.17604248E+03</pdfrwt>
<totfact> 0.10182378E+04</totfact>
</mgrwt>
</event>
<event>
12    2  0.4097182E-002  0.2170726E+03  0.7546771E-02  0.1136467E+00
         21   -1    0    0  501  502  0.00000000000E+00  0.00000000000E+00  0.23521095516E+04  0.23521095516E+04  0.00000000000E+00 0. -1.
         21   -1    0    0  502  503 -0.00000000000E+00 -0.00000000000E+00 -0.20059786052E+02  0.20059786052E+02  0.00000000000E+00 0.  1.
         -6    2    1    2    0  503  0.10643347702E+03 -0.70899615022E+02  0.10496787123E+04  0.10718889522E+04  0.17540150087E+03 0.  0.
        -24    2    3    3    0    0  0.97899856580E+02  0.81178801749E+01  0.79186715443E+03  0.80206405239E+03  0.81258057908E+02 0.  0.
          6    2    1    2  501    0 -0.10643347702E+03  0.70899615022E+02  0.12823710532E+04  0.13002803854E+04  0.17291246904E+03 0.  0.
         24    2    5    5    0    0 -0.29167423471E+02 -0.20073990580E+02  0.71386872352E+03  0.71936453187E+03  0.81382256098E+02 0.  0.
          5    1    5    5  501    0 -0.77266053546E+02  0.90973605602E+02  0.56850232972E+03  0.58091585350E+03  0.47000000000E+01 0. -1.
        -15    1    6    6    0    0 -0.21487084566E+02  0.10461981757E+02  0.58208277334E+02  0.62948464196E+02  0.17770000000E+01 0.  1.
         16    1    6    6    0    0 -0.76803389048E+01 -0.30535972336E+02  0.65566044619E+03  0.65641606768E+03  0.00000000000E+00 0. -1.
         -5    1    3    3    0  503  0.85336204375E+01 -0.79017495197E+02  0.25781155784E+03  0.26982489985E+03  0.47000000000E+01 0.  1.
         15    1    4    4    0    0  0.45130256405E+02 -0.31334175385E+02  0.49097270670E+03  0.49404041034E+03  0.17770000000E+01 0. -1.
        -16    1    4    4    0    0  0.52769600175E+02  0.39452055560E+02  0.30089444773E+03  0.30802364205E+03  0.00000000000E+00 0.  1.
<mgrwt>
<rscale>  2 0.21656933E+03</rscale>
<asrwt>0</asrwt>
<pdfrwt beam="1">  1       21 0.36186279E+00 0.21707263E+03</pdfrwt>
<pdfrwt beam="2">  1       21 0.30861228E-02 0.21707263E+03</pdfrwt>
<totfact> 0.87260554E+03</totfact>
</mgrwt>
</event>
<event>
12    2  0.4097182E-002  0.1946382E+03  0.7546771E-02  0.1154956E+00
         21   -1    0    0  501  502  0.00000000000E+00  0.00000000000E+00  0.31171932754E+02  0.31171932754E+02  0.00000000000E+00 0. -1.
         21   -1    0    0  502  503 -0.00000000000E+00 -0.00000000000E+00 -0.11980063225E+04  0.11980063225E+04  0.00000000000E+00 0. -1.
         -6    2    1    2    0  503  0.82057556554E+02 -0.13880110955E+02 -0.57970214605E+03  0.61062486615E+03  0.17286425007E+03 0.  0.
        -24    2    3    3    0    0  0.39881945907E+02  0.15371496551E+02 -0.13141544380E+03  0.15938491214E+03  0.79414600882E+02 0.  0.
          6    2    1    2  501    0 -0.82057556554E+02  0.13880110955E+02 -0.58713224367E+03  0.61855338908E+03  0.17594863887E+03 0.  0.
         24    2    5    5    0    0  0.19803832610E+02 -0.13257620667E+02 -0.18957525214E+03  0.20723131261E+03  0.80237674507E+02 0.  0.
          5    1    5    5  501    0 -0.10186138916E+03  0.27137731622E+02 -0.39755699153E+03  0.41132207647E+03  0.47000000000E+01 0. -1.
        -15    1    6    6    0    0  0.16942779086E+02  0.21077911779E+02 -0.15860382507E+03  0.16090266369E+03  0.17770000000E+01 0.  1.
         16    1    6    6    0    0  0.28610535233E+01 -0.34335532446E+02 -0.30971427073E+02  0.46328648918E+02  0.00000000000E+00 0. -1.
         -5    1    3    3    0  503  0.42175610647E+02 -0.29251607507E+02 -0.44828670226E+03  0.45123995401E+03  0.47000000000E+01 0.  1.
         15    1    4    4    0    0  0.37475168574E+02 -0.55723303609E+01 -0.13294323064E+03  0.13824796355E+03  0.17770000000E+01 0. -1.
        -16    1    4    4    0    0  0.24067773336E+01  0.20943826912E+02  0.15277868402E+01  0.21136948585E+02  0.00000000000E+00 0.  1.
<mgrwt>
<rscale>  2 0.19393850E+03</rscale>
<asrwt>0</asrwt>
<pdfrwt beam="1">  1       21 0.47956827E-02 0.19463819E+03</pdfrwt>
<pdfrwt beam="2">  1       21 0.18430864E+00 0.19463819E+03</pdfrwt>
<totfact> 0.49063426E+04</totfact>
</mgrwt>
</event>
<event>
12    2  0.4097182E-002  0.1905522E+03  0.7546771E-02  0.1158316E+00
         21   -1    0    0  503  502  0.00000000000E+00  0.00000000000E+00  0.10989616921E+03  0.10989616921E+03  0.00000000000E+00 0. -1.
         21   -1    0    0  501  503 -0.00000000000E+00 -0.00000000000E+00 -0.39608782950E+03  0.39608782950E+03  0.00000000000E+00 0. -1.
          6    2    1    2  501    0 -0.12303260764E+01  0.79866626157E+02 -0.24869891327E+03  0.31330704025E+03  0.17300277551E+03 0.  0.
         24    2    3    3    0    0 -0.59476856045E+02  0.46857449148E+02 -0.20599447422E+03  0.23375816763E+03  0.80473850292E+02 0.  0.
         -6    2    1    2    0  502  0.12303260764E+01 -0.79866626157E+02 -0.37492747017E+02  0.19267695845E+03  0.17128488715E+03 0.  0.
        -24    2    5    5    0    0  0.54132847096E+02 -0.62602815547E+02  0.14834915528E+02  0.11614598332E+03  0.80127005899E+02 0.  0.
          5    1    3    3  501    0  0.58246529969E+02  0.33009177008E+02 -0.42704439051E+02  0.79548872618E+02  0.47000000000E+01 0. -1.
        -15    1    4    4    0    0 -0.20885238752E+02 -0.20019204605E+02 -0.88832848631E+02  0.93441931035E+02  0.17770000000E+01 0.  1.
         16    1    4    4    0    0 -0.38591617293E+02  0.66876653753E+02 -0.11716162559E+03  0.14031623660E+03  0.00000000000E+00 0. -1.
         -5    1    5    5    0  502 -0.52902521020E+02 -0.17263810610E+02 -0.52327662545E+02  0.76530975130E+02  0.47000000000E+01 0.  1.
         15    1    6    6    0    0 -0.15373864570E+02  0.68069254942E+01  0.34984774848E+01  0.17265196790E+02  0.17770000000E+01 0. -1.
        -16    1    6    6    0    0  0.69506711666E+02 -0.69409741041E+02  0.11336438043E+02  0.98880786533E+02  0.00000000000E+00 0.  1.
<mgrwt>
<rscale>  2 0.19016145E+03</rscale>
<asrwt>0</asrwt>
<pdfrwt beam="1">  1       21 0.16907103E-01 0.19055223E+03</pdfrwt>
<pdfrwt beam="2">  1       21 0.60936590E-01 0.19055223E+03</pdfrwt>
<totfact> 0.79052992E+04</totfact>
</mgrwt>
</event>
<event>
12    2  0.4097182E-002  0.1887115E+03  0.7546771E-02  0.1160057E+00
         21   -1    0    0  503  502  0.00000000000E+00  0.00000000000E+00  0.57573574738E+03  0.57573574738E+03  0.00000000000E+00 0. -1.
         21   -1    0    0  501  503 -0.00000000000E+00 -0.00000000000E+00 -0.24725691583E+03  0.24725691583E+03  0.00000000000E+00 0. -1.
          6    2    1    2  501    0  0.49799625802E+02  0.60424310656E+02 -0.19287681740E+03  0.26853459710E+03  0.16964157244E+03 0.  0.
         24    2    3    3    0    0  0.81012969164E+00 -0.13844042916E+02 -0.14829157689E+03  0.16890682615E+03  0.79666870856E+02 0.  0.
         -6    2    1    2    0  502 -0.49799625802E+02 -0.60424310656E+02  0.52135564895E+03  0.55445806611E+03  0.17170012909E+03 0.  0.
        -24    2    5    5    0    0 -0.91451924479E+02 -0.44152733691E+02  0.46313059330E+03  0.48089227713E+03  0.80340011029E+02 0.  0.
          5    1    3    3  501    0  0.48989496111E+02  0.74268353572E+02 -0.44585240514E+02  0.99627770944E+02  0.47000000000E+01 0. -1.
        -15    1    4    4    0    0 -0.31880076933E+02  0.93901615365E+01 -0.33125015738E+02  0.46956776248E+02  0.17770000000E+01 0.  1.
         16    1    4    4    0    0  0.32690206625E+02 -0.23234204453E+02 -0.11516656115E+03  0.12195004991E+03  0.00000000000E+00 0. -1.
         -5    1    5    5    0  502  0.41652298677E+02 -0.16271576965E+02  0.58225055655E+02  0.73565788978E+02  0.47000000000E+01 0.  1.
         15    1    6    6    0    0 -0.85611691427E+02 -0.40192125607E+02  0.24469099587E+03  0.26233873115E+03  0.17770000000E+01 0. -1.
        -16    1    6    6    0    0 -0.58402330518E+01 -0.39606080833E+01  0.21843959743E+03  0.21855354598E+03  0.00000000000E+00 0.  1.
<mgrwt>
<rscale>  2 0.18824200E+03</rscale>
<asrwt>0</asrwt>
<pdfrwt beam="1">  1       21 0.88574730E-01 0.18871151E+03</pdfrwt>
<pdfrwt beam="2">  1       21 0.38039526E-01 0.18871151E+03</pdfrwt>
<totfact> 0.72861615E+03</totfact>
</mgrwt>
</event>
<event>
12    2  0.4097182E-002  0.2117201E+03  0.7546771E-02  0.1140334E+00
         21   -1    0    0  501  502  0.00000000000E+00  0.00000000000E+00  0.17989066016E+03  0.17989066016E+03  0.00000000000E+00 0.  1.
         21   -1    0    0  502  503 -0.00000000000E+00 -0.00000000000E+00 -0.68900220644E+03  0.68900220644E+03  0.00000000000E+00 0.  1.
         -6    2    1    2    0  503 -0.10972468265E+03 -0.51505288507E+02 -0.60209129546E+03  0.63823139906E+03  0.17358885319E+03 0.  0.
        -24    2    3    3    0    0 -0.10305156193E+03 -0.95274834379E+02 -0.52466792621E+03  0.54891862399E+03  0.79613469209E+02 0.  0.
          6    2    1    2  501    0  0.10972468265E+03  0.51505288507E+02  0.92979749179E+02  0.23066146755E+03  0.17282123170E+03 0.  0.
         24    2    5    5    0    0  0.63576182706E+02  0.72744083247E+02  0.11953984829E+03  0.17314365019E+03  0.79720233436E+02 0.  0.
          5    1    5    5  501    0  0.46148499940E+02 -0.21238794740E+02 -0.26560099107E+02  0.57517817355E+02  0.47000000000E+01 0. -1.
        -15    1    6    6    0    0  0.58573962609E+02  0.19186946101E+02  0.29724043575E+02  0.68452351982E+02  0.17770000000E+01 0.  1.
         16    1    6    6    0    0  0.50022200960E+01  0.53557137146E+02  0.89815804710E+02  0.10469129821E+03  0.00000000000E+00 0. -1.
         -5    1    3    3    0  503 -0.66731207138E+01  0.43769545871E+02 -0.77423369242E+02  0.89312775070E+02  0.47000000000E+01 0.  1.
         15    1    4    4    0    0 -0.78256101895E+02 -0.67212325853E+02 -0.47838168377E+03  0.48938094295E+03  0.17770000000E+01 0. -1.
        -16    1    4    4    0    0 -0.24795460037E+02 -0.28062508526E+02 -0.46286242443E+02  0.59537681033E+02  0.00000000000E+00 0.  1.
<mgrwt>
<rscale>  2 0.21156267E+03</rscale>
<asrwt>0</asrwt>
<pdfrwt beam="1">  1       21 0.27675486E-01 0.21172008E+03</pdfrwt>
<pdfrwt beam="2">  1       21 0.10600034E+00 0.21172008E+03</pdfrwt>
<totfact> 0.87788305E+03</totfact>
</mgrwt>
</event>
<event>
12    2  0.4097182E-002  0.2859667E+03  0.7546771E-02  0.1092488E+00
         21   -1    0    0  503  502  0.00000000000E+00  0.00000000000E+00  0.60290182322E+03  0.60290182322E+03  0.00000000000E+00 0.  1.
         21   -1    0    0  501  503 -0.00000000000E+00 -0.00000000000E+00 -0.19364440274E+03  0.19364440274E+03  0.00000000000E+00 0.  1.
          6    2    1    2  501    0  0.20516697480E+03  0.99510455920E+02 -0.13469911121E+02  0.28617837516E+03  0.17239723176E+03 0.  0.
         24    2    3    3    0    0  0.20861511721E+03  0.85924843456E+02  0.26879447972E+02  0.24320606627E+03  0.86737189814E+02 0.  0.
         -6    2    1    2    0  502 -0.20516697480E+03 -0.99510455920E+02  0.42272733160E+03  0.51036785080E+03  0.17257209470E+03 0.  0.
        -24    2    5    5    0    0 -0.77071839671E+02  0.17084899105E+02  0.15715403061E+03  0.19326517239E+03  0.80137851707E+02 0.  0.
          5    1    3    3  501    0 -0.34481424129E+01  0.13585612464E+02 -0.40349359093E+02  0.42972308890E+02  0.47000000000E+01 0. -1.
        -15    1    4    4    0    0  0.11227560922E+03  0.87640757295E+02 -0.25236467525E+01  0.14246487738E+03  0.17770000000E+01 0.  1.
         16    1    4    4    0    0  0.96339507989E+02 -0.17159138390E+01  0.29403094724E+02  0.10074118889E+03  0.00000000000E+00 0. -1.
         -5    1    5    5    0  502 -0.12809513512E+03 -0.11659535502E+03  0.26557330099E+03  0.31710267841E+03  0.47000000000E+01 0.  1.
         15    1    6    6    0    0 -0.71733199806E+02  0.29778200950E+02  0.16117350897E+03  0.17892023622E+03  0.17770000000E+01 0. -1.
        -16    1    6    6    0    0 -0.53386398652E+01 -0.12693301846E+02 -0.40194783671E+01  0.14344936169E+02  0.00000000000E+00 0.  1.
<mgrwt>
<rscale>  2 0.28594031E+03</rscale>
<asrwt>0</asrwt>
<pdfrwt beam="1">  1       21 0.92754126E-01 0.28596669E+03</pdfrwt>
<pdfrwt beam="2">  1       21 0.29791447E-01 0.28596669E+03</pdfrwt>
<totfact> 0.10016195E+04</totfact>
</mgrwt>
</event>
<event>
12    2  0.4097182E-002  0.1940415E+03  0.7546771E-02  0.1154898E+00
         21   -1    0    0  501  502  0.00000000000E+00  0.00000000000E+00  0.10587684342E+04  0.10587684342E+04  0.00000000000E+00 0.  1.
         21   -1    0    0  502  503 -0.00000000000E+00 -0.00000000000E+00 -0.72563978153E+02  0.72563978153E+02  0.00000000000E+00 0.  1.
         -6    2    1    2    0  503 -0.57789201812E+01  0.86617421858E+02  0.88928076427E+02  0.21331442571E+03  0.17337493403E+03 0.  0.
        -24    2    3    3    0    0  0.13483664196E+01  0.32162992956E+02  0.12170012931E+03  0.14918814021E+03  0.80061872940E+02 0.  0.
          6    2    1    2  501    0  0.57789201812E+01 -0.86617421858E+02  0.89727637959E+03  0.91801798661E+03  0.17354004923E+03 0.  0.
         24    2    5    5    0    0  0.52261186340E+02 -0.24526677973E+02  0.68191248438E+03  0.68906480602E+03  0.80454216869E+02 0.  0.
          5    1    5    5  501    0 -0.46482266159E+02 -0.62090743885E+02  0.21536389521E+03  0.22895318059E+03  0.47000000000E+01 0. -1.
        -15    1    6    6    0    0  0.53034168566E+02 -0.50370240520E+02  0.50090338631E+03  0.50621847488E+03  0.17770000000E+01 0.  1.
         16    1    6    6    0    0 -0.77298222636E+00  0.25843562547E+02  0.18100909808E+03  0.18284633114E+03  0.00000000000E+00 0. -1.
         -5    1    3    3    0  503 -0.71272866008E+01  0.54454428902E+02 -0.32772052883E+02  0.64126285496E+02  0.47000000000E+01 0.  1.
         15    1    4    4    0    0 -0.16259177870E+02 -0.22697804642E+02  0.49004868163E+02  0.56428592338E+02  0.17770000000E+01 0. -1.
        -16    1    4    4    0    0  0.17607544289E+02  0.54860797598E+02  0.72695261147E+02  0.92759547877E+02  0.00000000000E+00 0.  1.
<mgrwt>
<rscale>  2 0.19400462E+03</rscale>
<asrwt>0</asrwt>
<pdfrwt beam="1">  1       21 0.16288744E+00 0.19404155E+03</pdfrwt>
<pdfrwt beam="2">  1       21 0.11163690E-01 0.19404155E+03</pdfrwt>
<totfact> 0.15993056E+04</totfact>
</mgrwt>
</event>
<event>
11    2  0.4097182E-002  0.2098438E+03  0.7546771E-02  0.1141832E+00
         21   -1    0    0  503  502  0.00000000000E+00  0.00000000000E+00  0.36134393185E+03  0.36134393185E+03  0.00000000000E+00 0. -1.
         21   -1    0    0  501  503 -0.00000000000E+00 -0.00000000000E+00 -0.13155756205E+03  0.13155756205E+03  0.00000000000E+00 0.  1.
          6    2    1    2  501    0 -0.11645532068E+03 -0.25766363587E+02  0.46751203701E+02  0.21498854570E+03  0.17265182457E+03 0.  0.
         24    2    3    3    0    0 -0.79916514491E+02 -0.27614510311E+02  0.97718168440E+02  0.15207414752E+03  0.80177898648E+02 0.  0.
         -6    2    1    2    0  502  0.11645532068E+03  0.25766363587E+02  0.18303516610E+03  0.27791294820E+03  0.17177889143E+03 0.  0.
          5    1    3    3  501    0 -0.36538806190E+02  0.18481467240E+01 -0.50966964739E+02  0.62914398184E+02  0.47000000000E+01 0. -1.
        -15    1    4    4    0    0 -0.81274413174E+01  0.29853868320E+01 -0.13543623735E+02  0.16172671696E+02  0.17770000000E+01 0.  1.
         16    1    4    4    0    0 -0.71789073174E+02 -0.30599897143E+02  0.11126179218E+03  0.13590147582E+03  0.00000000000E+00 0. -1.
         -5    1    5    5    0  502  0.44822293950E+02  0.43228605388E+02  0.93868529264E+02  0.11274369670E+03  0.47000000000E+01 0.  1.
         15    1    5    5    0    0  0.49850481937E+02 -0.91255095034E+01  0.11779280870E+03  0.12824448910E+03  0.17770000000E+01 0. -1.
        -16    1    5    5    0    0  0.21782544794E+02 -0.83367322976E+01 -0.28626171865E+02  0.36924762406E+02  0.00000000000E+00 0.  1.
<mgrwt>
<rscale>  2 0.20966411E+03</rscale>
<asrwt>0</asrwt>
<pdfrwt beam="1">  1       21 0.55591374E-01 0.20984375E+03</pdfrwt>
<pdfrwt beam="2">  1       21 0.20239625E-01 0.20984375E+03</pdfrwt>
<totfact> 0.68309985E+04</totfact>
</mgrwt>
</event>
<event>
12    2  0.4097182E-002  0.2718463E+03  0.7546771E-02  0.1100430E+00
         21   -1    0    0  503  502  0.00000000000E+00  0.00000000000E+00  0.44231927485E+02  0.44231927485E+02  0.00000000000E+00 0. -1.
         21   -1    0    0  501  503 -0.00000000000E+00 -0.00000000000E+00 -0.20102621716E+04  0.20102621716E+04  0.00000000000E+00 0.  1.
          6    2    1    2  501    0  0.18583857133E+03 -0.94814851133E+02 -0.14127093168E+04  0.14386271235E+04  0.17428297650E+03 0.  0.
         24    2    3    3    0    0  0.12092688695E+03 -0.92920825393E+02 -0.12684635605E+04  0.12803677089E+04  0.84166939328E+02 0.  0.
         -6    2    1    2    0  502 -0.18583857133E+03  0.94814851133E+02 -0.55332092726E+03  0.61586697560E+03  0.17205305143E+03 0.  0.
        -24    2    5    5    0    0 -0.15150807575E+03  0.10762041627E+03 -0.31632513959E+03  0.37600939536E+03  0.82368807496E+02 0.  0.
          5    1    3    3  501    0  0.64911684384E+02 -0.18940257396E+01 -0.14424575629E+03  0.15825941460E+03  0.47000000000E+01 0. -1.
        -15    1    4    4    0    0  0.90257455232E+02 -0.68321007256E+02 -0.58987780529E+03  0.60064394708E+03  0.17770000000E+01 0.  1.
         16    1    4    4    0    0  0.30669431716E+02 -0.24599818137E+02 -0.67858575525E+03  0.67972376177E+03  0.00000000000E+00 0. -1.
         -5    1    5    5    0  502 -0.34330495577E+02 -0.12805565137E+02 -0.23699578768E+03  0.23985758024E+03  0.47000000000E+01 0.  1.
         15    1    6    6    0    0 -0.15779145667E+03  0.94174488532E+02 -0.30886308304E+03  0.35939746783E+03  0.17770000000E+01 0. -1.
        -16    1    6    6    0    0  0.62833809147E+01  0.13445927737E+02 -0.74620565479E+01  0.16611927533E+02  0.00000000000E+00 0.  1.
<mgrwt>
<rscale>  2 0.27148950E+03</rscale>
<asrwt>0</asrwt>
<pdfrwt beam="1">  1       21 0.68049118E-02 0.27184626E+03</pdfrwt>
<pdfrwt beam="2">  1       21 0.30927111E+00 0.27184626E+03</pdfrwt>
<totfact> 0.44276285E+03</totfact>
</mgrwt>
</event>
<event>
12    2  0.4097182E-002  0.2167441E+03  0.7546771E-02  0.1136349E+00
         21   -1    0    0  501  502  0.00000000000E+00  0.00000000000E+00  0.16428522892E+03  0.16428522892E+03  0.00000000000E+00 0. -1.
         21   -1    0    0  502  503 -0.00000000000E+00 -0.00000000000E+00 -0.43734465990E+03  0.43734465990E+03  0.00000000000E+00 0. -1.
         -6    2    1    2    0  503  0.73242890078E+02  0.10810551764E+03 -0.31355865372E+03  0.38113459571E+03  0.17289657843E+03 0.  0.
        -24    2    3    3    0    0 -0.12344547413E+02  0.94877115481E+02 -0.22268029910E+03  0.25551148709E+03  0.80904570555E+02 0.  0.
          6    2    1    2  501    0 -0.73242890078E+02 -0.10810551764E+03  0.40499222742E+02  0.22049529311E+03  0.17299324654E+03 0.  0.
         24    2    5    5    0    0 -0.78029333558E+02 -0.91244486702E+02  0.88090674846E+02  0.16956160368E+03  0.81098934634E+02 0.  0.
          5    1    5    5  501    0  0.47864434799E+01 -0.16861030940E+02 -0.47591452104E+02  0.50933689430E+02  0.47000000000E+01 0. -1.
        -15    1    6    6    0    0 -0.13410440101E+02  0.90284020998E+01  0.35785048229E+02  0.39307497426E+02  0.17770000000E+01 0.  1.
         16    1    6    6    0    0 -0.64618893457E+02 -0.10027288880E+03  0.52305626618E+02  0.13025410625E+03  0.00000000000E+00 0. -1.
         -5    1    3    3    0  503  0.85587437491E+02  0.13228402162E+02 -0.90878354619E+02  0.12562310862E+03  0.47000000000E+01 0.  1.
         15    1    4    4    0    0  0.28421138476E+02  0.53918762046E+02 -0.15472872101E+03  0.16631033897E+03  0.17770000000E+01 0. -1.
        -16    1    4    4    0    0 -0.40765685889E+02  0.40958353434E+02 -0.67951578083E+02  0.89201148121E+02  0.00000000000E+00 0.  1.
<mgrwt>
<rscale>  2 0.21672477E+03</rscale>
<asrwt>0</asrwt>
<pdfrwt beam="1">  1       21 0.25274651E-01 0.21674406E+03</pdfrwt>
<pdfrwt beam="2">  1       21 0.67283793E-01 0.21674406E+03</pdfrwt>
<totfact> 0.29592741E+04</totfact>
</mgrwt>
</event>
<event>
12    2  0.4097182E-002  0.1825758E+03  0.7546771E-02  0.1165737E+00
         21   -1    0    0  501  502  0.00000000000E+00  0.00000000000E+00  0.33231494097E+03  0.33231494097E+03  0.00000000000E+00 0. -1.
         21   -1    0    0  502  503 -0.00000000000E+00 -0.00000000000E+00 -0.12957211050E+03  0.12957211050E+03  0.00000000000E+00 0. -1.
         -6    2    1    2    0  503 -0.77098195874E+01  0.56247775930E+02 -0.97424159878E+01  0.18283556149E+03  0.17352427571E+03 0.  0.
        -24    2    3    3    0    0 -0.58807178361E+02  0.38494024114E+02  0.34383622019E+02  0.11286890510E+03  0.81345449504E+02 0.  0.
          6    2    1    2  501    0  0.77098195874E+01 -0.56247775930E+02  0.21248524645E+03  0.27905148998E+03  0.17174545259E+03 0.  0.
         24    2    5    5    0    0  0.36510395938E+02 -0.96198048917E+02  0.15962969359E+03  0.20665468772E+03  0.81470529962E+02 0.  0.
          5    1    5    5  501    0 -0.28800576350E+02  0.39950272987E+02  0.52855552860E+02  0.72396802264E+02  0.47000000000E+01 0. -1.
        -15    1    6    6    0    0 -0.21014537031E+01 -0.19842446277E+02 -0.54132327837E+01  0.20750893959E+02  0.17770000000E+01 0.  1.
         16    1    6    6    0    0  0.38611849641E+02 -0.76355602641E+02  0.16504292638E+03  0.18590379376E+03  0.00000000000E+00 0. -1.
         -5    1    3    3    0  503  0.51097358774E+02  0.17753751816E+02 -0.44126038007E+02  0.69966656397E+02  0.47000000000E+01 0.  1.
         15    1    4    4    0    0 -0.46102398327E+02  0.61655580661E+02  0.11385839106E+02  0.77843669102E+02  0.17770000000E+01 0. -1.
        -16    1    4    4    0    0 -0.12704780034E+02 -0.23161556548E+02  0.22997782914E+02  0.35025235993E+02  0.00000000000E+00 0.  1.
<mgrwt>
<rscale>  2 0.18215189E+03</rscale>
<asrwt>0</asrwt>
<pdfrwt beam="1">  1       21 0.51125375E-01 0.18257581E+03</pdfrwt>
<pdfrwt beam="2">  1       21 0.19934171E-01 0.18257581E+03</pdfrwt>
<totfact> 0.84820387E+04</totfact>
</mgrwt>
</event>
<event>
12    2  0.4097182E-002  0.2875693E+03  0.7546771E-02  0.1092357E+00
         21   -1    0    0  503  502  0.00000000000E+00  0.00000000000E+00  0.88844280929E+02  0.88844280929E+02  0.00000000000E+00 0. -1.
         21   -1    0    0  501  503 -0.00000000000E+00 -0.00000000000E+00 -0.10704768432E+04  0.10704768432E+04  0.00000000000E+00 0. -1.
          6    2    1    2  501    0  0.12727376354E+03  0.18165097543E+03 -0.70902589933E+03  0.76307563797E+03  0.17427281941E+03 0.  0.
         24    2    3    3    0    0  0.10068412820E+02  0.16115103167E+02 -0.20769582740E+03  0.22224927927E+03  0.76786170178E+02 0.  0.
         -6    2    1    2    0  502 -0.12727376354E+03 -0.18165097543E+03 -0.27260666293E+03  0.39624548615E+03  0.18303115816E+03 0.  0.
        -24    2    5    5    0    0 -0.20602911917E+02 -0.15646479521E+03 -0.17811587073E+03  0.25145731650E+03  0.81239193101E+02 0.  0.
          5    1    3    3  501    0  0.11720535072E+03  0.16553587227E+03 -0.50133007193E+03  0.54082635870E+03  0.47000000000E+01 0. -1.
        -15    1    4    4    0    0  0.29808691412E+02  0.36172136500E+02 -0.93099044419E+02  0.10424764431E+03  0.17770000000E+01 0.  1.
         16    1    4    4    0    0 -0.19740278591E+02 -0.20057033333E+02 -0.11459678298E+03  0.11800163497E+03  0.00000000000E+00 0. -1.
         -5    1    5    5    0  502 -0.10667085162E+03 -0.25186180228E+02 -0.94490792200E+02  0.14478816965E+03  0.47000000000E+01 0.  1.
         15    1    6    6    0    0 -0.42479014199E+02 -0.14804738374E+03 -0.15605538354E+03  0.21926909253E+03  0.17770000000E+01 0. -1.
        -16    1    6    6    0    0  0.21876102282E+02 -0.84174114645E+01 -0.22060487199E+02  0.32188223969E+02  0.00000000000E+00 0.  1.
<mgrwt>
<rscale>  2 0.28618594E+03</rscale>
<asrwt>0</asrwt>
<pdfrwt beam="1">  1       21 0.13668351E-01 0.28756928E+03</pdfrwt>
<pdfrwt beam="2">  1       21 0.16468874E+00 0.28756928E+03</pdfrwt>
<totfact> 0.10162141E+04</totfact>
</mgrwt>
</event>
<event>
12    2  0.4097182E-002  0.2474887E+03  0.7546771E-02  0.1115209E+00
         21   -1    0    0  501  502  0.00000000000E+00  0.00000000000E+00  0.12513140209E+03  0.12513140209E+03  0.00000000000E+00 0. -1.
         21   -1    0    0  502  503 -0.00000000000E+00 -0.00000000000E+00 -0.80713826658E+03  0.80713826658E+03  0.00000000000E+00 0.  1.
         -6    2    1    2    0  503 -0.85706774173E+02 -0.15503750899E+03 -0.63435951681E+03  0.68023607710E+03  0.17007893370E+03 0.  0.
        -24    2    3    3    0    0 -0.11923008856E+03 -0.83418927358E+02 -0.41388419901E+03  0.44596168754E+03  0.80044769399E+02 0.  0.
          6    2    1    2  501    0  0.85706774173E+02  0.15503750899E+03 -0.47647347680E+02  0.25203359157E+03  0.17282471238E+03 0.  0.
         24    2    5    5    0    0  0.10250061473E+02  0.13870635681E+03 -0.56912992537E+02  0.17413388556E+03  0.87971610199E+02 0.  0.
          5    1    5    5  501    0  0.75456712700E+02  0.16331152180E+02  0.92656448570E+01  0.77899706018E+02  0.47000000000E+01 0. -1.
        -15    1    6    6    0    0 -0.88152996757E+00  0.99099138723E+02 -0.79624002656E+02  0.12713990687E+03  0.17770000000E+01 0.  1.
         16    1    6    6    0    0  0.11131591441E+02  0.39607218084E+02  0.22711010119E+02  0.46993978688E+02  0.00000000000E+00 0. -1.
         -5    1    3    3    0  503  0.33523314386E+02 -0.71618581628E+02 -0.22047531781E+03  0.23427438956E+03  0.47000000000E+01 0.  1.
         15    1    4    4    0    0 -0.68795124544E+01  0.13360678969E+01  0.15004655617E+01  0.73838942935E+01  0.17770000000E+01 0. -1.
        -16    1    4    4    0    0 -0.11235057610E+03 -0.84754995255E+02 -0.41538466457E+03  0.43857779325E+03  0.00000000000E+00 0.  1.
<mgrwt>
<rscale>  2 0.24700994E+03</rscale>
<asrwt>0</asrwt>
<pdfrwt beam="1">  1       21 0.19250984E-01 0.24748871E+03</pdfrwt>
<pdfrwt beam="2">  1       21 0.12417512E+00 0.24748871E+03</pdfrwt>
<totfact> 0.11603818E+04</totfact>
</mgrwt>
</event>
<event>
11    2  0.4097182E-002  0.1973969E+03  0.7546771E-02  0.1153188E+00
         21   -1    0    0  503  502  0.00000000000E+00  0.00000000000E+00  0.50034647428E+02  0.50034647428E+02  0.00000000000E+00 0.  1.
         21   -1    0    0  501  503 -0.00000000000E+00 -0.00000000000E+00 -0.17318500214E+04  0.17318500214E+04  0.00000000000E+00 0.  1.
          6    2    1    2  501    0 -0.64753255090E+02  0.48395242085E+02 -0.15148035569E+04  0.15276109944E+04  0.18008456540E+03 0.  0.
         24    2    3    3    0    0 -0.89974571959E+00  0.88962902328E+02 -0.88367785800E+03  0.89195012291E+03  0.82299802650E+02 0.  0.
         -6    2    1    2    0  502  0.64753255090E+02 -0.48395242085E+02 -0.16701181700E+03  0.25427367437E+03  0.17385934245E+03 0.  0.
          5    1    3    3  501    0 -0.63853509371E+02 -0.40567660243E+02 -0.63112569895E+03  0.63566087153E+03  0.47000000000E+01 0. -1.
        -15    1    4    4    0    0  0.37949394721E+02  0.65746853230E+02 -0.55740775402E+03  0.56255610142E+03  0.17770000000E+01 0.  1.
         16    1    4    4    0    0 -0.38849140440E+02  0.23216049098E+02 -0.32627010398E+03  0.32939402150E+03  0.00000000000E+00 0. -1.
         -5    1    5    5    0  502 -0.11676468130E+02 -0.90118096436E+01 -0.25573270157E+02  0.29893724551E+02  0.47000000000E+01 0.  1.
         15    1    5    5    0    0 -0.14674841080E+02 -0.64429472675E+02 -0.10297489944E+03  0.12236623535E+03  0.17770000000E+01 0. -1.
        -16    1    5    5    0    0  0.91104564300E+02  0.25046040234E+02 -0.38463647412E+02  0.10201371447E+03  0.00000000000E+00 0.  1.
<mgrwt>
<rscale>  2 0.19596583E+03</rscale>
<asrwt>0</asrwt>
<pdfrwt beam="1">  1       21 0.76976382E-02 0.19739690E+03</pdfrwt>
<pdfrwt beam="2">  1       21 0.26643846E+00 0.19739690E+03</pdfrwt>
<totfact> 0.68071109E+03</totfact>
</mgrwt>
</event>
<event>
12    2  0.4097182E-002  0.1860018E+03  0.7546771E-02  0.1163830E+00
         21   -1    0    0  503  502  0.00000000000E+00  0.00000000000E+00  0.12981942566E+03  0.12981942566E+03  0.00000000000E+00 0. -1.
         21   -1    0    0  501  503 -0.00000000000E+00 -0.00000000000E+00 -0.30435314575E+03  0.30435314575E+03  0.00000000000E+00 0.  1.
          6    2    1    2  501    0  0.47589345424E+02 -0.41743186255E+02 -0.17210925277E+03  0.24815501127E+03  0.16718874165E+03 0.  0.
         24    2    3    3    0    0  0.64824897890E+01 -0.71224688483E+02 -0.16513532804E+03  0.19687481841E+03  0.79843839050E+02 0.  0.
         -6    2    1    2    0  502 -0.47589345424E+02  0.41743186255E+02 -0.24244673250E+01  0.18601756014E+03  0.17489829971E+03 0.  0.
        -24    2    5    5    0    0 -0.53628981479E+02  0.82743839312E+02  0.34476155395E+02  0.13032845248E+03  0.77937729223E+02 0.  0.
          5    1    3    3  501    0  0.41106855635E+02  0.29481502228E+02 -0.69739247247E+01  0.51280192861E+02  0.47000000000E+01 0. -1.
        -15    1    4    4    0    0  0.38185017505E+01 -0.33807788533E+02 -0.75622938970E+01  0.34898331466E+02  0.17770000000E+01 0.  1.
         16    1    4    4    0    0  0.26639880386E+01 -0.37416899950E+02 -0.15757303414E+03  0.16197648695E+03  0.00000000000E+00 0. -1.
         -5    1    5    5    0  502  0.60396360551E+01 -0.41000653057E+02 -0.36900622720E+02  0.55689107659E+02  0.47000000000E+01 0.  1.
         15    1    6    6    0    0 -0.11507556382E+02  0.49821979968E+02  0.53078689072E+02  0.73723527482E+02  0.17770000000E+01 0. -1.
        -16    1    6    6    0    0 -0.42121425096E+02  0.32921859344E+02 -0.18602533677E+02  0.56604924998E+02  0.00000000000E+00 0.  1.
<mgrwt>
<rscale>  2 0.18416728E+03</rscale>
<asrwt>0</asrwt>
<pdfrwt beam="1">  1       21 0.19972220E-01 0.18600176E+03</pdfrwt>
<pdfrwt beam="2">  1       21 0.46823560E-01 0.18600176E+03</pdfrwt>
<totfact> 0.10130465E+05</totfact>
</mgrwt>
</event>
<event>
12    2  0.4097182E-002  0.1865953E+03  0.7546771E-02  0.1161654E+00
         21   -1    0    0  503  502  0.00000000000E+00  0.00000000000E+00  0.56666685397E+02  0.56666685397E+02  0.00000000000E+00 0.  1.
         21   -1    0    0  501  503 -0.00000000000E+00 -0.00000000000E+00 -0.80459777688E+03  0.80459777688E+03  0.00000000000E+00 0.  1.
          6    2    1    2  501    0 -0.32442850301E+02  0.60689977776E+02 -0.58427660138E+03  0.61334895406E+03  0.17344157684E+03 0.  0.
         24    2    3    3    0    0 -0.67703571734E+02 -0.82553189111E+01 -0.38478023222E+03  0.39929834387E+03  0.82045209451E+02 0.  0.
         -6    2    1    2    0  502  0.32442850301E+02 -0.60689977776E+02 -0.16365449010E+03  0.24791550822E+03  0.17304188843E+03 0.  0.
        -24    2    5    5    0    0  0.21497596761E+02 -0.29399131130E+02 -0.18512860504E+03  0.20813934361E+03  0.87880204691E+02 0.  0.
          5    1    3    3  501    0  0.35260721433E+02  0.68945296688E+02 -0.19949636916E+03  0.21405061018E+03  0.47000000000E+01 0. -1.
        -15    1    4    4    0    0 -0.36287868297E+02  0.30986027200E+02 -0.26705361669E+03  0.27128902518E+03  0.17770000000E+01 0.  1.
         16    1    4    4    0    0 -0.31415703437E+02 -0.39241346111E+02 -0.11772661553E+03  0.12800931869E+03  0.00000000000E+00 0. -1.
         -5    1    5    5    0  502  0.10945253540E+02 -0.31290846647E+02  0.21474114940E+02  0.39776164614E+02  0.47000000000E+01 0.  1.
         15    1    6    6    0    0  0.11603148003E+02 -0.59170348487E+02 -0.14610780665E+03  0.15807090838E+03  0.17770000000E+01 0. -1.
        -16    1    6    6    0    0  0.98944487578E+01  0.29771217358E+02 -0.39020798391E+02  0.50068435229E+02  0.00000000000E+00 0.  1.
<mgrwt>
<rscale>  2 0.18650233E+03</rscale>
<asrwt>0</asrwt>
<pdfrwt beam="1">  1       21 0.87179524E-02 0.18659526E+03</pdfrwt>
<pdfrwt beam="2">  1       21 0.12378426E+00 0.18659526E+03</pdfrwt>
<totfact> 0.50648069E+04</totfact>
</mgrwt>
</event>
<event>
12    2  0.4097182E-002  0.1855095E+03  0.7546771E-02  0.1162583E+00
         21   -1    0    0  501  502  0.00000000000E+00  0.00000000000E+00  0.23690912567E+04  0.23690912567E+04  0.00000000000E+00 0.  1.
         21   -1    0    0  502  503 -0.00000000000E+00 -0.00000000000E+00 -0.57223023989E+02  0.57223023989E+02  0.00000000000E+00 0.  1.
         -6    2    1    2    0  503 -0.57646992959E+02  0.32588114141E+02  0.10795334527E+03  0.21460575801E+03  0.17325283731E+03 0.  0.
        -24    2    3    3    0    0  0.25836460667E+02  0.31672872677E+02  0.95838891524E+02  0.13011212106E+03  0.77931876365E+02 0.  0.
          6    2    1    2  501    0  0.57646992959E+02 -0.32588114141E+02  0.22039148874E+04  0.22117085227E+04  0.17328761417E+03 0.  0.
         24    2    5    5    0    0  0.90940079158E+02  0.22061229667E+02  0.12944487381E+04  0.12999817285E+04  0.74820873400E+02 0.  0.
          5    1    5    5  501    0 -0.33293086199E+02 -0.54649343807E+02  0.90946614934E+03  0.91172679414E+03  0.47000000000E+01 0. -1.
        -15    1    6    6    0    0  0.85118988523E+02  0.15548957064E+02  0.12811568404E+04  0.12840767188E+04  0.17770000000E+01 0.  1.
         16    1    6    6    0    0  0.58210906356E+01  0.65122726030E+01  0.13291897664E+02  0.15905009719E+02  0.00000000000E+00 0. -1.
         -5    1    3    3    0  503 -0.83483453626E+02  0.91524146383E+00  0.12114453746E+02  0.84493636955E+02  0.47000000000E+01 0.  1.
         15    1    4    4    0    0  0.49551622125E+02  0.92671957563E+01  0.78107783852E+02  0.92979717141E+02  0.17770000000E+01 0. -1.
        -16    1    4    4    0    0 -0.23715161458E+02  0.22405676920E+02  0.17731107673E+02  0.37132403916E+02  0.00000000000E+00 0.  1.
<mgrwt>
<rscale>  2 0.18550133E+03</rscale>
<asrwt>0</asrwt>
<pdfrwt beam="1">  1       21 0.36447550E+00 0.18550946E+03</pdfrwt>
<pdfrwt beam="2">  1       21 0.88035439E-02 0.18550946E+03</pdfrwt>
<totfact> 0.14721205E+03</totfact>
</mgrwt>
</event>
<event>
12    2  0.4097182E-002  0.2032228E+03  0.7546771E-02  0.1147254E+00
         21   -1    0    0  501  502  0.00000000000E+00  0.00000000000E+00  0.11810444373E+03  0.11810444373E+03  0.00000000000E+00 0. -1.
         21   -1    0    0  502  503 -0.00000000000E+00 -0.00000000000E+00 -0.35307671229E+03  0.35307671229E+03  0.00000000000E+00 0.  1.
         -6    2    1    2    0  503 -0.47527338141E+02  0.93836271214E+02 -0.14609219985E+03  0.25028467597E+03  0.17388327839E+03 0.  0.
        -24    2    3    3    0    0 -0.83276156153E+02  0.44535639154E+02 -0.42948065212E+02  0.13041252399E+03  0.79022457374E+02 0.  0.
          6    2    1    2  501    0  0.47527338141E+02 -0.93836271214E+02 -0.88880068706E+02  0.22089648004E+03  0.17271796263E+03 0.  0.
         24    2    5    5    0    0  0.14651135817E+02 -0.12783496893E+03 -0.82398977238E+02  0.17292929676E+03  0.80984660059E+02 0.  0.
          5    1    5    5  501    0  0.32876202324E+02  0.33998697716E+02 -0.64810914685E+01  0.47967183284E+02  0.47000000000E+01 0. -1.
        -15    1    6    6    0    0  0.33885388814E+02 -0.31092996950E+02 -0.52596965230E+02  0.69889859886E+02  0.17770000000E+01 0.  1.
         16    1    6    6    0    0 -0.19234252998E+02 -0.96741971980E+02 -0.29802012008E+02  0.10303943687E+03  0.00000000000E+00 0. -1.
         -5    1    3    3    0  503  0.35748818012E+02  0.49300632061E+02 -0.10314413464E+03  0.11987215198E+03  0.47000000000E+01 0.  1.
         15    1    4    4    0    0 -0.58794724920E+02 -0.12648783269E+02 -0.28386438074E+02  0.66526378168E+02  0.17770000000E+01 0. -1.
        -16    1    4    4    0    0 -0.24481431233E+02  0.57184422423E+02 -0.14561627138E+02  0.63886145821E+02  0.00000000000E+00 0.  1.
<mgrwt>
<rscale>  2 0.20297325E+03</rscale>
<asrwt>0</asrwt>
<pdfrwt beam="1">  1       21 0.18169915E-01 0.20322276E+03</pdfrwt>
<pdfrwt beam="2">  1       21 0.54319493E-01 0.20322276E+03</pdfrwt>
<totfact> 0.87965929E+04</totfact>
</mgrwt>
</event>
<event>
12    2  0.4097182E-002  0.1750196E+03  0.7546771E-02  0.1172846E+00
         21   -1    0    0  501  502  0.00000000000E+00  0.00000000000E+00  0.18361141553E+03  0.18361141553E+03  0.00000000000E+00 0.  1.
         21   -1    0    0  502  503 -0.00000000000E+00 -0.00000000000E+00 -0.16787950666E+03  0.16787950666E+03  0.00000000000E+00 0.  1.
         -6    2    1    2    0  503  0.17423360552E+02 -0.31037468669E+01  0.24784768950E+02  0.17623739354E+03  0.17358608058E+03 0.  0.
        -24    2    3    3    0    0  0.42839308591E+02 -0.45636992568E+02 -0.26000554100E+02  0.10512982402E+03  0.80363608896E+02 0.  0.
          6    2    1    2  501    0 -0.17423360552E+02  0.31037468669E+01 -0.90528600829E+01  0.17525352866E+03  0.17412248072E+03 0.  0.
         24    2    5    5    0    0  0.55380972492E+02 -0.80869406685E-02 -0.23096554574E+02  0.10089312404E+03  0.81110538563E+02 0.  0.
          5    1    5    5  501    0 -0.72804333043E+02  0.31118338075E+01  0.14043694491E+02  0.74360404615E+02  0.47000000000E+01 0. -1.
        -15    1    6    6    0    0  0.52308531708E+02 -0.28508116448E+02 -0.35815674484E+02  0.69532837283E+02  0.17770000000E+01 0.  1.
         16    1    6    6    0    0  0.30724407840E+01  0.28500029508E+02  0.12719119909E+02  0.31360286758E+02  0.00000000000E+00 0. -1.
         -5    1    3    3    0  503 -0.25415948039E+02  0.42533245702E+02  0.50785323049E+02  0.71107569512E+02  0.47000000000E+01 0.  1.
         15    1    4    4    0    0  0.16765082455E+02 -0.40370586120E+02  0.22961080335E+02  0.49408715350E+02  0.17770000000E+01 0. -1.
        -16    1    4    4    0    0  0.26074226136E+02 -0.52664064481E+01 -0.48961634434E+02  0.55721108675E+02  0.00000000000E+00 0.  1.
<mgrwt>
<rscale>  2 0.17488599E+03</rscale>
<asrwt>0</asrwt>
<pdfrwt beam="1">  1       21 0.28247910E-01 0.17501956E+03</pdfrwt>
<pdfrwt beam="2">  1       21 0.25827616E-01 0.17501956E+03</pdfrwt>
<totfact> 0.17138547E+05</totfact>
</mgrwt>
</event>
<event>
12    2  0.4097182E-002  0.1723056E+03  0.7546771E-02  0.1180031E+00
         21   -1    0    0  503  502  0.00000000000E+00  0.00000000000E+00  0.51761960584E+03  0.51761960584E+03  0.00000000000E+00 0. -1.
         21   -1    0    0  501  503 -0.00000000000E+00 -0.00000000000E+00 -0.20371545597E+03  0.20371545597E+03  0.00000000000E+00 0. -1.
          6    2    1    2  501    0  0.10209367062E+02  0.33905596576E+01 -0.15226031648E+03  0.22994006875E+03  0.17196948616E+03 0.  0.
         24    2    3    3    0    0 -0.25502677256E+02  0.38940360235E+02 -0.29536814342E+02  0.97191108650E+02  0.80043425693E+02 0.  0.
         -6    2    1    2    0  502 -0.10209367062E+02 -0.33905596576E+01  0.46616446636E+03  0.49139499306E+03  0.15506128607E+03 0.  0.
        -24    2    5    5    0    0  0.89508781473E+01 -0.53263179122E+02  0.34055677808E+03  0.35481617141E+03  0.83657109251E+02 0.  0.
          5    1    3    3  501    0  0.35712044318E+02 -0.35549800577E+02 -0.12272350214E+03  0.13274896010E+03  0.47000000000E+01 0. -1.
        -15    1    4    4    0    0 -0.94714347352E+01  0.22442111354E+02  0.26847467807E+02  0.36294637271E+02  0.17770000000E+01 0.  1.
         16    1    4    4    0    0 -0.16031242521E+02  0.16498248881E+02 -0.56384282149E+02  0.60896471379E+02  0.00000000000E+00 0. -1.
         -5    1    5    5    0  502 -0.19160245209E+02  0.49872619464E+02  0.12560768828E+03  0.13657882165E+03  0.47000000000E+01 0.  1.
         15    1    6    6    0    0 -0.59225238530E+01  0.20835327702E+02  0.11196575723E+03  0.11405558159E+03  0.17770000000E+01 0. -1.
        -16    1    6    6    0    0  0.14873402000E+02 -0.74098506824E+02  0.22859102084E+03  0.24076058982E+03  0.00000000000E+00 0.  1.
<mgrwt>
<rscale>  2 0.16792336E+03</rscale>
<asrwt>0</asrwt>
<pdfrwt beam="1">  1       21 0.79633785E-01 0.17230563E+03</pdfrwt>
<pdfrwt beam="2">  1       21 0.31340840E-01 0.17230563E+03</pdfrwt>
<totfact> 0.13782068E+04</totfact>
</mgrwt>
</event>
<event>
12    2  0.4097182E-002  0.2193654E+03  0.7546771E-02  0.1134360E+00
         21   -1    0    0  503  502  0.00000000000E+00  0.00000000000E+00  0.13260563619E+04  0.13260563619E+04  0.00000000000E+00 0. -1.
         21   -1    0    0  501  503 -0.00000000000E+00 -0.00000000000E+00 -0.37393137366E+02  0.37393137366E+02  0.00000000000E+00 0. -1.
          6    2    1    2  501    0 -0.13025623043E+03  0.35913066775E+02  0.76161072571E+03  0.79256814616E+03  0.17279159376E+03 0.  0.
         24    2    3    3    0    0 -0.35263776487E+02  0.31669866746E+02  0.16712663099E+03  0.19050917902E+03  0.78204361208E+02 0.  0.
         -6    2    1    2    0  502  0.13025623043E+03 -0.35913066775E+02  0.52705249888E+03  0.57088135315E+03  0.17281420332E+03 0.  0.
        -24    2    5    5    0    0  0.11172729224E+03  0.37533914040E+02  0.34680085267E+03  0.37530393497E+03  0.81795046652E+02 0.  0.
          5    1    3    3  501    0 -0.94992453945E+02  0.42432000296E+01  0.59448409471E+03  0.60205896715E+03  0.47000000000E+01 0. -1.
        -15    1    4    4    0    0 -0.15806083885E+02  0.31757033744E+02  0.16732217093E+03  0.17105030867E+03  0.17770000000E+01 0.  1.
         16    1    4    4    0    0 -0.19457692602E+02 -0.87166997914E-01 -0.19553994269E+00  0.19458870352E+02  0.00000000000E+00 0. -1.
         -5    1    5    5    0  502  0.18528938194E+02 -0.73446980815E+02  0.18025164621E+03  0.19557741818E+03  0.47000000000E+01 0.  1.
         15    1    6    6    0    0  0.53708701007E+02  0.35493462182E+02  0.82278791756E+02  0.10448620829E+03  0.17770000000E+01 0. -1.
        -16    1    6    6    0    0  0.58018591232E+02  0.20404518581E+01  0.26452206091E+03  0.27081772668E+03  0.00000000000E+00 0.  1.
<mgrwt>
<rscale>  2 0.21936096E+03</rscale>
<asrwt>0</asrwt>
<pdfrwt beam="1">  1       21 0.20400864E+00 0.21936541E+03</pdfrwt>
<pdfrwt beam="2">  1       21 0.57527914E-02 0.21936541E+03</pdfrwt>
<totfact> 0.26316094E+04</totfact>
</mgrwt>
</event>
<event>
12    2  0.4097182E-002  0.2586751E+03  0.7546771E-02  0.1107950E+00
         21   -1    0    0  501  502  0.00000000000E+00  0.00000000000E+00  0.14360458175E+03  0.14360458175E+03  0.00000000000E+00 0. -1.
         21   -1    0    0  502  503 -0.00000000000E+00 -0.00000000000E+00 -0.52052519157E+03  0.52052519157E+03  0.00000000000E+00 0.  1.
         -6    2    1    2    0  503 -0.13425065011E+03  0.13755927334E+03 -0.80829080621E+02  0.27095933200E+03  0.17303129367E+03 0.  0.
        -24    2    3    3    0    0 -0.53779415640E+02  0.10686916705E+03 -0.10322557788E+03  0.18184594754E+03  0.89995468193E+02 0.  0.
          6    2    1    2  501    0  0.13425065011E+03 -0.13755927334E+03 -0.29609152920E+03  0.39317044133E+03  0.17310982506E+03 0.  0.
         24    2    5    5    0    0  0.11250404978E+03 -0.14930735133E+03 -0.30359316083E+03  0.36691598572E+03  0.86652679666E+02 0.  0.
          5    1    5    5  501    0  0.21746600328E+02  0.11748077989E+02  0.75016316315E+01  0.26254455610E+02  0.47000000000E+01 0. -1.
        -15    1    6    6    0    0  0.42278482725E+02 -0.63573634759E+02 -0.20433790727E+03  0.21814264878E+03  0.17770000000E+01 0.  1.
         16    1    6    6    0    0  0.70225567057E+02 -0.85733716569E+02 -0.99255253558E+02  0.14877333694E+03  0.00000000000E+00 0. -1.
         -5    1    3    3    0  503 -0.80471234471E+02  0.30690106289E+02  0.22396497255E+02  0.89113384464E+02  0.47000000000E+01 0.  1.
         15    1    4    4    0    0 -0.52438800172E+02  0.33476297736E+02 -0.97572517086E+01  0.62998825096E+02  0.17770000000E+01 0. -1.
        -16    1    4    4    0    0 -0.13406154682E+01  0.73392869313E+02 -0.93468326168E+02  0.11884712244E+03  0.00000000000E+00 0.  1.
<mgrwt>
<rscale>  2 0.25866195E+03</rscale>
<asrwt>0</asrwt>
<pdfrwt beam="1">  1       21 0.22093013E-01 0.25867509E+03</pdfrwt>
<pdfrwt beam="2">  1       21 0.80080798E-01 0.25867509E+03</pdfrwt>
<totfact> 0.25395697E+04</totfact>
</mgrwt>
</event>
<event>
12    2  0.4097182E-002  0.2215628E+03  0.7546771E-02  0.1134926E+00
         21   -1    0    0  501  502  0.00000000000E+00  0.00000000000E+00  0.22380930684E+02  0.22380930684E+02  0.00000000000E+00 0.  1.
         21   -1    0    0  502  503 -0.00000000000E+00 -0.00000000000E+00 -0.22834514232E+04  0.22834514232E+04  0.00000000000E+00 0.  1.
         -6    2    1    2    0  503 -0.74586854960E+01  0.13288544153E+03 -0.81430002321E+03  0.84390439273E+03  0.17713250326E+03 0.  0.
        -24    2    3    3    0    0 -0.40144161510E+02  0.74246529802E+02 -0.71475922951E+03  0.72374898536E+03  0.76208508359E+02 0.  0.
          6    2    1    2  501    0  0.74586854960E+01 -0.13288544153E+03 -0.14467704693E+04  0.14619279611E+04  0.16240197102E+03 0.  0.
         24    2    5    5    0    0  0.64378099799E+02 -0.58953771597E+02 -0.83420348896E+03  0.84227797370E+03  0.76919679317E+02 0.  0.
          5    1    5    5  501    0 -0.56919414303E+02 -0.73931669929E+02 -0.61256698033E+03  0.61964998744E+03  0.47000000000E+01 0. -1.
        -15    1    6    6    0    0  0.16903184261E+01 -0.52206028523E+02 -0.32299861112E+03  0.32719961354E+03  0.17770000000E+01 0.  1.
         16    1    6    6    0    0  0.62687781373E+02 -0.67477430745E+01 -0.51120487785E+03  0.51507836016E+03  0.00000000000E+00 0. -1.
         -5    1    3    3    0  503  0.32685476014E+02  0.58638911724E+02 -0.99540793705E+02  0.12015540738E+03  0.47000000000E+01 0.  1.
         15    1    4    4    0    0 -0.17495359102E+02  0.75831276717E+02 -0.65844025231E+03  0.66302578661E+03  0.17770000000E+01 0. -1.
        -16    1    4    4    0    0 -0.22648802408E+02 -0.15847469147E+01 -0.56318977193E+02  0.60723198742E+02  0.00000000000E+00 0.  1.
<mgrwt>
<rscale>  2 0.21860670E+03</rscale>
<asrwt>0</asrwt>
<pdfrwt beam="1">  1       21 0.34432197E-02 0.22156285E+03</pdfrwt>
<pdfrwt beam="2">  1       21 0.35130026E+00 0.22156285E+03</pdfrwt>
<totfact> 0.83667759E+03</totfact>
</mgrwt>
</event>
<event>
12    2  0.4097182E-002  0.1781178E+03  0.7546771E-02  0.1170396E+00
         21   -1    0    0  501  502  0.00000000000E+00  0.00000000000E+00  0.53589047299E+02  0.53589047299E+02  0.00000000000E+00 0.  1.
         21   -1    0    0  502  503 -0.00000000000E+00 -0.00000000000E+00 -0.75666799955E+03  0.75666799955E+03  0.00000000000E+00 0.  1.
         -6    2    1    2    0  503  0.37537663110E+02  0.24991783371E+02 -0.54859373672E+03  0.57678510160E+03  0.17231453821E+03 0.  0.
        -24    2    3    3    0    0 -0.21263234136E+02  0.58890552670E+02 -0.24792437331E+03  0.26851439561E+03  0.81934507100E+02 0.  0.
          6    2    1    2  501    0 -0.37537663110E+02 -0.24991783371E+02 -0.15448521554E+03  0.23347194525E+03  0.16914432302E+03 0.  0.
         24    2    5    5    0    0  0.27861054646E+02 -0.49514432587E+02 -0.12028232420E+03  0.15555994114E+03  0.80642050886E+02 0.  0.
          5    1    5    5  501    0 -0.65398717756E+02  0.24522649216E+02 -0.34202891334E+02  0.77912004109E+02  0.47000000000E+01 0. -1.
        -15    1    6    6    0    0 -0.18335771200E+02 -0.14531750324E+02 -0.16379612499E+01  0.23520478715E+02  0.17770000000E+01 0.  1.
         16    1    6    6    0    0  0.46196825845E+02 -0.34982682263E+02 -0.11864436295E+03  0.13203946242E+03  0.00000000000E+00 0. -1.
         -5    1    3    3    0  503  0.58800897247E+02 -0.33898769300E+02 -0.30066936341E+03  0.30827070599E+03  0.47000000000E+01 0.  1.
         15    1    4    4    0    0 -0.22009400615E+02  0.43238623941E+02 -0.49019326082E+02  0.68993074828E+02  0.17770000000E+01 0. -1.
        -16    1    4    4    0    0  0.74616647816E+00  0.15651928729E+02 -0.19890504722E+03  0.19952132079E+03  0.00000000000E+00 0.  1.
<mgrwt>
<rscale>  2 0.17734658E+03</rscale>
<asrwt>0</asrwt>
<pdfrwt beam="1">  1       21 0.82444692E-02 0.17811784E+03</pdfrwt>
<pdfrwt beam="2">  1       21 0.11641046E+00 0.17811784E+03</pdfrwt>
<totfact> 0.65258174E+04</totfact>
</mgrwt>
</event>
<event>
12    2  0.4097182E-002  0.1792089E+03  0.7546771E-02  0.1169255E+00
         21   -1    0    0  501  502  0.00000000000E+00  0.00000000000E+00  0.37216398913E+03  0.37216398913E+03  0.00000000000E+00 0. -1.
         21   -1    0    0  502  503 -0.00000000000E+00 -0.00000000000E+00 -0.31499499193E+03  0.31499499193E+03  0.00000000000E+00 0.  1.
         -6    2    1    2    0  503  0.50155697537E+00 -0.37572876484E+02 -0.26496470522E+03  0.31987829823E+03  0.17522516390E+03 0.  0.
        -24    2    3    3    0    0 -0.19683790005E+02 -0.90235708575E+02 -0.18853368298E+03  0.22477512649E+03  0.80305499044E+02 0.  0.
          6    2    1    2  501    0 -0.50155697537E+00  0.37572876484E+02  0.32213370241E+03  0.36728068282E+03  0.17237460699E+03 0.  0.
         24    2    5    5    0    0 -0.15755026664E+02  0.88811306420E+02  0.19339735144E+03  0.22780601450E+03  0.79733153001E+02 0.  0.
          5    1    5    5  501    0  0.15253469689E+02 -0.51238429936E+02  0.12873635098E+03  0.13947466832E+03  0.47000000000E+01 0. -1.
        -15    1    6    6    0    0 -0.33755361516E+02  0.31039123327E+02  0.33430892477E+02  0.56777054422E+02  0.17770000000E+01 0.  1.
         16    1    6    6    0    0  0.18000334852E+02  0.57772183093E+02  0.15996645896E+03  0.17102896008E+03  0.00000000000E+00 0. -1.
         -5    1    3    3    0  503  0.20185346980E+02  0.52662832092E+02 -0.76431022234E+02  0.95103171747E+02  0.47000000000E+01 0.  1.
         15    1    4    4    0    0 -0.39876671791E+02 -0.12365903479E+02 -0.69896985061E+02  0.81435930471E+02  0.17770000000E+01 0. -1.
        -16    1    4    4    0    0  0.20192881786E+02 -0.77869805096E+02 -0.11863669792E+03  0.14333919602E+03  0.00000000000E+00 0.  1.
<mgrwt>
<rscale>  2 0.17850826E+03</rscale>
<asrwt>0</asrwt>
<pdfrwt beam="1">  1       21 0.57255998E-01 0.17920890E+03</pdfrwt>
<pdfrwt beam="2">  1       21 0.48460768E-01 0.17920890E+03</pdfrwt>
<totfact> 0.11752595E+04</totfact>
</mgrwt>
</event>
<event>
12    2  0.4097182E-002  0.1727495E+03  0.7546771E-02  0.1176268E+00
         21   -1    0    0  501  502  0.00000000000E+00  0.00000000000E+00  0.17738647250E+03  0.17738647250E+03  0.00000000000E+00 0. -1.
         21   -1    0    0  502  503 -0.00000000000E+00 -0.00000000000E+00 -0.23103630396E+03  0.23103630396E+03  0.00000000000E+00 0. -1.
         -6    2    1    2    0  503 -0.95962217847E+00  0.13486650803E+02  0.83813926694E+02  0.18765436957E+03  0.16735165815E+03 0.  0.
        -24    2    3    3    0    0  0.72272362091E+01 -0.14096059939E+01  0.12191184469E+03  0.14567265364E+03  0.79396500003E+02 0.  0.
          6    2    1    2  501    0  0.95962217847E+00 -0.13486650803E+02 -0.13746375815E+03  0.22076840689E+03  0.17221960995E+03 0.  0.
         24    2    5    5    0    0 -0.21262216927E+02  0.44023583912E+02 -0.12620585747E+03  0.15791884398E+03  0.81365133898E+02 0.  0.
          5    1    5    5  501    0  0.22221839105E+02 -0.57510234715E+02 -0.11257900679E+02  0.62849562909E+02  0.47000000000E+01 0. -1.
        -15    1    6    6    0    0 -0.94061058836E+01  0.40726327529E+02 -0.12662379969E+02  0.43710435566E+02  0.17770000000E+01 0.  1.
         16    1    6    6    0    0 -0.11856111043E+02  0.32972563835E+01 -0.11354347750E+03  0.11420840841E+03  0.00000000000E+00 0. -1.
         -5    1    3    3    0  503 -0.81868583876E+01  0.14896256797E+02 -0.38097917991E+02  0.41981715925E+02  0.47000000000E+01 0.  1.
         15    1    4    4    0    0 -0.35158040656E+02 -0.54361662217E+00  0.38931392706E+02  0.52489945788E+02  0.17770000000E+01 0. -1.
        -16    1    4    4    0    0  0.42385276865E+02 -0.86598937177E+00  0.82980451979E+02  0.93182707855E+02  0.00000000000E+00 0.  1.
<mgrwt>
<rscale>  2 0.17152340E+03</rscale>
<asrwt>0</asrwt>
<pdfrwt beam="1">  1       21 0.27290227E-01 0.17274954E+03</pdfrwt>
<pdfrwt beam="2">  1       21 0.35544047E-01 0.17274954E+03</pdfrwt>
<totfact> 0.98458384E+04</totfact>
</mgrwt>
</event>
<event>
12    2  0.4097182E-002  0.2332677E+03  0.7546771E-02  0.1124399E+00
         21   -1    0    0  501  502  0.00000000000E+00  0.00000000000E+00  0.46227496377E+02  0.46227496377E+02  0.00000000000E+00 0. -1.
         21   -1    0    0  502  503 -0.00000000000E+00 -0.00000000000E+00 -0.11854508594E+04  0.11854508594E+04  0.00000000000E+00 0.  1.
         -6    2    1    2    0  503 -0.55931482243E+02 -0.14584325206E+03 -0.62440326959E+03  0.66647613577E+03  0.17295205000E+03 0.  0.
        -24    2    3    3    0    0 -0.49647400200E+02 -0.31816425718E+02 -0.16085823037E+03  0.18904792106E+03  0.79916186648E+02 0.  0.
          6    2    1    2  501    0  0.55931482243E+02  0.14584325206E+03 -0.51482009344E+03  0.56520222002E+03  0.17324905778E+03 0.  0.
         24    2    5    5    0    0  0.22347259815E+02  0.17143651480E+03 -0.41738041618E+03  0.45890313348E+03  0.80596497920E+02 0.  0.
          5    1    5    5  501    0  0.33584222428E+02 -0.25593262741E+02 -0.97439677266E+02  0.10629908654E+03  0.47000000000E+01 0. -1.
        -15    1    6    6    0    0  0.48807136247E+02  0.69432586369E+02 -0.20252188133E+03  0.21959346699E+03  0.17770000000E+01 0.  1.
         16    1    6    6    0    0 -0.26459876432E+02  0.10200392843E+03 -0.21485853485E+03  0.23930966649E+03  0.00000000000E+00 0. -1.
         -5    1    3    3    0  503 -0.62840820429E+01 -0.11402682634E+03 -0.46354503922E+03  0.47742821470E+03  0.47000000000E+01 0.  1.
         15    1    4    4    0    0  0.19158859312E+02 -0.22788124968E+02 -0.52216192751E+02  0.60133593308E+02  0.17770000000E+01 0. -1.
        -16    1    4    4    0    0 -0.68806259512E+02 -0.90283007494E+01 -0.10864203762E+03  0.12891432776E+03  0.00000000000E+00 0.  1.
<mgrwt>
<rscale>  2 0.23321256E+03</rscale>
<asrwt>0</asrwt>
<pdfrwt beam="1">  1       21 0.71119232E-02 0.23326770E+03</pdfrwt>
<pdfrwt beam="2">  1       21 0.18237704E+00 0.23326770E+03</pdfrwt>
<totfact> 0.25122125E+04</totfact>
</mgrwt>
</event>
<event>
12    2  0.4097182E-002  0.2254762E+03  0.7546771E-02  0.1129906E+00
         21   -1    0    0  501  502  0.00000000000E+00  0.00000000000E+00  0.31134807999E+03  0.31134807999E+03  0.00000000000E+00 0.  1.
         21   -1    0    0  502  503 -0.00000000000E+00 -0.00000000000E+00 -0.23874747086E+03  0.23874747086E+03  0.00000000000E+00 0. -1.
         -6    2    1    2    0  503  0.86151825484E+02  0.11663885525E+03 -0.11848655629E+03  0.25471276359E+03  0.17266374352E+03 0.  0.
        -24    2    3    3    0    0  0.14374251307E+02  0.82452390941E+02 -0.12875412968E+03  0.17441178253E+03  0.82685114160E+02 0.  0.
          6    2    1    2  501    0 -0.86151825484E+02 -0.11663885525E+03  0.19108716542E+03  0.29538278725E+03  0.17236567706E+03 0.  0.
         24    2    5    5    0    0 -0.36391805425E+02 -0.12724268644E+03  0.19008869071E+03  0.24427909087E+03  0.77611205029E+02 0.  0.
          5    1    5    5  501    0 -0.49760020059E+02  0.10603831184E+02  0.99847470616E+00  0.51103696381E+02  0.47000000000E+01 0. -1.
        -15    1    6    6    0    0 -0.29008922314E+02 -0.57901693384E+01  0.22652694587E+02  0.37300749803E+02  0.17770000000E+01 0.  1.
         16    1    6    6    0    0 -0.73828831109E+01 -0.12145251710E+03  0.16743599613E+03  0.20697834107E+03  0.00000000000E+00 0. -1.
         -5    1    3    3    0  503  0.71777574177E+02  0.34186464313E+02  0.10267573388E+02  0.80300981066E+02  0.47000000000E+01 0.  1.
         15    1    4    4    0    0  0.89724993346E+01  0.38244174779E+02 -0.12385327499E+01  0.39342271684E+02  0.17770000000E+01 0. -1.
        -16    1    4    4    0    0  0.54017519728E+01  0.44208216162E+02 -0.12751559693E+03  0.13506951084E+03  0.00000000000E+00 0.  1.
<mgrwt>
<rscale>  2 0.22541916E+03</rscale>
<asrwt>0</asrwt>
<pdfrwt beam="1">  1       21 0.47899705E-01 0.22547622E+03</pdfrwt>
<pdfrwt beam="2">  1       21 0.36730380E-01 0.22547622E+03</pdfrwt>
<totfact> 0.29266051E+04</totfact>
</mgrwt>
</event>
<event>
12    2  0.4097182E-002  0.1756484E+03  0.7546771E-02  0.1172084E+00
         21   -1    0    0  501  502  0.00000000000E+00  0.00000000000E+00  0.22248276263E+03  0.22248276263E+03  0.00000000000E+00 0.  1.
         21   -1    0    0  502  503 -0.00000000000E+00 -0.00000000000E+00 -0.17435440404E+03  0.17435440404E+03  0.00000000000E+00 0.  1.
         -6    2    1    2    0  503 -0.30205499821E+02  0.57058876109E+00 -0.65704845869E+02  0.18752791600E+03  0.17302281560E+03 0.  0.
        -24    2    3    3    0    0  0.48201695505E+02  0.13212947017E+02 -0.23840715595E+02  0.97626787505E+02  0.80402888631E+02 0.  0.
          6    2    1    2  501    0  0.30205499821E+02 -0.57058876109E+00  0.11383320445E+03  0.20930925067E+03  0.17303082439E+03 0.  0.
         24    2    5    5    0    0  0.45002834524E+02 -0.38823221710E+02  0.13000973268E+03  0.16496970729E+03  0.82340610116E+02 0.  0.
          5    1    5    5  501    0 -0.14797334702E+02  0.38252632949E+02 -0.16176528223E+02  0.44339543381E+02  0.47000000000E+01 0. -1.
        -15    1    6    6    0    0  0.53660134070E+02 -0.56818416401E+01  0.11602525694E+03  0.12797152531E+03  0.17770000000E+01 0.  1.
         16    1    6    6    0    0 -0.86572995462E+01 -0.33141380070E+02  0.13984475735E+02  0.36998181982E+02  0.00000000000E+00 0. -1.
         -5    1    3    3    0  503 -0.78407195326E+02 -0.12642358256E+02 -0.41864130274E+02  0.89901128496E+02  0.47000000000E+01 0.  1.
         15    1    4    4    0    0 -0.20492861550E+02  0.85685693787E+01  0.52319124831E+01  0.22889045260E+02  0.17770000000E+01 0. -1.
        -16    1    4    4    0    0  0.68694557054E+02  0.46443776380E+01 -0.29072628078E+02  0.74737742245E+02  0.00000000000E+00 0.  1.
<mgrwt>
<rscale>  2 0.17564644E+03</rscale>
<asrwt>0</asrwt>
<pdfrwt beam="1">  1       21 0.34228117E-01 0.17564841E+03</pdfrwt>
<pdfrwt beam="2">  1       21 0.26823754E-01 0.17564841E+03</pdfrwt>
<totfact> 0.10953837E+05</totfact>
</mgrwt>
</event>
<event>
12    2  0.4097182E-002  0.2043645E+03  0.7546771E-02  0.1146975E+00
         21   -1    0    0  503  502  0.00000000000E+00  0.00000000000E+00  0.24557556262E+03  0.24557556262E+03  0.00000000000E+00 0. -1.
         21   -1    0    0  501  503 -0.00000000000E+00 -0.00000000000E+00 -0.16727204168E+03  0.16727204168E+03  0.00000000000E+00 0. -1.
          6    2    1    2  501    0  0.69722688248E+02  0.80992192454E+02  0.25735326436E+02  0.20183040937E+03  0.16926966245E+03 0.  0.
         24    2    3    3    0    0  0.74722598620E+02  0.42947966086E+02 -0.41187468273E+02  0.12454449400E+03  0.79918263912E+02 0.  0.
         -6    2    1    2    0  502 -0.69722688248E+02 -0.80992192454E+02  0.52568194509E+02  0.21101719493E+03  0.17419487072E+03 0.  0.
        -24    2    5    5    0    0  0.26126125280E+02 -0.66098126049E+02  0.21163534274E+02  0.10895265185E+03  0.79820100686E+02 0.  0.
          5    1    3    3  501    0 -0.49999103723E+01  0.38044226368E+02  0.66922794710E+02  0.77285915376E+02  0.47000000000E+01 0. -1.
        -15    1    4    4    0    0  0.18795726189E+02  0.34569405013E+02 -0.53728053771E+02  0.66619701117E+02  0.17770000000E+01 0.  1.
         16    1    4    4    0    0  0.55926872431E+02  0.83785610733E+01  0.12540585498E+02  0.57924792880E+02  0.00000000000E+00 0. -1.
         -5    1    5    5    0  502 -0.95848813527E+02 -0.14894066405E+02  0.31404660234E+02  0.10206454307E+03  0.47000000000E+01 0.  1.
         15    1    6    6    0    0  0.13806935676E+00 -0.33373772772E+02 -0.28587674608E+02  0.43980002736E+02  0.17770000000E+01 0. -1.
        -16    1    6    6    0    0  0.25988055923E+02 -0.32724353277E+02  0.49751208882E+02  0.64972649117E+02  0.00000000000E+00 0.  1.
<mgrwt>
<rscale>  2 0.20331098E+03</rscale>
<asrwt>0</asrwt>
<pdfrwt beam="1">  1       21 0.37780856E-01 0.20436448E+03</pdfrwt>
<pdfrwt beam="2">  1       21 0.25734160E-01 0.20436448E+03</pdfrwt>
<totfact> 0.96368851E+04</totfact>
</mgrwt>
</event>
<event>
12    2  0.4097182E-002  0.2320947E+03  0.7546771E-02  0.1125754E+00
         21   -1    0    0  503  502  0.00000000000E+00  0.00000000000E+00  0.23333897953E+04  0.23333897953E+04  0.00000000000E+00 0.  1.
         21   -1    0    0  501  503 -0.00000000000E+00 -0.00000000000E+00 -0.23128405270E+02  0.23128405270E+02  0.00000000000E+00 0. -1.
          6    2    1    2  501    0 -0.12318532096E+03  0.90702748291E+02  0.10141423891E+04  0.10403618332E+04  0.17454611623E+03 0.  0.
         24    2    3    3    0    0 -0.12664263611E+03  0.30892650186E+02  0.88334840416E+03  0.89642310537E+03  0.79229209209E+02 0.  0.
         -6    2    1    2    0  502  0.12318532096E+03 -0.90702748291E+02  0.12961190009E+04  0.13161563674E+04  0.17012203574E+03 0.  0.
        -24    2    5    5    0    0  0.14450124127E+03 -0.10777617346E+03  0.10448282360E+04  0.10633421890E+04  0.80834743091E+02 0.  0.
          5    1    3    3  501    0  0.34573151547E+01  0.59810098105E+02  0.13079398496E+03  0.14393872781E+03  0.47000000000E+01 0. -1.
        -15    1    4    4    0    0 -0.73042640440E+02  0.55977342225E+02  0.59351918641E+03  0.60061374654E+03  0.17770000000E+01 0.  1.
         16    1    4    4    0    0 -0.53599995671E+02 -0.25084692039E+02  0.28982921775E+03  0.29580935883E+03  0.00000000000E+00 0. -1.
         -5    1    5    5    0  502 -0.21315920318E+02  0.17073425173E+02  0.25129076489E+03  0.25281417845E+03  0.47000000000E+01 0.  1.
         15    1    6    6    0    0  0.51913265801E+01  0.99179573274E+01  0.26650616981E+02  0.28960816005E+02  0.17770000000E+01 0. -1.
        -16    1    6    6    0    0  0.13930991469E+03 -0.11769413079E+03  0.10181776191E+04  0.10343813730E+04  0.00000000000E+00 0.  1.
<mgrwt>
<rscale>  2 0.23126313E+03</rscale>
<asrwt>0</asrwt>
<pdfrwt beam="1">  1       21 0.35898286E+00 0.23209472E+03</pdfrwt>
<pdfrwt beam="2">  1       21 0.35582180E-02 0.23209472E+03</pdfrwt>
<totfact> 0.70437077E+03</totfact>
</mgrwt>
</event>
<event>
12    2  0.4097182E-002  0.2620499E+03  0.7546771E-02  0.1106105E+00
         21   -1    0    0  503  502  0.00000000000E+00  0.00000000000E+00  0.50151425622E+03  0.50151425622E+03  0.00000000000E+00 0.  1.
         21   -1    0    0  501  503 -0.00000000000E+00 -0.00000000000E+00 -0.19788327502E+03  0.19788327502E+03  0.00000000000E+00 0. -1.
          6    2    1    2  501    0 -0.10139412696E+03 -0.16614015351E+03 -0.43565280164E+02  0.26440859265E+03  0.17358182694E+03 0.  0.
         24    2    3    3    0    0 -0.12309601954E+03 -0.17195707959E+03 -0.13817630556E+02  0.22683438039E+03  0.80876708413E+02 0.  0.
         -6    2    1    2    0  502  0.10139412696E+03  0.16614015351E+03  0.34719626136E+03  0.43498893858E+03  0.17546171433E+03 0.  0.
        -24    2    5    5    0    0  0.51852780919E+02  0.21035201140E+02  0.76895867004E+02  0.12419288752E+03  0.79873076636E+02 0.  0.
          5    1    3    3  501    0  0.21701892577E+02  0.58169260804E+01 -0.29747649607E+02  0.37574212269E+02  0.47000000000E+01 0. -1.
        -15    1    4    4    0    0 -0.15670668454E+00  0.58145360848E+01  0.74871619231E+01  0.96461759019E+01  0.17770000000E+01 0.  1.
         16    1    4    4    0    0 -0.12293931286E+03 -0.17777161567E+03 -0.21304792479E+02  0.21718820448E+03  0.00000000000E+00 0. -1.
         -5    1    5    5    0  502  0.49541346046E+02  0.14510495237E+03  0.27030039435E+03  0.31079605107E+03  0.47000000000E+01 0.  1.
         15    1    6    6    0    0  0.56041521483E+02  0.45507771779E+02  0.51647124659E+02  0.88781713416E+02  0.17770000000E+01 0. -1.
        -16    1    6    6    0    0 -0.41887405640E+01 -0.24472570639E+02  0.25248742345E+02  0.35411174101E+02  0.00000000000E+00 0.  1.
<mgrwt>
<rscale>  2 0.26173556E+03</rscale>
<asrwt>0</asrwt>
<pdfrwt beam="1">  1       21 0.77156039E-01 0.26204987E+03</pdfrwt>
<pdfrwt beam="2">  1       21 0.30443581E-01 0.26204987E+03</pdfrwt>
<totfact> 0.14854194E+04</totfact>
</mgrwt>
</event>
<event>
12    2  0.4097182E-002  0.1855086E+03  0.7546771E-02  0.1162683E+00
         21   -1    0    0  503  502  0.00000000000E+00  0.00000000000E+00  0.33399783181E+03  0.33399783181E+03  0.00000000000E+00 0. -1.
         21   -1    0    0  501  503 -0.00000000000E+00 -0.00000000000E+00 -0.21417324596E+03  0.21417324596E+03  0.00000000000E+00 0.  1.
          6    2    1    2  501    0  0.63868835111E+02  0.15070082392E+02  0.25761522990E+03  0.31745715532E+03  0.17351398592E+03 0.  0.
         24    2    3    3    0    0  0.10303109227E+03  0.52845285588E+01  0.13591823113E+03  0.18915404173E+03  0.81622017458E+02 0.  0.
         -6    2    1    2    0  502 -0.63868835111E+02 -0.15070082392E+02 -0.13779064405E+03  0.23071392245E+03  0.17302114593E+03 0.  0.
        -24    2    5    5    0    0 -0.71313937074E+02  0.47563419822E+02 -0.65858388125E+02  0.13492913980E+03  0.80750163813E+02 0.  0.
          5    1    3    3  501    0 -0.39162257155E+02  0.97855538329E+01  0.12169699877E+03  0.12830311360E+03  0.47000000000E+01 0. -1.
        -15    1    4    4    0    0  0.26260322034E+02 -0.19002458543E+02  0.15420463613E+01  0.32499747384E+02  0.17770000000E+01 0.  1.
         16    1    4    4    0    0  0.76770770232E+02  0.24286987102E+02  0.13437618477E+03  0.15665429435E+03  0.00000000000E+00 0. -1.
         -5    1    5    5    0  502  0.74451019633E+01 -0.62633502213E+02 -0.71932255929E+02  0.95784782642E+02  0.47000000000E+01 0.  1.
         15    1    6    6    0    0 -0.29881726263E+02 -0.17211095394E+02 -0.13412383120E+01  0.34555694441E+02  0.17770000000E+01 0. -1.
        -16    1    6    6    0    0 -0.41432210811E+02  0.64774515215E+02 -0.64517149813E+02  0.10037344536E+03  0.00000000000E+00 0.  1.
<mgrwt>
<rscale>  2 0.18539326E+03</rscale>
<asrwt>0</asrwt>
<pdfrwt beam="1">  1       21 0.51384282E-01 0.18550859E+03</pdfrwt>
<pdfrwt beam="2">  1       21 0.32949730E-01 0.18550859E+03</pdfrwt>
<totfact> 0.32034441E+04</totfact>
</mgrwt>
</event>
<event>
12    2  0.4097182E-002  0.2372546E+03  0.7546771E-02  0.1122205E+00
         21   -1    0    0  503  502  0.00000000000E+00  0.00000000000E+00  0.33673609097E+03  0.33673609097E+03  0.00000000000E+00 0. -1.
         21   -1    0    0  501  503 -0.00000000000E+00 -0.00000000000E+00 -0.16618207236E+03  0.16618207236E+03  0.00000000000E+00 0.  1.
          6    2    1    2  501    0  0.16083813812E+03 -0.19298441434E+02  0.10869586764E+03  0.26096849227E+03  0.17334481764E+03 0.  0.
         24    2    3    3    0    0  0.86183774656E+02  0.54605928452E+02  0.75658203659E+02  0.15074731866E+03  0.81185835373E+02 0.  0.
         -6    2    1    2    0  502 -0.16083813812E+03  0.19298441434E+02  0.61858150981E+02  0.24194967106E+03  0.16873611340E+03 0.  0.
        -24    2    5    5    0    0 -0.51320098525E+02  0.51154180519E+02 -0.66566436874E+01  0.10881306378E+03  0.80904074351E+02 0.  0.
          5    1    3    3  501    0  0.74654363464E+02 -0.73904369885E+02  0.33037663976E+02  0.11022117362E+03  0.47000000000E+01 0. -1.
        -15    1    4    4    0    0  0.36081227635E+01  0.22573857031E+01 -0.16048423585E+02  0.16698022896E+02  0.17770000000E+01 0.  1.
         16    1    4    4    0    0  0.82575651892E+02  0.52348542749E+02  0.91706627244E+02  0.13404929576E+03  0.00000000000E+00 0. -1.
         -5    1    5    5    0  502 -0.10951803959E+03 -0.31855739085E+02  0.68514794668E+02  0.13313660728E+03  0.47000000000E+01 0.  1.
         15    1    6    6    0    0 -0.58558219079E+02  0.47698133016E+02  0.22297296821E+02  0.78768674544E+02  0.17770000000E+01 0. -1.
        -16    1    6    6    0    0  0.72381205540E+01  0.34560475027E+01 -0.28953940509E+02  0.30044389234E+02  0.00000000000E+00 0.  1.
<mgrwt>
<rscale>  2 0.23641366E+03</rscale>
<asrwt>0</asrwt>
<pdfrwt beam="1">  1       21 0.51805552E-01 0.23725464E+03</pdfrwt>
<pdfrwt beam="2">  1       21 0.25566473E-01 0.23725464E+03</pdfrwt>
<totfact> 0.50307337E+04</totfact>
</mgrwt>
</event>
<event>
12    2  0.4097182E-002  0.1784230E+03  0.7546771E-02  0.1170113E+00
         21   -1    0    0  503  502  0.00000000000E+00  0.00000000000E+00  0.54877840192E+02  0.54877840192E+02  0.00000000000E+00 0. -1.
         21   -1    0    0  501  503 -0.00000000000E+00 -0.00000000000E+00 -0.58513835730E+03  0.58513835730E+03  0.00000000000E+00 0. -1.
          6    2    1    2  501    0 -0.53246209740E+01 -0.35903249815E+02 -0.31896453469E+03  0.36547657319E+03  0.17469217562E+03 0.  0.
         24    2    3    3    0    0  0.21513625261E+02  0.42046497979E+02 -0.13945953417E+03  0.16788965597E+03  0.80667408831E+02 0.  0.
         -6    2    1    2    0  502  0.53246209740E+01  0.35903249815E+02 -0.21129598241E+03  0.27453962430E+03  0.17148941131E+03 0.  0.
        -24    2    5    5    0    0 -0.16908292393E+02  0.85493607108E+02 -0.12133191123E+03  0.16932969094E+03  0.79724929253E+02 0.  0.
          5    1    3    3  501    0 -0.26838246235E+02 -0.77949747793E+02 -0.17950500052E+03  0.19758691721E+03  0.47000000000E+01 0. -1.
        -15    1    4    4    0    0 -0.19295592446E+02  0.16309480424E+02 -0.10647307733E+03  0.10944401750E+03  0.17770000000E+01 0.  1.
         16    1    4    4    0    0  0.40809217707E+02  0.25737017554E+02 -0.32986456837E+02  0.58445638478E+02  0.00000000000E+00 0. -1.
         -5    1    5    5    0  502  0.22232913367E+02 -0.49590357294E+02 -0.89964071186E+02  0.10520993336E+03  0.47000000000E+01 0.  1.
         15    1    6    6    0    0 -0.36976490586E+02  0.71217589275E+02 -0.51707646870E+02  0.95477978361E+02  0.17770000000E+01 0. -1.
        -16    1    6    6    0    0  0.20068198193E+02  0.14276017834E+02 -0.69624264355E+02  0.73851712579E+02  0.00000000000E+00 0.  1.
<mgrwt>
<rscale>  2 0.17763409E+03</rscale>
<asrwt>0</asrwt>
<pdfrwt beam="1">  1       21 0.84427449E-02 0.17842296E+03</pdfrwt>
<pdfrwt beam="2">  1       21 0.90021283E-01 0.17842296E+03</pdfrwt>
<totfact> 0.11533788E+05</totfact>
</mgrwt>
</event>
<event>
12    2  0.4097182E-002  0.2435345E+03  0.7546771E-02  0.1117879E+00
         21   -1    0    0  503  502  0.00000000000E+00  0.00000000000E+00  0.50360128818E+02  0.50360128818E+02  0.00000000000E+00 0. -1.
         21   -1    0    0  501  503 -0.00000000000E+00 -0.00000000000E+00 -0.13811042069E+04  0.13811042069E+04  0.00000000000E+00 0. -1.
          6    2    1    2  501    0  0.42474179021E+02 -0.16327093989E+03 -0.37958100010E+03  0.44961900720E+03  0.17208736242E+03 0.  0.
         24    2    3    3    0    0 -0.28731606857E+02 -0.53693394925E+02 -0.10427863001E+03  0.14483877937E+03  0.79973454602E+02 0.  0.
         -6    2    1    2    0  502 -0.42474179021E+02  0.16327093989E+03 -0.95116307794E+03  0.98184532847E+03  0.17563482716E+03 0.  0.
        -24    2    5    5    0    0 -0.80412049604E+02  0.74301257210E+02 -0.41075586647E+03  0.43283081986E+03  0.81457732812E+02 0.  0.
          5    1    3    3  501    0  0.71205785878E+02 -0.10957754496E+03 -0.27530237008E+03  0.30478022783E+03  0.47000000000E+01 0. -1.
        -15    1    4    4    0    0  0.84673585505E+01  0.12343036210E+02  0.10101720854E+01  0.15107113568E+02  0.17770000000E+01 0.  1.
         16    1    4    4    0    0 -0.37198965407E+02 -0.66036431135E+02 -0.10528880210E+03  0.12973166580E+03  0.00000000000E+00 0. -1.
         -5    1    5    5    0  502  0.37937870583E+02  0.88969682679E+02 -0.54040721146E+03  0.54901450861E+03  0.47000000000E+01 0.  1.
         15    1    6    6    0    0 -0.21169307012E+02  0.70374204109E+02 -0.17712022130E+03  0.19176912860E+03  0.17770000000E+01 0. -1.
        -16    1    6    6    0    0 -0.59242742592E+02  0.39270531009E+01 -0.23363564518E+03  0.24106169126E+03  0.00000000000E+00 0.  1.
<mgrwt>
<rscale>  2 0.24289551E+03</rscale>
<asrwt>0</asrwt>
<pdfrwt beam="1">  1       21 0.77477118E-02 0.24353449E+03</pdfrwt>
<pdfrwt beam="2">  1       21 0.21247758E+00 0.24353449E+03</pdfrwt>
<totfact> 0.13669750E+04</totfact>
</mgrwt>
</event>
<event>
12    2  0.4097182E-002  0.2475835E+03  0.7546771E-02  0.1115004E+00
         21   -1    0    0  501  502  0.00000000000E+00  0.00000000000E+00  0.14086217248E+03  0.14086217248E+03  0.00000000000E+00 0. -1.
         21   -1    0    0  502  503 -0.00000000000E+00 -0.00000000000E+00 -0.52700852456E+03  0.52700852456E+03  0.00000000000E+00 0.  1.
         -6    2    1    2    0  503  0.14368194391E+03 -0.10235419136E+03 -0.33350217440E+03  0.41475218481E+03  0.17226373087E+03 0.  0.
        -24    2    3    3    0    0  0.10201055076E+03 -0.87251780768E+02 -0.12400863960E+03  0.20056950824E+03  0.82649617239E+02 0.  0.
          6    2    1    2  501    0 -0.14368194391E+03  0.10235419136E+03 -0.52644177672E+02  0.25311851224E+03  0.17371439290E+03 0.  0.
         24    2    5    5    0    0 -0.81766023508E+02  0.10888972120E+03 -0.85829639896E+02  0.18241024361E+03  0.85814427136E+02 0.  0.
          5    1    5    5  501    0 -0.61915920403E+02 -0.65355298396E+01  0.33185462224E+02  0.70708268630E+02  0.47000000000E+01 0. -1.
        -15    1    6    6    0    0 -0.78863108936E+02  0.69537574901E+02 -0.22100989674E+02  0.10745452874E+03  0.17770000000E+01 0.  1.
         16    1    6    6    0    0 -0.29029145716E+01  0.39352146298E+02 -0.63728650221E+02  0.74955714861E+02  0.00000000000E+00 0. -1.
         -5    1    3    3    0  503  0.41671393154E+02 -0.15102410591E+02 -0.20949353481E+03  0.21418267656E+03  0.47000000000E+01 0.  1.
         15    1    4    4    0    0  0.89714443664E+02 -0.56616519039E+02 -0.12916844274E+03  0.16715787734E+03  0.17770000000E+01 0. -1.
        -16    1    4    4    0    0  0.12296107093E+02 -0.30635261730E+02  0.51598031420E+01  0.33411630899E+02  0.00000000000E+00 0.  1.
<mgrwt>
<rscale>  2 0.24732915E+03</rscale>
<asrwt>0</asrwt>
<pdfrwt beam="1">  1       21 0.21671104E-01 0.24758346E+03</pdfrwt>
<pdfrwt beam="2">  1       21 0.81078232E-01 0.24758346E+03</pdfrwt>
<totfact> 0.25738878E+04</totfact>
</mgrwt>
</event>
<event>
12    2  0.4097182E-002  0.1855691E+03  0.7546771E-02  0.1162698E+00
         21   -1    0    0  503  502  0.00000000000E+00  0.00000000000E+00  0.80201158701E+03  0.80201158701E+03  0.00000000000E+00 0. -1.
         21   -1    0    0  501  503 -0.00000000000E+00 -0.00000000000E+00 -0.42989706901E+02  0.42989706901E+02  0.00000000000E+00 0. -1.
          6    2    1    2  501    0  0.42616577073E+02 -0.51356009375E+02  0.34939345138E+03  0.39561555055E+03  0.17315388426E+03 0.  0.
         24    2    3    3    0    0  0.79297193072E+02  0.81761651042E+01  0.17090680898E+03  0.20386279594E+03  0.77433892499E+02 0.  0.
         -6    2    1    2    0  502 -0.42616577073E+02  0.51356009375E+02  0.40962842873E+03  0.44938574335E+03  0.17233248204E+03 0.  0.
        -24    2    5    5    0    0  0.55204737600E+01  0.21856629072E+02  0.37165190521E+03  0.38118240443E+03  0.81649855716E+02 0.  0.
          5    1    3    3  501    0 -0.36680615999E+02 -0.59532174479E+02  0.17848664240E+03  0.19175275462E+03  0.47000000000E+01 0. -1.
        -15    1    4    4    0    0  0.28826989529E+02  0.39440317759E+02  0.10055675731E+03  0.11180945023E+03  0.17770000000E+01 0.  1.
         16    1    4    4    0    0  0.50470203543E+02 -0.31264152655E+02  0.70350051669E+02  0.92053345712E+02  0.00000000000E+00 0. -1.
         -5    1    5    5    0  502 -0.48137050833E+02  0.29499380303E+02  0.37976523519E+02  0.68203338919E+02  0.47000000000E+01 0.  1.
         15    1    6    6    0    0 -0.11145123783E+01  0.17417180447E+02  0.11576263357E+02  0.21018275735E+02  0.17770000000E+01 0. -1.
        -16    1    6    6    0    0  0.66349861383E+01  0.44394486256E+01  0.36007564185E+03  0.36016412870E+03  0.00000000000E+00 0.  1.
<mgrwt>
<rscale>  2 0.18537722E+03</rscale>
<asrwt>0</asrwt>
<pdfrwt beam="1">  1       21 0.12338639E+00 0.18556907E+03</pdfrwt>
<pdfrwt beam="2">  1       21 0.66138017E-02 0.18556907E+03</pdfrwt>
<totfact> 0.82469892E+04</totfact>
</mgrwt>
</event>
<event>
12    2  0.4097182E-002  0.1890903E+03  0.7546771E-02  0.1161631E+00
         21   -1    0    0  503  502  0.00000000000E+00  0.00000000000E+00  0.23914645783E+03  0.23914645783E+03  0.00000000000E+00 0. -1.
         21   -1    0    0  501  503 -0.00000000000E+00 -0.00000000000E+00 -0.22971552279E+03  0.22971552279E+03  0.00000000000E+00 0. -1.
          6    2    1    2  501    0  0.80090712360E+01 -0.59449985392E+02 -0.14030214259E+03  0.23545661046E+03  0.17932283237E+03 0.  0.
         24    2    3    3    0    0  0.53071467994E+02 -0.84769554035E+02 -0.13032370567E+03  0.18260436962E+03  0.79734744880E+02 0.  0.
         -6    2    1    2    0  502 -0.80090712360E+01  0.59449985392E+02  0.14973307763E+03  0.23340537017E+03  0.16869981121E+03 0.  0.
        -24    2    5    5    0    0  0.33649546114E+01 -0.32308661211E+02  0.77798215644E+02  0.11616317614E+03  0.79913382017E+02 0.  0.
          5    1    3    3  501    0 -0.45062396758E+02  0.25319568644E+02 -0.99784369274E+01  0.52852240836E+02  0.47000000000E+01 0. -1.
        -15    1    4    4    0    0  0.74288737094E+01 -0.25163312552E+01  0.10516103198E+02  0.13238815772E+02  0.17770000000E+01 0.  1.
         16    1    4    4    0    0  0.45642594284E+02 -0.82253222780E+02 -0.14083980886E+03  0.16936555385E+03  0.00000000000E+00 0. -1.
         -5    1    5    5    0  502 -0.11374025847E+02  0.91758646603E+02  0.71934861989E+02  0.11724219402E+03  0.47000000000E+01 0.  1.
         15    1    6    6    0    0 -0.32768876161E+02 -0.13952611720E+02  0.97650026519E+01  0.36972795735E+02  0.17770000000E+01 0. -1.
        -16    1    6    6    0    0  0.36133830772E+02 -0.18356049491E+02  0.68033212992E+02  0.79190380408E+02  0.00000000000E+00 0.  1.
<mgrwt>
<rscale>  2 0.18652800E+03</rscale>
<asrwt>0</asrwt>
<pdfrwt beam="1">  1       21 0.36791763E-01 0.18909025E+03</pdfrwt>
<pdfrwt beam="2">  1       21 0.35340850E-01 0.18909025E+03</pdfrwt>
<totfact> 0.55088605E+04</totfact>
</mgrwt>
</event>
<event>
12    2  0.4097182E-002  0.2045754E+03  0.7546771E-02  0.1145954E+00
         21   -1    0    0  503  502  0.00000000000E+00  0.00000000000E+00  0.60007325889E+02  0.60007325889E+02  0.00000000000E+00 0.  1.
         21   -1    0    0  501  503 -0.00000000000E+00 -0.00000000000E+00 -0.69711524263E+03  0.69711524263E+03  0.00000000000E+00 0. -1.
          6    2    1    2  501    0 -0.26063986148E+02  0.10545219222E+03 -0.31929489128E+03  0.37921012579E+03  0.17335396070E+03 0.  0.
         24    2    3    3    0    0  0.48014478541E+02  0.77469891451E+02 -0.22696695264E+03  0.25748434241E+03  0.80481145398E+02 0.  0.
         -6    2    1    2    0  502  0.26063986148E+02 -0.10545219222E+03 -0.31781302546E+03  0.37791244272E+03  0.17324317878E+03 0.  0.
        -24    2    5    5    0    0  0.12915574688E+02 -0.14183663728E+03 -0.27643553609E+03  0.32107147868E+03  0.79911482672E+02 0.  0.
          5    1    3    3  501    0 -0.74078464689E+02  0.27982300767E+02 -0.92327938632E+02  0.12172578338E+03  0.47000000000E+01 0. -1.
        -15    1    4    4    0    0  0.27685282137E+02  0.57216485157E+02 -0.57897858333E+02  0.85997213613E+02  0.17770000000E+01 0.  1.
         16    1    4    4    0    0  0.20329196404E+02  0.20253406294E+02 -0.16906909431E+03  0.17148712880E+03  0.00000000000E+00 0. -1.
         -5    1    5    5    0  502  0.13148411460E+02  0.36384445067E+02 -0.41377489374E+02  0.56840964046E+02  0.47000000000E+01 0.  1.
         15    1    6    6    0    0  0.35047633410E+02 -0.27683682576E+02 -0.10280942715E+03  0.11210557046E+03  0.17770000000E+01 0. -1.
        -16    1    6    6    0    0 -0.22132058722E+02 -0.11415295471E+03 -0.17362610893E+03  0.20896590821E+03  0.00000000000E+00 0.  1.
<mgrwt>
<rscale>  2 0.20455192E+03</rscale>
<asrwt>0</asrwt>
<pdfrwt beam="1">  1       21 0.92318967E-02 0.20457539E+03</pdfrwt>
<pdfrwt beam="2">  1       21 0.10724849E+00 0.20457539E+03</pdfrwt>
<totfact> 0.64481477E+04</totfact>
</mgrwt>
</event>
<event>
12    2  0.4097182E-002  0.1835089E+03  0.7546771E-02  0.1164977E+00
         21   -1    0    0  501  502  0.00000000000E+00  0.00000000000E+00  0.74404118516E+02  0.74404118516E+02  0.00000000000E+00 0. -1.
         21   -1    0    0  502  503 -0.00000000000E+00 -0.00000000000E+00 -0.52841772426E+03  0.52841772426E+03  0.00000000000E+00 0.  1.
         -6    2    1    2    0  503  0.51640995493E+02 -0.24712966219E+02 -0.34638443844E+03  0.39199193875E+03  0.17435015842E+03 0.  0.
        -24    2    3    3    0    0  0.88173210937E+02 -0.46306438732E+02 -0.18694633333E+03  0.22693594771E+03  0.81438267548E+02 0.  0.
          6    2    1    2  501    0 -0.51640995493E+02  0.24712966219E+02 -0.10762916731E+03  0.21082990402E+03  0.17201071961E+03 0.  0.
         24    2    5    5    0    0 -0.51108598922E+02  0.79863443271E+02 -0.83465534737E+02  0.15043263832E+03  0.81689807989E+02 0.  0.
          5    1    5    5  501    0 -0.53239657170E+00 -0.55150477051E+02 -0.24163632572E+02  0.60397265701E+02  0.47000000000E+01 0. -1.
        -15    1    6    6    0    0 -0.69618526236E+01  0.12145333379E+02 -0.66310027627E+02  0.67794940871E+02  0.17770000000E+01 0.  1.
         16    1    6    6    0    0 -0.44146746298E+02  0.67718109892E+02 -0.17155507110E+02  0.82637697453E+02  0.00000000000E+00 0. -1.
         -5    1    3    3    0  503 -0.36532215443E+02  0.21593472513E+02 -0.15943810511E+03  0.16505599105E+03  0.47000000000E+01 0.  1.
         15    1    4    4    0    0  0.17378148375E+02  0.37829975458E+01  0.30045623226E+01  0.18124465099E+02  0.17770000000E+01 0. -1.
        -16    1    4    4    0    0  0.70795062562E+02 -0.50089436278E+02 -0.18995089565E+03  0.20881148261E+03  0.00000000000E+00 0.  1.
<mgrwt>
<rscale>  2 0.18295102E+03</rscale>
<asrwt>0</asrwt>
<pdfrwt beam="1">  1       21 0.11446787E-01 0.18350886E+03</pdfrwt>
<pdfrwt beam="2">  1       21 0.81295036E-01 0.18350886E+03</pdfrwt>
<totfact> 0.84993601E+04</totfact>
</mgrwt>
</event>
<event>
12    2  0.4097182E-002  0.2590534E+03  0.7546771E-02  0.1107726E+00
         21   -1    0    0  501  502  0.00000000000E+00  0.00000000000E+00  0.97577961921E+03  0.97577961921E+03  0.00000000000E+00 0.  1.
         21   -1    0    0  502  503 -0.00000000000E+00 -0.00000000000E+00 -0.15111810566E+03  0.15111810566E+03  0.00000000000E+00 0.  1.
         -6    2    1    2    0  503  0.17653708970E+03 -0.78618157704E+02 -0.36166723227E+01  0.25907859667E+03  0.17251805752E+03 0.  0.
        -24    2    3    3    0    0  0.41423658541E+02 -0.46596433780E+01  0.38682055035E+02  0.99276301758E+02  0.81374756193E+02 0.  0.
          6    2    1    2  501    0 -0.17653708970E+03  0.78618157704E+02  0.82827818588E+03  0.86781912820E+03  0.17239236442E+03 0.  0.
         24    2    5    5    0    0 -0.12147960566E+03 -0.19013518314E+02  0.48975688136E+03  0.51119322572E+03  0.79610945909E+02 0.  0.
          5    1    5    5  501    0 -0.55057484044E+02  0.97631676018E+02  0.33852130451E+03  0.35662590248E+03  0.47000000000E+01 0. -1.
        -15    1    6    6    0    0 -0.31458578510E+02 -0.40363934072E+02  0.12976256472E+03  0.13950043107E+03  0.17770000000E+01 0.  1.
         16    1    6    6    0    0 -0.90021027150E+02  0.21350415759E+02  0.35999431664E+03  0.37169279465E+03  0.00000000000E+00 0. -1.
         -5    1    3    3    0  503  0.13511343116E+03 -0.73958514326E+02 -0.42298727358E+02  0.15980229491E+03  0.47000000000E+01 0.  1.
         15    1    4    4    0    0  0.18109193493E+02 -0.25122580517E+02  0.55802320379E+02  0.63844683643E+02  0.17770000000E+01 0. -1.
        -16    1    4    4    0    0  0.23314465048E+02  0.20462937139E+02 -0.17120265343E+02  0.35431618115E+02  0.00000000000E+00 0.  1.
<mgrwt>
<rscale>  2 0.25903243E+03</rscale>
<asrwt>0</asrwt>
<pdfrwt beam="1">  1       21 0.15011994E+00 0.25905335E+03</pdfrwt>
<pdfrwt beam="2">  1       21 0.23248940E-01 0.25905335E+03</pdfrwt>
<totfact> 0.49371658E+03</totfact>
</mgrwt>
</event>
<event>
12    2  0.4097182E-002  0.1916221E+03  0.7546771E-02  0.1157453E+00
         21   -1    0    0  501  502  0.00000000000E+00  0.00000000000E+00  0.12787438114E+03  0.12787438114E+03  0.00000000000E+00 0. -1.
         21   -1    0    0  502  503 -0.00000000000E+00 -0.00000000000E+00 -0.29565075462E+03  0.29565075462E+03  0.00000000000E+00 0. -1.
         -6    2    1    2    0  503 -0.73336513899E+02  0.34424297371E+02 -0.41736317688E+02  0.19416705814E+03  0.17145159589E+03 0.  0.
        -24    2    3    3    0    0 -0.82696029499E+02  0.81378620224E+02 -0.36850359254E+02  0.14581138054E+03  0.80261426554E+02 0.  0.
          6    2    1    2  501    0  0.73336513899E+02 -0.34424297371E+02 -0.12604005579E+03  0.22935807762E+03  0.17365412631E+03 0.  0.
         24    2    5    5    0    0  0.31998059525E+02 -0.67367249027E+02 -0.19526509955E+02  0.11035668553E+03  0.78962594909E+02 0.  0.
          5    1    5    5  501    0  0.41338454374E+02  0.32942951656E+02 -0.10651354583E+03  0.11900139209E+03  0.47000000000E+01 0. -1.
        -15    1    6    6    0    0 -0.30311045546E+01 -0.40660053620E+02 -0.43960868929E+02  0.59984525348E+02  0.17770000000E+01 0.  1.
         16    1    6    6    0    0  0.35029164080E+02 -0.26707195407E+02  0.24434358974E+02  0.50372160179E+02  0.00000000000E+00 0. -1.
         -5    1    3    3    0  503  0.93595155995E+01 -0.46954322853E+02 -0.48859584332E+01  0.48355677605E+02  0.47000000000E+01 0.  1.
         15    1    4    4    0    0 -0.77221238360E+02  0.20551970607E+02 -0.23263940079E+02  0.83245851468E+02  0.17770000000E+01 0. -1.
        -16    1    4    4    0    0 -0.54747911391E+01  0.60826649617E+02 -0.13586419175E+02  0.62565529069E+02  0.00000000000E+00 0.  1.
<mgrwt>
<rscale>  2 0.19112172E+03</rscale>
<asrwt>0</asrwt>
<pdfrwt beam="1">  1       21 0.19672982E-01 0.19162211E+03</pdfrwt>
<pdfrwt beam="2">  1       21 0.45484731E-01 0.19162211E+03</pdfrwt>
<totfact> 0.11039072E+05</totfact>
</mgrwt>
</event>
<event>
12    2  0.4097182E-002  0.1768642E+03  0.7546771E-02  0.1171548E+00
         21   -1    0    0  503  502  0.00000000000E+00  0.00000000000E+00  0.80733985870E+02  0.80733985870E+02  0.00000000000E+00 0.  1.
         21   -1    0    0  501  503 -0.00000000000E+00 -0.00000000000E+00 -0.17400389801E+04  0.17400389801E+04  0.00000000000E+00 0.  1.
          6    2    1    2  501    0  0.15502789077E+02 -0.13267079099E+02 -0.16354523599E+04  0.16449879541E+04  0.17568322557E+03 0.  0.
         24    2    3    3    0    0  0.61127701925E+02  0.36603467585E+02 -0.11337390744E+04  0.11387202236E+04  0.79012967362E+02 0.  0.
         -6    2    1    2    0  502 -0.15502789077E+02  0.13267079099E+02 -0.23852634386E+02  0.17578501193E+03  0.17295973634E+03 0.  0.
        -24    2    5    5    0    0 -0.47863700055E+02  0.19273386415E+02 -0.70645408203E+02  0.11838328750E+03  0.79758584813E+02 0.  0.
          5    1    3    3  501    0 -0.45624912848E+02 -0.49870546684E+02 -0.50171328546E+03  0.50626773046E+03  0.47000000000E+01 0. -1.
        -15    1    4    4    0    0  0.44825210243E+02 -0.16725247431E+02 -0.39764032433E+03  0.40051219537E+03  0.17770000000E+01 0.  1.
         16    1    4    4    0    0  0.16302491682E+02  0.53328715015E+02 -0.73609875008E+03  0.73820802823E+03  0.00000000000E+00 0. -1.
         -5    1    5    5    0  502  0.32360910978E+02 -0.60063073164E+01  0.46792773817E+02  0.57401724437E+02  0.47000000000E+01 0.  1.
         15    1    6    6    0    0  0.20878943263E+02 -0.47448391541E+01 -0.22370952570E+02  0.31017108477E+02  0.17770000000E+01 0. -1.
        -16    1    6    6    0    0 -0.68742643318E+02  0.24018225569E+02 -0.48274455632E+02  0.87366179019E+02  0.00000000000E+00 0.  1.
<mgrwt>
<rscale>  2 0.17618404E+03</rscale>
<asrwt>0</asrwt>
<pdfrwt beam="1">  1       21 0.12420614E-01 0.17686421E+03</pdfrwt>
<pdfrwt beam="2">  1       21 0.26769829E+00 0.17686421E+03</pdfrwt>
<totfact> 0.29468863E+03</totfact>
</mgrwt>
</event>
<event>
12    2  0.4097182E-002  0.1881872E+03  0.7546771E-02  0.1160381E+00
         21   -1    0    0  501  502  0.00000000000E+00  0.00000000000E+00  0.79657662239E+02  0.79657662239E+02  0.00000000000E+00 0.  1.
         21   -1    0    0  502  503 -0.00000000000E+00 -0.00000000000E+00 -0.52313188877E+03  0.52313188877E+03  0.00000000000E+00 0. -1.
         -6    2    1    2    0  503 -0.10914226022E+02 -0.71599661225E+02 -0.34000948747E+03  0.38803535546E+03  0.17239302103E+03 0.  0.
        -24    2    3    3    0    0 -0.24528630015E+02 -0.60395905190E+02 -0.35178677170E+03  0.36631737744E+03  0.78645846759E+02 0.  0.
          6    2    1    2  501    0  0.10914226022E+02  0.71599661225E+02 -0.10346473906E+03  0.21475419555E+03  0.17369162461E+03 0.  0.
         24    2    5    5    0    0  0.14252376522E+02  0.28850458467E+02  0.16312148905E+02  0.87446574110E+02  0.79657629462E+02 0.  0.
          5    1    5    5  501    0 -0.33381504993E+01  0.42749202758E+02 -0.11977688797E+03  0.12730762144E+03  0.47000000000E+01 0. -1.
        -15    1    6    6    0    0 -0.53208408136E+01  0.35544947423E+02 -0.23222061337E+02  0.42827286816E+02  0.17770000000E+01 0.  1.
         16    1    6    6    0    0  0.19573217335E+02 -0.66944889558E+01  0.39534210242E+02  0.44619287295E+02  0.00000000000E+00 0. -1.
         -5    1    3    3    0  503  0.13614403993E+02 -0.11203756035E+02  0.11777284236E+02  0.21717978022E+02  0.47000000000E+01 0.  1.
         15    1    4    4    0    0 -0.25499475789E+02  0.42084010298E+01 -0.19538861689E+03  0.19709846078E+03  0.17770000000E+01 0. -1.
        -16    1    4    4    0    0  0.97084577364E+00 -0.64604306219E+02 -0.15639815481E+03  0.16921891665E+03  0.00000000000E+00 0.  1.
<mgrwt>
<rscale>  2 0.18788698E+03</rscale>
<asrwt>0</asrwt>
<pdfrwt beam="1">  1       21 0.12255025E-01 0.18818717E+03</pdfrwt>
<pdfrwt beam="2">  1       21 0.80481828E-01 0.18818717E+03</pdfrwt>
<totfact> 0.76824662E+04</totfact>
</mgrwt>
</event>
<event>
12    2  0.4097182E-002  0.1799755E+03  0.7546771E-02  0.1168363E+00
         21   -1    0    0  503  502  0.00000000000E+00  0.00000000000E+00  0.35256713955E+03  0.35256713955E+03  0.00000000000E+00 0. -1.
         21   -1    0    0  501  503 -0.00000000000E+00 -0.00000000000E+00 -0.90756073804E+02  0.90756073804E+02  0.00000000000E+00 0. -1.
          6    2    1    2  501    0  0.10983178925E+02  0.52430907990E+02  0.13153415253E+03  0.22114477880E+03  0.16951150279E+03 0.  0.
         24    2    3    3    0    0  0.22140287728E+02  0.95214824127E+02  0.73057590811E+02  0.14768361336E+03  0.83168401493E+02 0.  0.
         -6    2    1    2    0  502 -0.10983178925E+02 -0.52430907990E+02  0.13027691322E+03  0.22217843455E+03  0.17181837018E+03 0.  0.
        -24    2    5    5    0    0  0.44657230842E+02 -0.68146989940E+02  0.56142364836E+02  0.12804623127E+03  0.81274791354E+02 0.  0.
          5    1    3    3  501    0 -0.11157108803E+02 -0.42783916137E+02  0.58476561721E+02  0.73461165438E+02  0.47000000000E+01 0. -1.
        -15    1    4    4    0    0  0.19437402575E+01 -0.52978977567E+01 -0.12708297674E+02  0.14018002911E+02  0.17770000000E+01 0.  1.
         16    1    4    4    0    0  0.20196547470E+02  0.10051272188E+03  0.85765888485E+02  0.13366561045E+03  0.00000000000E+00 0. -1.
         -5    1    5    5    0  502 -0.55640409768E+02  0.15716081949E+02  0.74134548380E+02  0.94132203281E+02  0.47000000000E+01 0.  1.
         15    1    6    6    0    0 -0.85838191096E+01 -0.59964523019E+02  0.23111896747E+02  0.64859413130E+02  0.17770000000E+01 0. -1.
        -16    1    6    6    0    0  0.53241049952E+02 -0.81824669212E+01  0.33030468089E+02  0.63186818144E+02  0.00000000000E+00 0.  1.
<mgrwt>
<rscale>  2 0.17942272E+03</rscale>
<asrwt>0</asrwt>
<pdfrwt beam="1">  1       21 0.54241098E-01 0.17997551E+03</pdfrwt>
<pdfrwt beam="2">  1       21 0.13962473E-01 0.17997551E+03</pdfrwt>
<totfact> 0.14412664E+05</totfact>
</mgrwt>
</event>
<event>
12    2  0.4097182E-002  0.1916385E+03  0.7546771E-02  0.1157565E+00
         21   -1    0    0  503  502  0.00000000000E+00  0.00000000000E+00  0.86848281165E+02  0.86848281165E+02  0.00000000000E+00 0. -1.
         21   -1    0    0  501  503 -0.00000000000E+00 -0.00000000000E+00 -0.44420237012E+03  0.44420237012E+03  0.00000000000E+00 0. -1.
          6    2    1    2  501    0  0.81560252457E+02  0.13686204174E+02 -0.24295411869E+03  0.30786312343E+03  0.17004003062E+03 0.  0.
         24    2    3    3    0    0  0.69189747341E+02  0.42372539435E+02 -0.74954318881E+02  0.13691881096E+03  0.80907092653E+02 0.  0.
         -6    2    1    2    0  502 -0.81560252457E+02 -0.13686204174E+02 -0.11439997026E+03  0.22318752785E+03  0.17287548244E+03 0.  0.
        -24    2    5    5    0    0 -0.96730696054E+02  0.14938654930E+02 -0.27273879308E+02  0.13011459601E+03  0.81277011704E+02 0.  0.
          5    1    3    3  501    0  0.12370505117E+02 -0.28686335261E+02 -0.16799979981E+03  0.17094431247E+03  0.47000000000E+01 0. -1.
        -15    1    4    4    0    0 -0.15105408777E+01  0.21803566066E+02 -0.57082417043E+02  0.61149303278E+02  0.17770000000E+01 0.  1.
         16    1    4    4    0    0  0.70700288218E+02  0.20568973369E+02 -0.17871901838E+02  0.75769507686E+02  0.00000000000E+00 0. -1.
         -5    1    5    5    0  502  0.15170443597E+02 -0.28624859103E+02 -0.87126090950E+02  0.93072931843E+02  0.47000000000E+01 0.  1.
         15    1    6    6    0    0 -0.86793357422E+02  0.24663570866E+02 -0.50224049213E+02  0.10328112833E+03  0.17770000000E+01 0. -1.
        -16    1    6    6    0    0 -0.99373386327E+01 -0.97249159360E+01  0.22950169905E+02  0.26833467680E+02  0.00000000000E+00 0.  1.
<mgrwt>
<rscale>  2 0.19099683E+03</rscale>
<asrwt>0</asrwt>
<pdfrwt beam="1">  1       21 0.13361274E-01 0.19163851E+03</pdfrwt>
<pdfrwt beam="2">  1       21 0.68338827E-01 0.19163851E+03</pdfrwt>
<totfact> 0.94550959E+04</totfact>
</mgrwt>
</event>
<event>
12    2  0.4097182E-002  0.2638984E+03  0.7546771E-02  0.1104983E+00
         21   -1    0    0  503  502  0.00000000000E+00  0.00000000000E+00  0.18456178031E+03  0.18456178031E+03  0.00000000000E+00 0.  1.
         21   -1    0    0  501  503 -0.00000000000E+00 -0.00000000000E+00 -0.38121039419E+03  0.38121039419E+03  0.00000000000E+00 0.  1.
          6    2    1    2  501    0  0.18345150065E+03 -0.74661910853E+02 -0.13225494289E+03  0.29518420612E+03  0.17439464327E+03 0.  0.
         24    2    3    3    0    0  0.89543703895E+02 -0.25833901322E+02 -0.14262173664E+03  0.18873041700E+03  0.81195721394E+02 0.  0.
         -6    2    1    2    0  502 -0.18345150065E+03  0.74661910853E+02 -0.64393670986E+02  0.27058796838E+03  0.17274967365E+03 0.  0.
        -24    2    5    5    0    0 -0.13090895406E+02  0.18095613331E+02 -0.11596454649E+01  0.80211725589E+02  0.77030859920E+02 0.  0.
          5    1    3    3  501    0  0.93907796759E+02 -0.48828009531E+02  0.10366793750E+02  0.10645378913E+03  0.47000000000E+01 0. -1.
        -15    1    4    4    0    0  0.79476573745E+02 -0.45360972939E+02 -0.77263999020E+02  0.11977907544E+03  0.17770000000E+01 0.  1.
         16    1    4    4    0    0  0.10067130150E+02  0.19527071617E+02 -0.65357737618E+02  0.68951341553E+02  0.00000000000E+00 0. -1.
         -5    1    5    5    0  502 -0.17036060525E+03  0.56566297522E+02 -0.63234025521E+02  0.19037624279E+03  0.47000000000E+01 0.  1.
         15    1    6    6    0    0  0.18887921721E+01  0.40123609112E+02  0.21180803902E+02  0.45445084739E+02  0.17770000000E+01 0. -1.
        -16    1    6    6    0    0 -0.14979687578E+02 -0.22027995781E+02 -0.22340449367E+02  0.34766640850E+02  0.00000000000E+00 0.  1.
<mgrwt>
<rscale>  2 0.26362690E+03</rscale>
<asrwt>0</asrwt>
<pdfrwt beam="1">  1       21 0.28394120E-01 0.26389836E+03</pdfrwt>
<pdfrwt beam="2">  1       21 0.58647753E-01 0.26389836E+03</pdfrwt>
<totfact> 0.31173318E+04</totfact>
</mgrwt>
</event>
<event>
12    2  0.4097182E-002  0.2741598E+03  0.7546771E-02  0.1099252E+00
         21   -1    0    0  503  502  0.00000000000E+00  0.00000000000E+00  0.27882820344E+03  0.27882820344E+03  0.00000000000E+00 0. -1.
         21   -1    0    0  501  503 -0.00000000000E+00 -0.00000000000E+00 -0.30159169814E+03  0.30159169814E+03  0.00000000000E+00 0.  1.
          6    2    1    2  501    0 -0.17789967718E+03 -0.11182031130E+03 -0.10923282654E+03  0.29294724265E+03  0.17243607343E+03 0.  0.
         24    2    3    3    0    0 -0.31859116213E+02 -0.88129011117E+02 -0.31979943545E+02  0.12597652341E+03  0.77882230162E+02 0.  0.
         -6    2    1    2    0  502  0.17789967718E+03  0.11182031130E+03  0.86469331839E+02  0.28747265894E+03  0.17610084363E+03 0.  0.
        -24    2    5    5    0    0  0.12595296496E+03  0.12983206361E+03  0.11110207142E+03  0.22704298087E+03  0.80525342372E+02 0.  0.
          5    1    3    3  501    0 -0.14604056097E+03 -0.23691300185E+02 -0.77252882993E+02  0.16697071924E+03  0.47000000000E+01 0. -1.
        -15    1    4    4    0    0 -0.20416356106E+02 -0.51480294236E+02 -0.57517596841E+02  0.79865386537E+02  0.17770000000E+01 0.  1.
         16    1    4    4    0    0 -0.11442760106E+02 -0.36648716880E+02  0.25537653296E+02  0.46111136873E+02  0.00000000000E+00 0. -1.
         -5    1    5    5    0  502  0.51946712224E+02 -0.18011752310E+02 -0.24632739581E+02  0.60429678068E+02  0.47000000000E+01 0.  1.
         15    1    6    6    0    0  0.24722292359E+02  0.80889185573E+02  0.58828570203E+02  0.10304470138E+03  0.17770000000E+01 0. -1.
        -16    1    6    6    0    0  0.10123067260E+03  0.48942878038E+02  0.52273501218E+02  0.12399827948E+03  0.00000000000E+00 0.  1.
<mgrwt>
<rscale>  2 0.27357303E+03</rscale>
<asrwt>0</asrwt>
<pdfrwt beam="1">  1       21 0.42896647E-01 0.27415978E+03</pdfrwt>
<pdfrwt beam="2">  1       21 0.46398723E-01 0.27415978E+03</pdfrwt>
<totfact> 0.22313416E+04</totfact>
</mgrwt>
</event>
<event>
12    2  0.4097182E-002  0.1966093E+03  0.7546771E-02  0.1153497E+00
         21   -1    0    0  501  502  0.00000000000E+00  0.00000000000E+00  0.87733179771E+03  0.87733179771E+03  0.00000000000E+00 0.  1.
         21   -1    0    0  502  503 -0.00000000000E+00 -0.00000000000E+00 -0.44760181473E+02  0.44760181473E+02  0.00000000000E+00 0.  1.
         -6    2    1    2    0  503 -0.14116505997E+02  0.89377719292E+02  0.33361459979E+03  0.38723882563E+03  0.17454957586E+03 0.  0.
        -24    2    3    3    0    0  0.28583839722E+02  0.45262552959E+02  0.30389968394E+03  0.31886826435E+03  0.80350591287E+02 0.  0.
          6    2    1    2  501    0  0.14116505997E+02 -0.89377719292E+02  0.49895701645E+03  0.53485315355E+03  0.17006510271E+03 0.  0.
         24    2    5    5    0    0  0.24090071193E+02  0.95347028778E+01  0.30998551615E+03  0.32127539912E+03  0.80346871580E+02 0.  0.
          5    1    5    5  501    0 -0.99735651953E+01 -0.98912422170E+02  0.18897150030E+03  0.21357775443E+03  0.47000000000E+01 0. -1.
        -15    1    6    6    0    0  0.40763304331E+02 -0.20755607726E+02  0.12574487975E+03  0.13381843948E+03  0.17770000000E+01 0.  1.
         16    1    6    6    0    0 -0.16673233139E+02  0.30290310604E+02  0.18424063639E+03  0.18745695964E+03  0.00000000000E+00 0. -1.
         -5    1    3    3    0  503 -0.42700345719E+02  0.44115166333E+02  0.29714915854E+02  0.68370561277E+02  0.47000000000E+01 0.  1.
         15    1    4    4    0    0  0.37464101578E+02  0.23789965114E+02  0.64322593107E+02  0.78166969113E+02  0.17770000000E+01 0. -1.
        -16    1    4    4    0    0 -0.88802618565E+01  0.21472587845E+02  0.23957709083E+03  0.24070129524E+03  0.00000000000E+00 0.  1.
<mgrwt>
<rscale>  2 0.19560910E+03</rscale>
<asrwt>0</asrwt>
<pdfrwt beam="1">  1       21 0.13497411E+00 0.19660927E+03</pdfrwt>
<pdfrwt beam="2">  1       21 0.68861824E-02 0.19660927E+03</pdfrwt>
<totfact> 0.61032014E+04</totfact>
</mgrwt>
</event>
<event>
12    2  0.4097182E-002  0.5499746E+03  0.7546771E-02  0.1001557E+00
         21   -1    0    0  501  502  0.00000000000E+00  0.00000000000E+00  0.34567157879E+03  0.34567157879E+03  0.00000000000E+00 0.  1.
         21   -1    0    0  502  503 -0.00000000000E+00 -0.00000000000E+00 -0.17250686369E+04  0.17250686369E+04  0.00000000000E+00 0. -1.
         -6    2    1    2    0  503  0.12580965402E+02 -0.52163928201E+03 -0.14174725509E+04  0.15204277301E+04  0.17379939204E+03 0.  0.
        -24    2    3    3    0    0  0.28268945026E+02 -0.34674119512E+03 -0.75765722074E+03  0.83762921413E+03  0.80929886748E+02 0.  0.
          6    2    1    2  501    0 -0.12580965402E+02  0.52163928201E+03  0.38075492862E+02  0.55031248552E+03  0.17067005402E+03 0.  0.
         24    2    5    5    0    0  0.38498858597E+02  0.31311700953E+03  0.71591014198E+02  0.33297388630E+03  0.78879096569E+02 0.  0.
          5    1    5    5  501    0 -0.51079823999E+02  0.20852227248E+03 -0.33515521335E+02  0.21733859922E+03  0.47000000000E+01 0. -1.
        -15    1    6    6    0    0  0.14853135447E+02  0.29374579851E+03  0.70130118262E+02  0.30237162729E+03  0.17770000000E+01 0.  1.
         16    1    6    6    0    0  0.23645723150E+02  0.19371211022E+02  0.14608959354E+01  0.30602259013E+02  0.00000000000E+00 0. -1.
         -5    1    3    3    0  503 -0.15687979624E+02 -0.17489808689E+03 -0.65981533018E+03  0.68279851600E+03  0.47000000000E+01 0.  1.
         15    1    4    4    0    0 -0.21255819071E+02 -0.21708841115E+03 -0.44741495830E+03  0.49775746177E+03  0.17770000000E+01 0. -1.
        -16    1    4    4    0    0  0.49524764097E+02 -0.12965278397E+03 -0.31024226244E+03  0.33987175236E+03  0.00000000000E+00 0.  1.
<mgrwt>
<rscale>  2 0.54972920E+03</rscale>
<asrwt>0</asrwt>
<pdfrwt beam="1">  1       21 0.53180245E-01 0.54997459E+03</pdfrwt>
<pdfrwt beam="2">  1       21 0.26539517E+00 0.54997459E+03</pdfrwt>
<totfact> 0.13500453E+02</totfact>
</mgrwt>
</event>
<event>
12    2  0.4097182E-002  0.2208793E+03  0.7546771E-02  0.1133370E+00
         21   -1    0    0  501  502  0.00000000000E+00  0.00000000000E+00  0.35039519951E+02  0.35039519951E+02  0.00000000000E+00 0. -1.
         21   -1    0    0  502  503 -0.00000000000E+00 -0.00000000000E+00 -0.34185966935E+04  0.34185966935E+04  0.00000000000E+00 0. -1.
         -6    2    1    2    0  503 -0.10809843082E+03 -0.84079602082E+02 -0.30239507871E+04  0.30320069332E+04  0.17330040379E+03 0.  0.
        -24    2    3    3    0    0 -0.92242675275E+02 -0.68756234114E+02 -0.29729745663E+04  0.29762675784E+04  0.79716970297E+02 0.  0.
          6    2    1    2  501    0  0.10809843082E+03  0.84079602082E+02 -0.35960638640E+03  0.42162928020E+03  0.17233643419E+03 0.  0.
         24    2    5    5    0    0  0.12260718806E+03  0.10875941404E+03 -0.25730185889E+03  0.31529065361E+03  0.79641804093E+02 0.  0.
          5    1    5    5  501    0 -0.14508757244E+02 -0.24679811961E+02 -0.10230452751E+03  0.10633862658E+03  0.47000000000E+01 0. -1.
        -15    1    6    6    0    0  0.81601254954E+02  0.56321164801E+02 -0.21405043258E+03  0.23590587918E+03  0.17770000000E+01 0.  1.
         16    1    6    6    0    0  0.41005933110E+02  0.52438249242E+02 -0.43251426306E+02  0.79384774430E+02  0.00000000000E+00 0. -1.
         -5    1    3    3    0  503 -0.15855755545E+02 -0.15323367968E+02 -0.50976220838E+02  0.55739354864E+02  0.47000000000E+01 0.  1.
         15    1    4    4    0    0 -0.72206100664E+02 -0.56522498173E+01 -0.13492010195E+04  0.13511447805E+04  0.17770000000E+01 0. -1.
        -16    1    4    4    0    0 -0.20036574612E+02 -0.63103984296E+02 -0.16237735467E+04  0.16251227979E+04  0.00000000000E+00 0.  1.
<mgrwt>
<rscale>  2 0.22069021E+03</rscale>
<asrwt>0</asrwt>
<pdfrwt beam="1">  1       21 0.53906942E-02 0.22087933E+03</pdfrwt>
<pdfrwt beam="2">  1       21 0.52593807E+00 0.22087933E+03</pdfrwt>
<totfact> 0.27928687E+02</totfact>
</mgrwt>
</event>
<event>
12    2  0.4097182E-002  0.2012390E+03  0.7546771E-02  0.1148859E+00
         21   -1    0    0  503  502  0.00000000000E+00  0.00000000000E+00  0.11908006406E+04  0.11908006406E+04  0.00000000000E+00 0. -1.
         21   -1    0    0  501  503 -0.00000000000E+00 -0.00000000000E+00 -0.37798046189E+02  0.37798046189E+02  0.00000000000E+00 0. -1.
          6    2    1    2  501    0 -0.26654348027E+02  0.98231450508E+02  0.37770657637E+03  0.42761113215E+03  0.17271117614E+03 0.  0.
         24    2    3    3    0    0  0.89360736278E+01 -0.10392125455E+02  0.20837531850E+03  0.22325623433E+03  0.78963429034E+02 0.  0.
         -6    2    1    2    0  502  0.26654348027E+02 -0.98231450508E+02  0.77529601805E+03  0.80098755465E+03  0.17360090716E+03 0.  0.
        -24    2    5    5    0    0  0.75451688596E+02 -0.24139489053E+02  0.44659951084E+03  0.46049631680E+03  0.79561689682E+02 0.  0.
          5    1    3    3  501    0 -0.35590421654E+02  0.10862357596E+03  0.16933125787E+03  0.20435489782E+03  0.47000000000E+01 0. -1.
        -15    1    4    4    0    0  0.43715372879E+02 -0.12350384999E+01  0.10305012913E+03  0.11196001960E+03  0.17770000000E+01 0.  1.
         16    1    4    4    0    0 -0.34779299251E+02 -0.91570869552E+01  0.10532518937E+03  0.11129621473E+03  0.00000000000E+00 0. -1.
         -5    1    5    5    0  502 -0.48797340569E+02 -0.74091961455E+02  0.32869650721E+03  0.34049123785E+03  0.47000000000E+01 0.  1.
         15    1    6    6    0    0 -0.93096133629E+01 -0.25392246504E+02  0.12570666599E+03  0.12859532918E+03  0.17770000000E+01 0. -1.
        -16    1    6    6    0    0  0.84761301959E+02  0.12527574516E+01  0.32089284485E+03  0.33190098762E+03  0.00000000000E+00 0.  1.
<mgrwt>
<rscale>  2 0.20104700E+03</rscale>
<asrwt>0</asrwt>
<pdfrwt beam="1">  1       21 0.18320007E+00 0.20123903E+03</pdfrwt>
<pdfrwt beam="2">  1       21 0.58150850E-02 0.20123903E+03</pdfrwt>
<totfact> 0.35806419E+04</totfact>
</mgrwt>
</event>
<event>
12    2  0.4097182E-002  0.2952493E+03  0.7546771E-02  0.1087684E+00
         21   -1    0    0  501  502  0.00000000000E+00  0.00000000000E+00  0.23716610728E+03  0.23716610728E+03  0.00000000000E+00 0. -1.
         21   -1    0    0  502  503 -0.00000000000E+00 -0.00000000000E+00 -0.37023614207E+03  0.37023614207E+03  0.00000000000E+00 0.  1.
         -6    2    1    2    0  503  0.81779604649E+02 -0.22476975324E+03 -0.38755104891E+02  0.29778194099E+03  0.17309760403E+03 0.  0.
        -24    2    3    3    0    0  0.32844009928E+02 -0.14063026094E+03 -0.91313175249E+02  0.18706343597E+03  0.76151387529E+02 0.  0.
          6    2    1    2  501    0 -0.81779604649E+02  0.22476975324E+03 -0.94314929903E+02  0.30962030835E+03  0.17251111162E+03 0.  0.
         24    2    5    5    0    0 -0.11041240266E+02  0.20084966330E+03 -0.49546481010E+02  0.22242861772E+03  0.80976169136E+02 0.  0.
          5    1    5    5  501    0 -0.70738364383E+02  0.23920089940E+02 -0.44768448893E+02  0.87191690628E+02  0.47000000000E+01 0. -1.
        -15    1    6    6    0    0 -0.27797957628E+02  0.24485722865E+02 -0.22057204964E+02  0.43150377661E+02  0.17770000000E+01 0.  1.
         16    1    6    6    0    0  0.16756717362E+02  0.17636394043E+03 -0.27489276046E+02  0.17927824006E+03  0.00000000000E+00 0. -1.
         -5    1    3    3    0  503  0.48935594721E+02 -0.84139492300E+02  0.52558070358E+02  0.11071850502E+03  0.47000000000E+01 0.  1.
         15    1    4    4    0    0 -0.68344299888E+01 -0.58155187699E+02 -0.11581474564E+01  0.58593807899E+02  0.17770000000E+01 0. -1.
        -16    1    4    4    0    0  0.39678439916E+02 -0.82475073240E+02 -0.90155027793E+02  0.12846962807E+03  0.00000000000E+00 0.  1.
<mgrwt>
<rscale>  2 0.29516336E+03</rscale>
<asrwt>0</asrwt>
<pdfrwt beam="1">  1       21 0.36487094E-01 0.29524926E+03</pdfrwt>
<pdfrwt beam="2">  1       21 0.56959406E-01 0.29524926E+03</pdfrwt>
<totfact> 0.19932949E+04</totfact>
</mgrwt>
</event>
<event>
12    2  0.4097182E-002  0.2470993E+03  0.7546771E-02  0.1115409E+00
         21   -1    0    0  503  502  0.00000000000E+00  0.00000000000E+00  0.96005263034E+02  0.96005263034E+02  0.00000000000E+00 0.  1.
         21   -1    0    0  501  503 -0.00000000000E+00 -0.00000000000E+00 -0.99344918553E+03  0.99344918553E+03  0.00000000000E+00 0.  1.
          6    2    1    2  501    0  0.76560190110E+02  0.15624562659E+03 -0.11916955493E+03  0.27289515594E+03  0.17319418227E+03 0.  0.
         24    2    3    3    0    0  0.58271891882E+02  0.26939524193E+02 -0.93831307785E+02  0.13978374869E+03  0.81325461763E+02 0.  0.
         -6    2    1    2    0  502 -0.76560190110E+02 -0.15624562659E+03 -0.77827436757E+03  0.81655929263E+03  0.17545349418E+03 0.  0.
        -24    2    5    5    0    0 -0.20691412874E+02 -0.54040935557E+02 -0.16188240624E+03  0.18924098496E+03  0.79105497009E+02 0.  0.
          5    1    3    3  501    0  0.18288298228E+02  0.12930610240E+03 -0.25338247143E+02  0.13311140724E+03  0.47000000000E+01 0. -1.
        -15    1    4    4    0    0  0.15236478368E+02  0.34826529785E+02 -0.87704377592E+02  0.95604670533E+02  0.17770000000E+01 0.  1.
         16    1    4    4    0    0  0.43035413514E+02 -0.78870055921E+01 -0.61269301933E+01  0.44179078161E+02  0.00000000000E+00 0. -1.
         -5    1    5    5    0  502 -0.55868777236E+02 -0.10220469104E+03 -0.61639196133E+03  0.62731830766E+03  0.47000000000E+01 0.  1.
         15    1    6    6    0    0  0.23668820051E+02  0.49002389070E+01 -0.39116157091E+02  0.46015832694E+02  0.17770000000E+01 0. -1.
        -16    1    6    6    0    0 -0.44360232925E+02 -0.58941174464E+02 -0.12276624915E+03  0.14322515227E+03  0.00000000000E+00 0.  1.
<mgrwt>
<rscale>  2 0.24669860E+03</rscale>
<asrwt>0</asrwt>
<pdfrwt beam="1">  1       21 0.14770041E-01 0.24709935E+03</pdfrwt>
<pdfrwt beam="2">  1       21 0.15283833E+00 0.24709935E+03</pdfrwt>
<totfact> 0.11060015E+04</totfact>
</mgrwt>
</event>
<event>
12    2  0.4097182E-002  0.2081921E+03  0.7546771E-02  0.1143179E+00
         21   -1    0    0  501  502  0.00000000000E+00  0.00000000000E+00  0.10464257432E+03  0.10464257432E+03  0.00000000000E+00 0.  1.
         21   -1    0    0  502  503 -0.00000000000E+00 -0.00000000000E+00 -0.12468583630E+04  0.12468583630E+04  0.00000000000E+00 0.  1.
         -6    2    1    2    0  503  0.86425614954E+02 -0.75789742247E+02 -0.11242837949E+04  0.11433975724E+04  0.17358135023E+03 0.  0.
        -24    2    3    3    0    0  0.28849577613E+02 -0.22260992111E+02 -0.92313802165E+03  0.92738359307E+03  0.80800196737E+02 0.  0.
          6    2    1    2  501    0 -0.86425614954E+02  0.75789742247E+02 -0.17931993783E+02  0.20810336492E+03  0.17254559439E+03 0.  0.
         24    2    5    5    0    0 -0.20508660253E+02  0.10480681440E+03 -0.59909093283E+01  0.13494794892E+03  0.82279915117E+02 0.  0.
          5    1    5    5  501    0 -0.65916954701E+02 -0.29017072154E+02 -0.11941084454E+02  0.73155416009E+02  0.47000000000E+01 0. -1.
        -15    1    6    6    0    0 -0.37558465806E+02  0.94049668047E+02  0.18776495149E+02  0.10301307156E+03  0.17770000000E+01 0.  1.
         16    1    6    6    0    0  0.17049805553E+02  0.10757146354E+02 -0.24767404477E+02  0.31934877354E+02  0.00000000000E+00 0. -1.
         -5    1    3    3    0  503  0.57576037341E+02 -0.53528750137E+02 -0.20114577323E+03  0.21601397930E+03  0.47000000000E+01 0.  1.
         15    1    4    4    0    0 -0.16800921066E+02  0.20170539938E+02 -0.27587862982E+03  0.27713047063E+03  0.17770000000E+01 0. -1.
        -16    1    4    4    0    0  0.45650498679E+02 -0.42431532049E+02 -0.64725939183E+03  0.65025312245E+03  0.00000000000E+00 0.  1.
<mgrwt>
<rscale>  2 0.20797609E+03</rscale>
<asrwt>0</asrwt>
<pdfrwt beam="1">  1       21 0.16098858E-01 0.20819212E+03</pdfrwt>
<pdfrwt beam="2">  1       21 0.19182436E+00 0.20819212E+03</pdfrwt>
<totfact> 0.51591725E+03</totfact>
</mgrwt>
</event>
<event>
12    2  0.4097182E-002  0.1900271E+03  0.7546771E-02  0.1159254E+00
         21   -1    0    0  501  502  0.00000000000E+00  0.00000000000E+00  0.69773093558E+03  0.69773093558E+03  0.00000000000E+00 0.  1.
         21   -1    0    0  502  503 -0.00000000000E+00 -0.00000000000E+00 -0.55693995771E+02  0.55693995771E+02  0.00000000000E+00 0.  1.
         -6    2    1    2    0  503 -0.60608854343E+02 -0.78533959736E+01  0.21193258784E+03  0.28465014324E+03  0.17993102346E+03 0.  0.
        -24    2    3    3    0    0 -0.16643538449E+02  0.58353403854E+02  0.15476404169E+03  0.18663676653E+03  0.84848375980E+02 0.  0.
          6    2    1    2  501    0  0.60608854343E+02  0.78533959736E+01  0.43010435198E+03  0.46877478812E+03  0.17613897733E+03 0.  0.
         24    2    5    5    0    0  0.22181864170E+02 -0.21662862502E+02  0.40524730244E+03  0.41411396119E+03  0.79395730454E+02 0.  0.
          5    1    5    5  501    0  0.38426990173E+02  0.29516258476E+02  0.24857049540E+02  0.54660826924E+02  0.47000000000E+01 0. -1.
        -15    1    6    6    0    0 -0.20979821341E+02 -0.33804280499E+02  0.21471588208E+03  0.21837799804E+03  0.17770000000E+01 0.  1.
         16    1    6    6    0    0  0.43161685511E+02  0.12141417997E+02  0.19053142036E+03  0.19573596315E+03  0.00000000000E+00 0. -1.
         -5    1    3    3    0  503 -0.43965315894E+02 -0.66206799828E+02  0.57168546143E+02  0.98013376705E+02  0.47000000000E+01 0.  1.
         15    1    4    4    0    0 -0.43995271847E+02  0.45472092039E+02  0.13856452118E+03  0.15233705839E+03  0.17770000000E+01 0. -1.
        -16    1    4    4    0    0  0.27351733398E+02  0.12881311815E+02  0.16199520515E+02  0.34299708145E+02  0.00000000000E+00 0.  1.
<mgrwt>
<rscale>  2 0.18912399E+03</rscale>
<asrwt>0</asrwt>
<pdfrwt beam="1">  1       21 0.10734321E+00 0.19002706E+03</pdfrwt>
<pdfrwt beam="2">  1       21 0.85683075E-02 0.19002706E+03</pdfrwt>
<totfact> 0.73850160E+04</totfact>
</mgrwt>
</event>
<event>
12    2  0.4097182E-002  0.3371517E+03  0.7546771E-02  0.1068837E+00
         21   -1    0    0  501  502  0.00000000000E+00  0.00000000000E+00  0.60898569266E+03  0.60898569266E+03  0.00000000000E+00 0.  1.
         21   -1    0    0  502  503 -0.00000000000E+00 -0.00000000000E+00 -0.18916156760E+03  0.18916156760E+03  0.00000000000E+00 0. -1.
         -6    2    1    2    0  503 -0.25407980184E+03 -0.11775250872E+03  0.28705485467E+03  0.44279987883E+03  0.18774728783E+03 0.  0.
        -24    2    3    3    0    0 -0.22331581577E+03 -0.53272214216E+02  0.28108228282E+03  0.37095356484E+03  0.76755554709E+02 0.  0.
          6    2    1    2  501    0  0.25407980184E+03  0.11775250872E+03  0.13276927039E+03  0.35534738143E+03  0.17384442274E+03 0.  0.
         24    2    5    5    0    0  0.18484835700E+03  0.13486559854E+03  0.51959026228E+02  0.24746672348E+03  0.78628201483E+02 0.  0.
          5    1    5    5  501    0  0.69231444836E+02 -0.17113089822E+02  0.80810244163E+02  0.10788065795E+03  0.47000000000E+01 0. -1.
        -15    1    6    6    0    0  0.14154405951E+03  0.75168812511E+02  0.64298855824E+02  0.17269212995E+03  0.17770000000E+01 0.  1.
         16    1    6    6    0    0  0.43304297490E+02  0.59696786032E+02 -0.12339829596E+02  0.74774593533E+02  0.00000000000E+00 0. -1.
         -5    1    3    3    0  503 -0.30763986073E+02 -0.64480294504E+02  0.59725718573E+01  0.71846313983E+02  0.47000000000E+01 0.  1.
         15    1    4    4    0    0 -0.17387001892E+03 -0.28838801011E+02  0.16060685445E+03  0.23845372580E+03  0.17770000000E+01 0. -1.
        -16    1    4    4    0    0 -0.49445796849E+02 -0.24433413205E+02  0.12047542837E+03  0.13249983905E+03  0.00000000000E+00 0.  1.
<mgrwt>
<rscale>  2 0.33525073E+03</rscale>
<asrwt>0</asrwt>
<pdfrwt beam="1">  1       21 0.93690106E-01 0.33715166E+03</pdfrwt>
<pdfrwt beam="2">  1       21 0.29101780E-01 0.33715166E+03</pdfrwt>
<totfact> 0.10012710E+04</totfact>
</mgrwt>
</event>
<event>
12    2  0.4097182E-002  0.2059584E+03  0.7546771E-02  0.1144866E+00
         21   -1    0    0  501  502  0.00000000000E+00  0.00000000000E+00  0.22615318148E+03  0.22615318148E+03  0.00000000000E+00 0. -1.
         21   -1    0    0  502  503 -0.00000000000E+00 -0.00000000000E+00 -0.22945440443E+03  0.22945440443E+03  0.00000000000E+00 0.  1.
         -6    2    1    2    0  503  0.78176921119E+02  0.78675134735E+02 -0.99290089349E+02  0.22864244323E+03  0.17354376158E+03 0.  0.
        -24    2    3    3    0    0  0.92336347665E+02  0.84330533128E+02 -0.22437441394E+02  0.15015109091E+03  0.80026691850E+02 0.  0.
          6    2    1    2  501    0 -0.78176921119E+02 -0.78675134735E+02  0.95988866403E+02  0.22696514268E+03  0.17319903491E+03 0.  0.
         24    2    5    5    0    0 -0.46763417246E+02 -0.10218541648E+03  0.17626813560E+02  0.13920271963E+03  0.80237248598E+02 0.  0.
          5    1    5    5  501    0 -0.31413503872E+02  0.23510281744E+02  0.78362052843E+02  0.87762423046E+02  0.47000000000E+01 0. -1.
        -15    1    6    6    0    0 -0.41134689759E+02 -0.23923034081E+02 -0.20645807646E+02  0.51901650875E+02  0.17770000000E+01 0.  1.
         16    1    6    6    0    0 -0.56287274867E+01 -0.78262382397E+02  0.38272621206E+02  0.87301068754E+02  0.00000000000E+00 0. -1.
         -5    1    3    3    0  503 -0.14159426546E+02 -0.56553983935E+01 -0.76852647955E+02  0.78491352318E+02  0.47000000000E+01 0.  1.
         15    1    4    4    0    0  0.64732527578E+02  0.11436698090E+02  0.84683830638E+01  0.66302107286E+02  0.17770000000E+01 0. -1.
        -16    1    4    4    0    0  0.27603820087E+02  0.72893835038E+02 -0.30905824458E+02  0.83848983628E+02  0.00000000000E+00 0.  1.
<mgrwt>
<rscale>  2 0.20588572E+03</rscale>
<asrwt>0</asrwt>
<pdfrwt beam="1">  1       21 0.34792797E-01 0.20595836E+03</pdfrwt>
<pdfrwt beam="2">  1       21 0.35300678E-01 0.20595836E+03</pdfrwt>
<totfact> 0.61228948E+04</totfact>
</mgrwt>
</event>
<event>
12    2  0.4097182E-002  0.2113009E+03  0.7546771E-02  0.1140643E+00
         21   -1    0    0  501  502  0.00000000000E+00  0.00000000000E+00  0.26534355023E+03  0.26534355023E+03  0.00000000000E+00 0.  1.
         21   -1    0    0  502  503 -0.00000000000E+00 -0.00000000000E+00 -0.17951426599E+03  0.17951426599E+03  0.00000000000E+00 0. -1.
         -6    2    1    2    0  503  0.11763062304E+03 -0.30272023276E+02 -0.13734845420E+02  0.21174681956E+03  0.17290086970E+03 0.  0.
        -24    2    3    3    0    0  0.70601057311E+02 -0.72639325251E+02  0.32040090866E+02  0.13348953158E+03  0.80820212526E+02 0.  0.
          6    2    1    2  501    0 -0.11763062304E+03  0.30272023276E+02  0.99564129660E+02  0.23311099666E+03  0.17226247989E+03 0.  0.
         24    2    5    5    0    0 -0.15097073443E+03  0.34914430030E+02  0.64263553406E+02  0.18410757176E+03  0.75859169552E+02 0.  0.
          5    1    5    5  501    0  0.33340111387E+02 -0.46424067541E+01  0.35300576254E+02  0.49003424897E+02  0.47000000000E+01 0. -1.
        -15    1    6    6    0    0 -0.11427593490E+03  0.40987500881E+02  0.78163657131E+02  0.14440110647E+03  0.17770000000E+01 0.  1.
         16    1    6    6    0    0 -0.36694799530E+02 -0.60730708511E+01 -0.13900103725E+02  0.39706465288E+02  0.00000000000E+00 0. -1.
         -5    1    3    3    0  503  0.47029565729E+02  0.42367301975E+02 -0.45774936286E+02  0.78257287976E+02  0.47000000000E+01 0.  1.
         15    1    4    4    0    0  0.28523945021E+02 -0.72720096204E+02 -0.37866565732E+01  0.78226110273E+02  0.17770000000E+01 0. -1.
        -16    1    4    4    0    0  0.42077112291E+02  0.80770952969E-01  0.35826747439E+02  0.55263421308E+02  0.00000000000E+00 0.  1.
<mgrwt>
<rscale>  2 0.21117026E+03</rscale>
<asrwt>0</asrwt>
<pdfrwt beam="1">  1       21 0.40822085E-01 0.21130090E+03</pdfrwt>
<pdfrwt beam="2">  1       21 0.27617579E-01 0.21130090E+03</pdfrwt>
<totfact> 0.71736069E+04</totfact>
</mgrwt>
</event>
<event>
12    2  0.4097182E-002  0.1738209E+03  0.7546771E-02  0.1174045E+00
         21   -1    0    0  503  502  0.00000000000E+00  0.00000000000E+00  0.64388394553E+03  0.64388394553E+03  0.00000000000E+00 0.  1.
         21   -1    0    0  501  503 -0.00000000000E+00 -0.00000000000E+00 -0.90746973786E+02  0.90746973786E+02  0.00000000000E+00 0.  1.
          6    2    1    2  501    0 -0.45947294695E+01  0.20770256357E+02  0.20728222858E+02  0.17456594376E+03  0.17202062205E+03 0.  0.
         24    2    3    3    0    0  0.34529860311E+02  0.66588333007E+02  0.17422262294E+02  0.11404281555E+03  0.84118435603E+02 0.  0.
         -6    2    1    2    0  502  0.45947294695E+01 -0.20770256357E+02  0.53240874889E+03  0.56006497556E+03  0.17251430627E+03 0.  0.
        -24    2    5    5    0    0  0.11370525976E+02  0.30313645260E+02  0.14358591348E+03  0.16781408167E+03  0.80600530440E+02 0.  0.
          5    1    3    3  501    0 -0.39124589780E+02 -0.45818076649E+02  0.33059605637E+01  0.60523128212E+02  0.47000000000E+01 0. -1.
        -15    1    4    4    0    0 -0.68205019176E+01  0.68302560057E+02  0.22703640013E+02  0.72321310522E+02  0.17770000000E+01 0.  1.
         16    1    4    4    0    0  0.41350362228E+02 -0.17142270506E+01 -0.52813777190E+01  0.41721505023E+02  0.00000000000E+00 0. -1.
         -5    1    5    5    0  502 -0.67757965064E+01 -0.51083901617E+02  0.38882283541E+03  0.39225089389E+03  0.47000000000E+01 0.  1.
         15    1    6    6    0    0 -0.31550086819E+02  0.29138200476E+02  0.84139188379E+02  0.94482820954E+02  0.17770000000E+01 0. -1.
        -16    1    6    6    0    0  0.42920612795E+02  0.11754447834E+01  0.59446725101E+02  0.73331260717E+02  0.00000000000E+00 0.  1.
<mgrwt>
<rscale>  2 0.17369827E+03</rscale>
<asrwt>0</asrwt>
<pdfrwt beam="1">  1       21 0.99059066E-01 0.17382089E+03</pdfrwt>
<pdfrwt beam="2">  1       21 0.13961073E-01 0.17382089E+03</pdfrwt>
<totfact> 0.37902641E+04</totfact>
</mgrwt>
</event>
<event>
12    2  0.4097182E-002  0.1992048E+03  0.7546771E-02  0.1150541E+00
         21   -1    0    0  503  502  0.00000000000E+00  0.00000000000E+00  0.22091216052E+03  0.22091216052E+03  0.00000000000E+00 0. -1.
         21   -1    0    0  501  503 -0.00000000000E+00 -0.00000000000E+00 -0.34117572415E+03  0.34117572415E+03  0.00000000000E+00 0. -1.
          6    2    1    2  501    0  0.97833447999E+02  0.92894891954E+01 -0.25379988531E+03  0.32226603738E+03  0.17257850072E+03 0.  0.
         24    2    3    3    0    0 -0.11863896430E+02  0.20509422699E+02 -0.69827587090E+02  0.10772631893E+03  0.78534574634E+02 0.  0.
         -6    2    1    2    0  502 -0.97833447999E+02 -0.92894891954E+01  0.13353632169E+03  0.23982184728E+03  0.17327692018E+03 0.  0.
        -24    2    5    5    0    0 -0.98206276311E+02 -0.63989173258E+02  0.95322764053E+02  0.17292969210E+03  0.84137756467E+02 0.  0.
          5    1    3    3  501    0  0.10969734443E+03 -0.11219933504E+02 -0.18397229822E+03  0.21453971846E+03  0.47000000000E+01 0. -1.
        -15    1    4    4    0    0 -0.22562495650E+01 -0.29528838625E+02 -0.35615432388E+02  0.46353637676E+02  0.17770000000E+01 0.  1.
         16    1    4    4    0    0 -0.96076468647E+01  0.50038261324E+02 -0.34212154702E+02  0.61372681251E+02  0.00000000000E+00 0. -1.
         -5    1    5    5    0  502  0.37282831151E+00  0.54699684063E+02  0.38213557632E+02  0.66892155178E+02  0.47000000000E+01 0.  1.
         15    1    6    6    0    0 -0.61681913647E+02  0.86817589393E+01  0.33362930973E+02  0.70684328542E+02  0.17770000000E+01 0. -1.
        -16    1    6    6    0    0 -0.36524362664E+02 -0.72670932197E+02  0.61959833080E+02  0.10224536356E+03  0.00000000000E+00 0.  1.
<mgrwt>
<rscale>  2 0.19905286E+03</rscale>
<asrwt>0</asrwt>
<pdfrwt beam="1">  1       21 0.33986486E-01 0.19920484E+03</pdfrwt>
<pdfrwt beam="2">  1       21 0.52488573E-01 0.19920484E+03</pdfrwt>
<totfact> 0.28606635E+04</totfact>
</mgrwt>
</event>
<event>
12    2  0.4097182E-002  0.1796418E+03  0.7546771E-02  0.1169008E+00
         21   -1    0    0  503  502  0.00000000000E+00  0.00000000000E+00  0.54623538351E+02  0.54623538351E+02  0.00000000000E+00 0.  1.
         21   -1    0    0  501  503 -0.00000000000E+00 -0.00000000000E+00 -0.68226583919E+03  0.68226583919E+03  0.00000000000E+00 0. -1.
          6    2    1    2  501    0 -0.46988853236E+02 -0.79344798652E+01 -0.17334147283E+03  0.24963660987E+03  0.17320583849E+03 0.  0.
         24    2    3    3    0    0  0.25503996757E+02  0.37933971496E+02 -0.11299139771E+03  0.14464446875E+03  0.77881489065E+02 0.  0.
         -6    2    1    2    0  502  0.46988853236E+02  0.79344798652E+01 -0.45430082802E+03  0.48725276768E+03  0.16957331445E+03 0.  0.
        -24    2    5    5    0    0  0.74471499152E+01 -0.16197835759E+02 -0.10993491372E+03  0.13975328870E+03  0.84424324239E+02 0.  0.
          5    1    3    3  501    0 -0.72492849993E+02 -0.45868451362E+02 -0.60350075114E+02  0.10499214112E+03  0.47000000000E+01 0. -1.
        -15    1    4    4    0    0  0.24989395544E+02  0.15684691913E+02 -0.76714005304E-01  0.29557453614E+02  0.17770000000E+01 0.  1.
         16    1    4    4    0    0  0.51460121278E+00  0.22249279583E+02 -0.11291468371E+03  0.11508701514E+03  0.00000000000E+00 0. -1.
         -5    1    5    5    0  502  0.39541703321E+02  0.24132315624E+02 -0.34436591429E+03  0.34749947897E+03  0.47000000000E+01 0.  1.
         15    1    6    6    0    0  0.35346264696E+02 -0.33628404222E+01 -0.10202465759E+03  0.10804099041E+03  0.17770000000E+01 0. -1.
        -16    1    6    6    0    0 -0.27899114781E+02 -0.12834995337E+02 -0.79102561323E+01  0.31712298292E+02  0.00000000000E+00 0.  1.
<mgrwt>
<rscale>  2 0.17876038E+03</rscale>
<asrwt>0</asrwt>
<pdfrwt beam="1">  1       21 0.84036210E-02 0.17964178E+03</pdfrwt>
<pdfrwt beam="2">  1       21 0.10496398E+00 0.17964178E+03</pdfrwt>
<totfact> 0.80997331E+04</totfact>
</mgrwt>
</event>
<event>
12    2  0.4097182E-002  0.1726993E+03  0.7546771E-02  0.1175315E+00
         21   -1    0    0  503  502  0.00000000000E+00  0.00000000000E+00  0.24456347141E+03  0.24456347141E+03  0.00000000000E+00 0. -1.
         21   -1    0    0  501  503 -0.00000000000E+00 -0.00000000000E+00 -0.15135752070E+03  0.15135752070E+03  0.00000000000E+00 0. -1.
          6    2    1    2  501    0 -0.12621453028E+02  0.38071623084E+01 -0.41570761997E+02  0.17763216333E+03  0.17219541699E+03 0.  0.
         24    2    3    3    0    0 -0.10220427836E+02 -0.64979589591E+02  0.60237732919E+00  0.96773979822E+02  0.70979124421E+02 0.  0.
         -6    2    1    2    0  502  0.12621453028E+02 -0.38071623084E+01  0.13477671271E+03  0.21828882878E+03  0.17120588459E+03 0.  0.
        -24    2    5    5    0    0  0.66525917558E+02 -0.35194990993E+02  0.88137019891E+02  0.14026166664E+03  0.78998833883E+02 0.  0.
          5    1    3    3  501    0 -0.24010251927E+01  0.68786751900E+02 -0.42173139326E+02  0.80858183504E+02  0.47000000000E+01 0. -1.
        -15    1    4    4    0    0  0.14621595115E+01 -0.15657422363E+02  0.33013402284E+02  0.36610589245E+02  0.17770000000E+01 0.  1.
         16    1    4    4    0    0 -0.11682587347E+02 -0.49322167228E+02 -0.32411024955E+02  0.60163390577E+02  0.00000000000E+00 0. -1.
         -5    1    5    5    0  502 -0.53904464529E+02  0.31387828684E+02  0.46639692824E+02  0.78027162145E+02  0.47000000000E+01 0.  1.
         15    1    6    6    0    0  0.43479516574E+02 -0.57667798107E+02  0.78447912377E+02  0.10664556243E+03  0.17770000000E+01 0. -1.
        -16    1    6    6    0    0  0.23046400984E+02  0.22472807114E+02  0.96891075133E+01  0.33616104211E+02  0.00000000000E+00 0.  1.
<mgrwt>
<rscale>  2 0.17245214E+03</rscale>
<asrwt>0</asrwt>
<pdfrwt beam="1">  1       21 0.37625150E-01 0.17269933E+03</pdfrwt>
<pdfrwt beam="2">  1       21 0.23285772E-01 0.17269933E+03</pdfrwt>
<totfact> 0.11896461E+05</totfact>
</mgrwt>
</event>
<event>
12    2  0.4097182E-002  0.2045805E+03  0.7546771E-02  0.1146389E+00
         21   -1    0    0  501  502  0.00000000000E+00  0.00000000000E+00  0.48958670541E+02  0.48958670541E+02  0.00000000000E+00 0.  1.
         21   -1    0    0  502  503 -0.00000000000E+00 -0.00000000000E+00 -0.85511725636E+03  0.85511725636E+03  0.00000000000E+00 0.  1.
         -6    2    1    2    0  503 -0.24103958558E+02  0.10462402669E+03 -0.35323495907E+03  0.40709202854E+03  0.17152782753E+03 0.  0.
        -24    2    3    3    0    0 -0.51637225245E+02  0.12948732328E+03 -0.25042529341E+03  0.29769284370E+03  0.80466338861E+02 0.  0.
          6    2    1    2  501    0  0.24103958558E+02 -0.10462402669E+03 -0.45292362675E+03  0.49698389836E+03  0.17414360676E+03 0.  0.
         24    2    5    5    0    0 -0.33089060377E+02 -0.78392700711E+02 -0.16497301237E+03  0.20220131712E+03  0.80180897934E+02 0.  0.
          5    1    5    5  501    0  0.57193018936E+02 -0.26231325984E+02 -0.28795061438E+03  0.29478258124E+03  0.47000000000E+01 0. -1.
        -15    1    6    6    0    0  0.10343571775E+02 -0.69931671494E+02 -0.82928308608E+02  0.10898481662E+03  0.17770000000E+01 0.  1.
         16    1    6    6    0    0 -0.43432632153E+02 -0.84610292162E+01 -0.82044703761E+02  0.93216500504E+02  0.00000000000E+00 0. -1.
         -5    1    3    3    0  503  0.27533266687E+02 -0.24863296585E+02 -0.10280966566E+03  0.10939918485E+03  0.47000000000E+01 0.  1.
         15    1    4    4    0    0 -0.49528189302E+02  0.82260611161E+02 -0.94403208293E+02  0.13466615443E+03  0.17770000000E+01 0. -1.
        -16    1    4    4    0    0 -0.21090359432E+01  0.47226712119E+02 -0.15602208511E+03  0.16302668927E+03  0.00000000000E+00 0.  1.
<mgrwt>
<rscale>  2 0.20402274E+03</rscale>
<asrwt>0</asrwt>
<pdfrwt beam="1">  1       21 0.75321037E-02 0.20458051E+03</pdfrwt>
<pdfrwt beam="2">  1       21 0.13155649E+00 0.20458051E+03</pdfrwt>
<totfact> 0.55538719E+04</totfact>
</mgrwt>
</event>
<event>
12    2  0.4097182E-002  0.2259078E+03  0.7546771E-02  0.1131486E+00
         21   -1    0    0  501  502  0.00000000000E+00  0.00000000000E+00  0.34719104577E+02  0.34719104577E+02  0.00000000000E+00 0.  1.
         21   -1    0    0  502  503 -0.00000000000E+00 -0.00000000000E+00 -0.21983530688E+04  0.21983530688E+04  0.00000000000E+00 0. -1.
         -6    2    1    2    0  503 -0.94100817320E+02 -0.10838494512E+03 -0.17698082853E+04  0.17841680706E+04  0.17444792084E+03 0.  0.
        -24    2    3    3    0    0 -0.56345306863E+02 -0.14041031648E+03 -0.14964951786E+04  0.15063673375E+04  0.82188109626E+02 0.  0.
          6    2    1    2  501    0  0.94100817320E+02  0.10838494512E+03 -0.39382567889E+03  0.44890410280E+03  0.16066725866E+03 0.  0.
         24    2    5    5    0    0 -0.45349509626E+01  0.25252490741E+02 -0.12166773337E+03  0.14768647870E+03  0.79686915986E+02 0.  0.
          5    1    5    5  501    0  0.98635768283E+02  0.83132454382E+02 -0.27215794552E+03  0.30121762410E+03  0.47000000000E+01 0. -1.
        -15    1    6    6    0    0  0.18876618136E+02  0.43764302865E+02 -0.45654365852E+02  0.66023630375E+02  0.17770000000E+01 0.  1.
         16    1    6    6    0    0 -0.23411569098E+02 -0.18511812123E+02 -0.76013367516E+02  0.81662848327E+02  0.00000000000E+00 0. -1.
         -5    1    3    3    0  503 -0.37755510457E+02  0.32025371361E+02 -0.27331310669E+03  0.27780073302E+03  0.47000000000E+01 0.  1.
         15    1    4    4    0    0 -0.62023464835E+02 -0.48634723791E+02 -0.59656797370E+03  0.60175472705E+03  0.17770000000E+01 0. -1.
        -16    1    4    4    0    0  0.56781579720E+01 -0.91775592693E+02 -0.89992720492E+03  0.90461261048E+03  0.00000000000E+00 0.  1.
<mgrwt>
<rscale>  2 0.22324522E+03</rscale>
<asrwt>0</asrwt>
<pdfrwt beam="1">  1       21 0.53413991E-02 0.22590781E+03</pdfrwt>
<pdfrwt beam="2">  1       21 0.33820826E+00 0.22590781E+03</pdfrwt>
<totfact> 0.47437447E+03</totfact>
</mgrwt>
</event>
<event>
12    2  0.4097182E-002  0.2256885E+03  0.7546771E-02  0.1129785E+00
         21   -1    0    0  503  502  0.00000000000E+00  0.00000000000E+00  0.34477306354E+03  0.34477306354E+03  0.00000000000E+00 0.  1.
         21   -1    0    0  501  503 -0.00000000000E+00 -0.00000000000E+00 -0.15339845367E+03  0.15339845367E+03  0.00000000000E+00 0. -1.
          6    2    1    2  501    0  0.79370096979E+02  0.11971252842E+03  0.14474243707E+03  0.26811501126E+03  0.17408211975E+03 0.  0.
         24    2    3    3    0    0  0.91156290304E+02  0.50350380206E+02  0.14726058283E+03  0.19755685782E+03  0.80612671254E+02 0.  0.
         -6    2    1    2    0  502 -0.79370096979E+02 -0.11971252842E+03  0.46632172802E+02  0.23005650595E+03  0.17355326166E+03 0.  0.
        -24    2    5    5    0    0 -0.10603854874E+03 -0.53850375813E+02 -0.28925406890E+01  0.14331656871E+03  0.79920180679E+02 0.  0.
          5    1    3    3  501    0 -0.11786193325E+02  0.69362148214E+02 -0.25181457641E+01  0.70558153434E+02  0.47000000000E+01 0. -1.
        -15    1    4    4    0    0  0.47201632146E+02  0.59824612052E+02  0.12726766875E+03  0.14834822386E+03  0.17770000000E+01 0.  1.
         16    1    4    4    0    0  0.43954658158E+02 -0.94742318457E+01  0.19992914087E+02  0.49208633963E+02  0.00000000000E+00 0. -1.
         -5    1    5    5    0  502  0.26668451766E+02 -0.65862152607E+02  0.49524713491E+02  0.86739937238E+02  0.47000000000E+01 0.  1.
         15    1    6    6    0    0 -0.27231921344E+02 -0.28514289711E+02 -0.36704431801E+02  0.53898193853E+02  0.17770000000E+01 0. -1.
        -16    1    6    6    0    0 -0.78806627401E+02 -0.25336086102E+02  0.33811891112E+02  0.89418374856E+02  0.00000000000E+00 0.  1.
<mgrwt>
<rscale>  2 0.22558648E+03</rscale>
<asrwt>0</asrwt>
<pdfrwt beam="1">  1       21 0.53042009E-01 0.22568847E+03</pdfrwt>
<pdfrwt beam="2">  1       21 0.23599762E-01 0.22568847E+03</pdfrwt>
<totfact> 0.56062496E+04</totfact>
</mgrwt>
</event>
<event>
12    2  0.4097182E-002  0.1904143E+03  0.7546771E-02  0.1158243E+00
         21   -1    0    0  503  502  0.00000000000E+00  0.00000000000E+00  0.22840622791E+03  0.22840622791E+03  0.00000000000E+00 0.  1.
         21   -1    0    0  501  503 -0.00000000000E+00 -0.00000000000E+00 -0.16746671848E+03  0.16746671848E+03  0.00000000000E+00 0.  1.
          6    2    1    2  501    0  0.61587696021E+02 -0.47079499933E+02 -0.16222000826E+02  0.19041856802E+03  0.17316626150E+03 0.  0.
         24    2    3    3    0    0  0.78248614202E+02 -0.38168922802E+02 -0.71382241499E+02  0.13192304058E+03  0.68764467146E+02 0.  0.
         -6    2    1    2    0  502 -0.61587696021E+02  0.47079499933E+02  0.77161510255E+02  0.20545437837E+03  0.17391974963E+03 0.  0.
        -24    2    5    5    0    0 -0.21348923586E+02 -0.39431904781E+02  0.55424068050E+02  0.10748505487E+03  0.80439779022E+02 0.  0.
          5    1    3    3  501    0 -0.16660918181E+02 -0.89105771304E+01  0.55160240673E+02  0.58495527441E+02  0.47000000000E+01 0. -1.
        -15    1    4    4    0    0 -0.21554834688E+01  0.11175620895E+02  0.28663514193E+01  0.11870733374E+02  0.17770000000E+01 0.  1.
         16    1    4    4    0    0  0.80404097671E+02 -0.49344543698E+02 -0.74248592919E+02  0.12005230721E+03  0.00000000000E+00 0. -1.
         -5    1    5    5    0  502 -0.40238772435E+02  0.86511404714E+02  0.21737442205E+02  0.97969323496E+02  0.47000000000E+01 0.  1.
         15    1    6    6    0    0 -0.24719064329E+02  0.20440972053E+02  0.19535659465E+02  0.37598739334E+02  0.17770000000E+01 0. -1.
        -16    1    6    6    0    0  0.33701407430E+01 -0.59872876834E+02  0.35888408585E+02  0.69886315540E+02  0.00000000000E+00 0.  1.
<mgrwt>
<rscale>  2 0.19024207E+03</rscale>
<asrwt>0</asrwt>
<pdfrwt beam="1">  1       21 0.35139420E-01 0.19041429E+03</pdfrwt>
<pdfrwt beam="2">  1       21 0.25764111E-01 0.19041429E+03</pdfrwt>
<totfact> 0.11173666E+05</totfact>
</mgrwt>
</event>
<event>
12    2  0.4097182E-002  0.2200605E+03  0.7546771E-02  0.1134231E+00
         21   -1    0    0  503  502  0.00000000000E+00  0.00000000000E+00  0.40455624042E+03  0.40455624042E+03  0.00000000000E+00 0. -1.
         21   -1    0    0  501  503 -0.00000000000E+00 -0.00000000000E+00 -0.13183880181E+03  0.13183880181E+03  0.00000000000E+00 0. -1.
          6    2    1    2  501    0  0.12626872457E+03  0.49667458008E+02  0.50668008149E+02  0.22377291453E+03  0.17057673650E+03 0.  0.
         24    2    3    3    0    0  0.14412321701E+03  0.12398385147E+02  0.70424306969E+02  0.17772763209E+03  0.75513618383E+02 0.  0.
         -6    2    1    2    0  502 -0.12626872457E+03 -0.49667458008E+02  0.22204943046E+03  0.31262212771E+03  0.17325125678E+03 0.  0.
        -24    2    5    5    0    0 -0.84559957090E+02  0.95306887135E+01  0.20817644002E+03  0.23873984483E+03  0.80112813942E+02 0.  0.
          5    1    3    3  501    0 -0.17854492432E+02  0.37269072861E+02 -0.19756298820E+02  0.46045282440E+02  0.47000000000E+01 0. -1.
        -15    1    4    4    0    0 -0.18680504451E+01  0.13491765658E+02  0.17918705887E+02  0.22577756813E+02  0.17770000000E+01 0.  1.
         16    1    4    4    0    0  0.14599126745E+03 -0.10933805116E+01  0.52505601082E+02  0.15514987528E+03  0.00000000000E+00 0. -1.
         -5    1    5    5    0  502 -0.41708767485E+02 -0.59198146721E+02  0.13872990440E+02  0.73882282883E+02  0.47000000000E+01 0.  1.
         15    1    6    6    0    0 -0.25723971672E+01 -0.26943566138E+02  0.46784553498E+02  0.54078879042E+02  0.17770000000E+01 0. -1.
        -16    1    6    6    0    0 -0.81987559923E+02  0.36474254852E+02  0.16139188652E+03  0.18466096578E+03  0.00000000000E+00 0.  1.
<mgrwt>
<rscale>  2 0.21953382E+03</rscale>
<asrwt>0</asrwt>
<pdfrwt beam="1">  1       21 0.62239421E-01 0.22006055E+03</pdfrwt>
<pdfrwt beam="2">  1       21 0.20282893E-01 0.22006055E+03</pdfrwt>
<totfact> 0.53151463E+04</totfact>
</mgrwt>
</event>
<event>
12    2  0.4097182E-002  0.1994784E+03  0.7546771E-02  0.1150714E+00
         21   -1    0    0  503  502  0.00000000000E+00  0.00000000000E+00  0.30751478425E+03  0.30751478425E+03  0.00000000000E+00 0.  1.
         21   -1    0    0  501  503 -0.00000000000E+00 -0.00000000000E+00 -0.14248936514E+03  0.14248936514E+03  0.00000000000E+00 0.  1.
          6    2    1    2  501    0  0.98540462618E+02  0.85910071798E+01  0.10683294411E+02  0.19976423413E+03  0.17322698485E+03 0.  0.
         24    2    3    3    0    0 -0.35502786158E+01  0.58113749098E+01  0.45147327311E+02  0.91874914156E+02  0.79726671392E+02 0.  0.
         -6    2    1    2    0  502 -0.98540462618E+02 -0.85910071798E+01  0.15434212470E+03  0.25023991526E+03  0.17033641876E+03 0.  0.
        -24    2    5    5    0    0 -0.24473169558E+02 -0.51933461415E+02  0.37522722687E+02  0.10521097013E+03  0.79783288189E+02 0.  0.
          5    1    3    3  501    0  0.10209074123E+03  0.27796322700E+01 -0.34464032900E+02  0.10788931998E+03  0.47000000000E+01 0. -1.
        -15    1    4    4    0    0  0.15873909538E+02 -0.30003002738E+02  0.37152860838E+02  0.50355277526E+02  0.17770000000E+01 0.  1.
         16    1    4    4    0    0 -0.19424188153E+02  0.35814377647E+02  0.79944664729E+01  0.41519636630E+02  0.00000000000E+00 0. -1.
         -5    1    5    5    0  502 -0.74067293060E+02  0.43342454235E+02  0.11681940201E+03  0.14502894513E+03  0.47000000000E+01 0.  1.
         15    1    6    6    0    0  0.18080342946E+02  0.44176223657E+01 -0.88975662585E+01  0.20706004027E+02  0.17770000000E+01 0. -1.
        -16    1    6    6    0    0 -0.42553512504E+02 -0.56351083781E+02  0.46420288945E+02  0.84504966099E+02  0.00000000000E+00 0.  1.
<mgrwt>
<rscale>  2 0.19884915E+03</rscale>
<asrwt>0</asrwt>
<pdfrwt beam="1">  1       21 0.47309967E-01 0.19947836E+03</pdfrwt>
<pdfrwt beam="2">  1       21 0.21921441E-01 0.19947836E+03</pdfrwt>
<totfact> 0.82820897E+04</totfact>
</mgrwt>
</event>
<event>
12    2  0.4097182E-002  0.1823930E+03  0.7546771E-02  0.1165555E+00
         21   -1    0    0  503  502  0.00000000000E+00  0.00000000000E+00  0.22499377017E+03  0.22499377017E+03  0.00000000000E+00 0. -1.
         21   -1    0    0  501  503 -0.00000000000E+00 -0.00000000000E+00 -0.10101805539E+04  0.10101805539E+04  0.00000000000E+00 0. -1.
          6    2    1    2  501    0 -0.54703557370E+02  0.89149466132E+01 -0.96328187967E+03  0.98039746791E+03  0.17376783338E+03 0.  0.
         24    2    3    3    0    0 -0.84896080752E+02 -0.16075867701E+01 -0.89617489281E+03  0.90591424925E+03  0.10169198405E+03 0.  0.
         -6    2    1    2    0  502  0.54703557370E+02 -0.89149466132E+01  0.17809509592E+03  0.25477685619E+03  0.17355525863E+03 0.  0.
        -24    2    5    5    0    0  0.59526191202E+02  0.92542589481E+01  0.20106520357E+03  0.22472533920E+03  0.80282334582E+02 0.  0.
          5    1    3    3  501    0  0.30192523383E+02  0.10522533383E+02 -0.67106986859E+02  0.74483218663E+02  0.47000000000E+01 0. -1.
        -15    1    4    4    0    0 -0.88183359961E+02  0.28803762491E+02 -0.49827215618E+03  0.50683750952E+03  0.17770000000E+01 0.  1.
         16    1    4    4    0    0  0.32872792085E+01 -0.30411349261E+02 -0.39790273663E+03  0.39907673972E+03  0.00000000000E+00 0. -1.
         -5    1    5    5    0  502 -0.48226338328E+01 -0.18169205561E+02 -0.22970107651E+02  0.30051516989E+02  0.47000000000E+01 0.  1.
         15    1    6    6    0    0 -0.68887772530E+01  0.27228162784E+02  0.34590241585E+02  0.44592271108E+02  0.17770000000E+01 0. -1.
        -16    1    6    6    0    0  0.66414968455E+02 -0.17973903836E+02  0.16647496198E+03  0.18013306809E+03  0.00000000000E+00 0.  1.
<mgrwt>
<rscale>  2 0.18234238E+03</rscale>
<asrwt>0</asrwt>
<pdfrwt beam="1">  1       21 0.34614426E-01 0.18239302E+03</pdfrwt>
<pdfrwt beam="2">  1       21 0.15541239E+00 0.18239302E+03</pdfrwt>
<totfact> 0.22111207E+03</totfact>
</mgrwt>
</event>
<event>
12    2  0.4097182E-002  0.2248914E+03  0.7546771E-02  0.1130626E+00
         21   -1    0    0  503  502  0.00000000000E+00  0.00000000000E+00  0.19946840897E+04  0.19946840897E+04  0.00000000000E+00 0.  1.
         21   -1    0    0  501  503 -0.00000000000E+00 -0.00000000000E+00 -0.38282239683E+02  0.38282239683E+02  0.00000000000E+00 0.  1.
          6    2    1    2  501    0  0.10674096746E+03 -0.92055770166E+02  0.38010540013E+03  0.44070797668E+03  0.17284532549E+03 0.  0.
         24    2    3    3    0    0  0.62204969164E+02 -0.67451439315E+02  0.36832201259E+03  0.38826976100E+03  0.81689335273E+02 0.  0.
         -6    2    1    2    0  502 -0.10674096746E+03  0.92055770166E+02  0.15762964499E+04  0.15922583527E+04  0.17523773816E+03 0.  0.
        -24    2    5    5    0    0  0.85024069355E+01  0.29171271762E+01  0.60222406903E+03  0.60733915492E+03  0.78142301125E+02 0.  0.
          5    1    3    3  501    0  0.44535998299E+02 -0.24604330852E+02  0.11783387540E+02  0.52438215674E+02  0.47000000000E+01 0. -1.
        -15    1    4    4    0    0  0.22734588491E+02 -0.62798349101E+02  0.12510633574E+03  0.14182823109E+03  0.17770000000E+01 0.  1.
         16    1    4    4    0    0  0.39470380673E+02 -0.46530902135E+01  0.24321567685E+03  0.24644152991E+03  0.00000000000E+00 0. -1.
         -5    1    5    5    0  502 -0.11524337440E+03  0.89138642990E+02  0.97407238084E+03  0.98491919777E+03  0.47000000000E+01 0.  1.
         15    1    6    6    0    0 -0.10292617617E+02 -0.18521666693E+02  0.51769127516E+03  0.51812778754E+03  0.17770000000E+01 0. -1.
        -16    1    6    6    0    0  0.18795024552E+02  0.21438793869E+02  0.84532793870E+02  0.89211367381E+02  0.00000000000E+00 0.  1.
<mgrwt>
<rscale>  2 0.22442521E+03</rscale>
<asrwt>0</asrwt>
<pdfrwt beam="1">  1       21 0.30687439E+00 0.22489145E+03</pdfrwt>
<pdfrwt beam="2">  1       21 0.58895769E-02 0.22489145E+03</pdfrwt>
<totfact> 0.61259106E+03</totfact>
</mgrwt>
</event>
<event>
12    2  0.4097182E-002  0.4836276E+03  0.7546771E-02  0.1018235E+00
         21   -1    0    0  501  502  0.00000000000E+00  0.00000000000E+00  0.33850236004E+03  0.33850236004E+03  0.00000000000E+00 0.  1.
         21   -1    0    0  502  503 -0.00000000000E+00 -0.00000000000E+00 -0.90254238770E+03  0.90254238770E+03  0.00000000000E+00 0. -1.
         -6    2    1    2    0  503 -0.34486473885E+03 -0.29127907497E+03 -0.58351689156E+03  0.75702510068E+03  0.16976410902E+03 0.  0.
        -24    2    3    3    0    0 -0.75004414338E+02 -0.10411997172E+03 -0.22110655848E+03  0.26792749877E+03  0.80189798059E+02 0.  0.
          6    2    1    2  501    0  0.34486473885E+03  0.29127907497E+03  0.19476863895E+02  0.48401964706E+03  0.17355253640E+03 0.  0.
         24    2    5    5    0    0  0.10168475794E+03  0.91753403213E+02 -0.40570163682E+02  0.16374674416E+03  0.80053613563E+02 0.  0.
          5    1    5    5  501    0  0.24317998091E+03  0.19952567176E+03  0.60047027577E+02  0.32027290289E+03  0.47000000000E+01 0. -1.
        -15    1    6    6    0    0  0.10865208964E+03  0.99387691186E+02 -0.32945814605E+02  0.15090319470E+03  0.17770000000E+01 0.  1.
         16    1    6    6    0    0 -0.69673317011E+01 -0.76342879731E+01 -0.76243490774E+01  0.12843549460E+02  0.00000000000E+00 0. -1.
         -5    1    3    3    0  503 -0.26986032452E+03 -0.18715910325E+03 -0.36241033308E+03  0.48909760191E+03  0.47000000000E+01 0.  1.
         15    1    4    4    0    0 -0.65541344504E+02 -0.64115171854E+02 -0.20349795040E+03  0.22320617520E+03  0.17770000000E+01 0. -1.
        -16    1    4    4    0    0 -0.94630698342E+01 -0.40004799869E+02 -0.17608608076E+02  0.44721323567E+02  0.00000000000E+00 0.  1.
<mgrwt>
<rscale>  2 0.48329063E+03</rscale>
<asrwt>0</asrwt>
<pdfrwt beam="1">  1       21 0.52077286E-01 0.48362762E+03</pdfrwt>
<pdfrwt beam="2">  1       21 0.13885267E+00 0.48362762E+03</pdfrwt>
<totfact> 0.10696271E+03</totfact>
</mgrwt>
</event>
<event>
12    2  0.4097182E-002  0.1759223E+03  0.7546771E-02  0.1172196E+00
         21   -1    0    0  501  502  0.00000000000E+00  0.00000000000E+00  0.74971079140E+03  0.74971079140E+03  0.00000000000E+00 0.  1.
         21   -1    0    0  502  503 -0.00000000000E+00 -0.00000000000E+00 -0.72132900740E+02  0.72132900740E+02  0.00000000000E+00 0.  1.
         -6    2    1    2    0  503  0.42790512608E+01  0.24439504996E+02  0.69325546112E+02  0.18908908000E+03  0.17416385718E+03 0.  0.
        -24    2    3    3    0    0  0.16404577256E+01  0.23754076890E+02  0.11519714389E+03  0.14289681366E+03  0.81130574531E+02 0.  0.
          6    2    1    2  501    0 -0.42790512608E+01 -0.24439504996E+02  0.60825234454E+03  0.63275461213E+03  0.17260325852E+03 0.  0.
         24    2    5    5    0    0  0.41862730749E+02 -0.65456688972E+02  0.41818974052E+03  0.43286124837E+03  0.80306506013E+02 0.  0.
          5    1    5    5  501    0 -0.46141782010E+02  0.41017183976E+02  0.19006260402E+03  0.19989336376E+03  0.47000000000E+01 0. -1.
        -15    1    6    6    0    0  0.43280695262E+02 -0.46667523614E+01  0.25532535714E+03  0.25901581590E+03  0.17770000000E+01 0.  1.
         16    1    6    6    0    0 -0.14179645124E+01 -0.60789936611E+02  0.16286438339E+03  0.17384543248E+03  0.00000000000E+00 0. -1.
         -5    1    3    3    0  503  0.26385935353E+01  0.68542810682E+00 -0.45871597774E+02  0.46192266343E+02  0.47000000000E+01 0.  1.
         15    1    4    4    0    0  0.97924917048E-01  0.46091106066E+02  0.30517585669E+02  0.55307146118E+02  0.17770000000E+01 0. -1.
        -16    1    4    4    0    0  0.15425328085E+01 -0.22337029176E+02  0.84679558217E+02  0.87589667540E+02  0.00000000000E+00 0.  1.
<mgrwt>
<rscale>  2 0.17553479E+03</rscale>
<asrwt>0</asrwt>
<pdfrwt beam="1">  1       21 0.11534012E+00 0.17592228E+03</pdfrwt>
<pdfrwt beam="2">  1       21 0.11097370E-01 0.17592228E+03</pdfrwt>
<totfact> 0.39632077E+04</totfact>
</mgrwt>
</event>
<event>
12    2  0.4097182E-002  0.1970900E+03  0.7546771E-02  0.1152319E+00
         21   -1    0    0  503  502  0.00000000000E+00  0.00000000000E+00  0.25616936482E+03  0.25616936482E+03  0.00000000000E+00 0. -1.
         21   -1    0    0  501  503 -0.00000000000E+00 -0.00000000000E+00 -0.27892204714E+03  0.27892204714E+03  0.00000000000E+00 0. -1.
          6    2    1    2  501    0 -0.16858297142E+01  0.93232178332E+02 -0.19236381693E+03  0.27506752393E+03  0.17309888377E+03 0.  0.
         24    2    3    3    0    0  0.67544135108E+02  0.70710586276E+02 -0.12516125831E+03  0.17587939953E+03  0.75538237990E+02 0.  0.
         -6    2    1    2    0  502  0.16858297142E+01 -0.93232178332E+02  0.16961113461E+03  0.26002388802E+03  0.17363583806E+03 0.  0.
        -24    2    5    5    0    0  0.51471910119E+02 -0.28422669193E+02  0.14331806349E+03  0.17404515888E+03  0.79337534308E+02 0.  0.
          5    1    3    3  501    0 -0.69229964822E+02  0.22521592056E+02 -0.67202558612E+02  0.99188124400E+02  0.47000000000E+01 0. -1.
        -15    1    4    4    0    0  0.70025353918E+02  0.72396297728E+02 -0.13337035576E+03  0.16713941379E+03  0.17770000000E+01 0.  1.
         16    1    4    4    0    0 -0.24812188097E+01 -0.16857114518E+01  0.82090974501E+01  0.87399857452E+01  0.00000000000E+00 0. -1.
         -5    1    5    5    0  502 -0.49786080405E+02 -0.64809509138E+02  0.26293071122E+02  0.85978729148E+02  0.47000000000E+01 0.  1.
         15    1    6    6    0    0  0.49010782669E+02 -0.33441776959E+02  0.42340201046E+02  0.72912684888E+02  0.17770000000E+01 0. -1.
        -16    1    6    6    0    0  0.24611274502E+01  0.50191077651E+01  0.10097786245E+03  0.10113247399E+03  0.00000000000E+00 0.  1.
<mgrwt>
<rscale>  2 0.19697171E+03</rscale>
<asrwt>0</asrwt>
<pdfrwt beam="1">  1       21 0.39410671E-01 0.19709004E+03</pdfrwt>
<pdfrwt beam="2">  1       21 0.42911084E-01 0.19709004E+03</pdfrwt>
<totfact> 0.32339518E+04</totfact>
</mgrwt>
</event>
<event>
12    2  0.4097182E-002  0.2832551E+03  0.7546771E-02  0.1093971E+00
         21   -1    0    0  501  502  0.00000000000E+00  0.00000000000E+00  0.13369881709E+04  0.13369881709E+04  0.00000000000E+00 0. -1.
         21   -1    0    0  502  503 -0.00000000000E+00 -0.00000000000E+00 -0.22757077550E+03  0.22757077550E+03  0.00000000000E+00 0.  1.
         -6    2    1    2    0  503  0.21797981301E+03 -0.48507668534E+02 -0.11660621775E+03  0.30631761143E+03  0.17425635215E+03 0.  0.
        -24    2    3    3    0    0  0.15370395146E+03 -0.49575497765E+02 -0.89293038996E+01  0.18082285291E+03  0.80836483074E+02 0.  0.
          6    2    1    2  501    0 -0.21797981301E+03  0.48507668534E+02  0.12260236131E+04  0.12582413349E+04  0.17369272934E+03 0.  0.
         24    2    5    5    0    0 -0.59045420791E+02  0.55687036735E+02  0.35466432099E+03  0.37246439329E+03  0.79721615094E+02 0.  0.
          5    1    5    5  501    0 -0.15893439222E+03 -0.71793682016E+01  0.87135929212E+03  0.88577694163E+03  0.47000000000E+01 0. -1.
        -15    1    6    6    0    0  0.72469631083E+01  0.41124849170E+01  0.16277844730E+03  0.16300126270E+03  0.17770000000E+01 0.  1.
         16    1    6    6    0    0 -0.66292383899E+02  0.51574551818E+02  0.19188587369E+03  0.20946313059E+03  0.00000000000E+00 0. -1.
         -5    1    3    3    0  503  0.64275861556E+02  0.10678292309E+01 -0.10767691386E+03  0.12549475852E+03  0.47000000000E+01 0.  1.
         15    1    4    4    0    0  0.31173755447E+01 -0.26477079674E+02 -0.98368139278E+01  0.28472344750E+02  0.17770000000E+01 0. -1.
        -16    1    4    4    0    0  0.15058657591E+03 -0.23098418091E+02  0.90751002818E+00  0.15235050816E+03  0.00000000000E+00 0.  1.
<mgrwt>
<rscale>  2 0.28316849E+03</rscale>
<asrwt>0</asrwt>
<pdfrwt beam="1">  1       21 0.20569048E+00 0.28325513E+03</pdfrwt>
<pdfrwt beam="2">  1       21 0.35010890E-01 0.28325513E+03</pdfrwt>
<totfact> 0.89100853E+02</totfact>
</mgrwt>
</event>
<event>
12    2  0.4097182E-002  0.1773895E+03  0.7546771E-02  0.1170733E+00
         21   -1    0    0  501  502  0.00000000000E+00  0.00000000000E+00  0.39757684121E+03  0.39757684121E+03  0.00000000000E+00 0.  1.
         21   -1    0    0  502  503 -0.00000000000E+00 -0.00000000000E+00 -0.94900758658E+02  0.94900758658E+02  0.00000000000E+00 0.  1.
         -6    2    1    2    0  503 -0.36786933952E+02 -0.10976749615E+02  0.25326704850E+03  0.30833561051E+03  0.17161842358E+03 0.  0.
        -24    2    3    3    0    0 -0.67729161313E+02 -0.43730538913E+02  0.23167474305E+03  0.25815045532E+03  0.80429296190E+02 0.  0.
          6    2    1    2  501    0  0.36786933952E+02  0.10976749615E+02  0.49409034048E+02  0.18414198936E+03  0.17318560003E+03 0.  0.
         24    2    5    5    0    0 -0.18671573002E+02  0.47543045865E+02 -0.69517580415E+01  0.96898829740E+02  0.82049298696E+02 0.  0.
          5    1    5    5  501    0  0.55458506954E+02 -0.36566296250E+02  0.56360792090E+02  0.87243159617E+02  0.47000000000E+01 0. -1.
        -15    1    6    6    0    0  0.17531930748E+02 -0.18514140664E+01 -0.27143288077E+02  0.32414690288E+02  0.17770000000E+01 0.  1.
         16    1    6    6    0    0 -0.36203503750E+02  0.49394459931E+02  0.20191530036E+02  0.64484139452E+02  0.00000000000E+00 0. -1.
         -5    1    3    3    0  503  0.30942227361E+02  0.32753789298E+02  0.21592305453E+02  0.50185155198E+02  0.47000000000E+01 0.  1.
         15    1    4    4    0    0 -0.10440356499E+02  0.80653462235E+01 -0.64695008581E+00  0.13327682730E+02  0.17770000000E+01 0. -1.
        -16    1    4    4    0    0 -0.57288804814E+02 -0.51795885137E+02  0.23232169314E+03  0.24482277259E+03  0.00000000000E+00 0.  1.
<mgrwt>
<rscale>  2 0.17700579E+03</rscale>
<asrwt>0</asrwt>
<pdfrwt beam="1">  1       21 0.61165667E-01 0.17738946E+03</pdfrwt>
<pdfrwt beam="2">  1       21 0.14600117E-01 0.17738946E+03</pdfrwt>
<totfact> 0.10303878E+05</totfact>
</mgrwt>
</event>
<event>
12    2  0.4097182E-002  0.2892010E+03  0.7546771E-02  0.1090882E+00
         21   -1    0    0  503  502  0.00000000000E+00  0.00000000000E+00  0.54889744201E+03  0.54889744201E+03  0.00000000000E+00 0. -1.
         21   -1    0    0  501  503 -0.00000000000E+00 -0.00000000000E+00 -0.16025030416E+03  0.16025030416E+03  0.00000000000E+00 0.  1.
          6    2    1    2  501    0  0.82296007929E+02 -0.21646936736E+03  0.11315578354E+03  0.30973226236E+03  0.17175046746E+03 0.  0.
         24    2    3    3    0    0  0.55790633125E+02 -0.22897792648E+03  0.12365498904E+03  0.27824699182E+03  0.81162470285E+02 0.  0.
         -6    2    1    2    0  502 -0.82296007929E+02  0.21646936736E+03  0.27549135431E+03  0.39941548381E+03  0.17322131071E+03 0.  0.
        -24    2    5    5    0    0 -0.11941045316E+03  0.18471565367E+03  0.25263516133E+03  0.34528346061E+03  0.83770008940E+02 0.  0.
          5    1    3    3  501    0  0.26505374804E+02  0.12508559125E+02 -0.10499205497E+02  0.31485270540E+02  0.47000000000E+01 0. -1.
        -15    1    4    4    0    0  0.13696157119E+02 -0.23928254654E+02 -0.10572627834E+02  0.29581823455E+02  0.17770000000E+01 0.  1.
         16    1    4    4    0    0  0.42094476006E+02 -0.20504967183E+03  0.13422761687E+03  0.24866516837E+03  0.00000000000E+00 0. -1.
         -5    1    5    5    0  502  0.37114445234E+02  0.31753713694E+02  0.22856192974E+02  0.54132023199E+02  0.47000000000E+01 0.  1.
         15    1    6    6    0    0 -0.35537963070E+02  0.10635743360E+03  0.17074925216E+03  0.20428733525E+03  0.17770000000E+01 0. -1.
        -16    1    6    6    0    0 -0.83872490093E+02  0.78358220068E+02  0.81885909169E+02  0.14099612536E+03  0.00000000000E+00 0.  1.
<mgrwt>
<rscale>  2 0.28898115E+03</rscale>
<asrwt>0</asrwt>
<pdfrwt beam="1">  1       21 0.84445759E-01 0.28920104E+03</pdfrwt>
<pdfrwt beam="2">  1       21 0.24653893E-01 0.28920104E+03</pdfrwt>
<totfact> 0.17988769E+04</totfact>
</mgrwt>
</event>
<event>
12    2  0.4097182E-002  0.1986283E+03  0.7546771E-02  0.1152558E+00
         21   -1    0    0  501  502  0.00000000000E+00  0.00000000000E+00  0.27804912854E+03  0.27804912854E+03  0.00000000000E+00 0. -1.
         21   -1    0    0  502  503 -0.00000000000E+00 -0.00000000000E+00 -0.74673995867E+03  0.74673995867E+03  0.00000000000E+00 0. -1.
         -6    2    1    2    0  503 -0.63016214148E+02  0.55710060240E+02 -0.69836831995E+03  0.72606576740E+03  0.17994036297E+03 0.  0.
        -24    2    3    3    0    0 -0.87777985586E+01 -0.57247292899E+01 -0.55302811301E+03  0.55914691034E+03  0.81825126257E+02 0.  0.
          6    2    1    2  501    0  0.63016214148E+02 -0.55710060240E+02  0.22967748981E+03  0.29872331981E+03  0.17149116134E+03 0.  0.
         24    2    5    5    0    0  0.31411803079E+02 -0.56978815418E+02  0.52807863413E+02  0.11898628056E+03  0.84473532799E+02 0.  0.
          5    1    5    5  501    0  0.31604411069E+02  0.12687551781E+01  0.17686962640E+03  0.17973703925E+03  0.47000000000E+01 0. -1.
        -15    1    6    6    0    0  0.32631796536E+02  0.13566494103E+02  0.11390842213E+02  0.37172475338E+02  0.17770000000E+01 0.  1.
         16    1    6    6    0    0 -0.12199934570E+01 -0.70545309521E+02  0.41417021200E+02  0.81813805220E+02  0.00000000000E+00 0. -1.
         -5    1    3    3    0  503 -0.54238415589E+02  0.61434789530E+02 -0.14534020693E+03  0.16691885706E+03  0.47000000000E+01 0.  1.
         15    1    4    4    0    0 -0.27914089264E+02  0.14375956357E+02 -0.47990323654E+03  0.48093257185E+03  0.17770000000E+01 0. -1.
        -16    1    4    4    0    0  0.19136290705E+02 -0.20100685647E+02 -0.73124876473E+02  0.78214338485E+02  0.00000000000E+00 0.  1.
<mgrwt>
<rscale>  2 0.19669504E+03</rscale>
<asrwt>0</asrwt>
<pdfrwt beam="1">  1       21 0.42776789E-01 0.19862827E+03</pdfrwt>
<pdfrwt beam="2">  1       21 0.11488307E+00 0.19862827E+03</pdfrwt>
<totfact> 0.30733207E+03</totfact>
</mgrwt>
</event>
<event>
12    2  0.4097182E-002  0.2125352E+03  0.7546771E-02  0.1139678E+00
         21   -1    0    0  503  502  0.00000000000E+00  0.00000000000E+00  0.25528901933E+03  0.25528901933E+03  0.00000000000E+00 0. -1.
         21   -1    0    0  501  503 -0.00000000000E+00 -0.00000000000E+00 -0.23495489515E+03  0.23495489515E+03  0.00000000000E+00 0.  1.
          6    2    1    2  501    0 -0.84778134477E+02 -0.88768224022E+02 -0.11210861783E+03  0.23981968897E+03  0.17285257112E+03 0.  0.
         24    2    3    3    0    0 -0.99204047227E+02 -0.83987014395E+02 -0.14025561142E+03  0.20748843208E+03  0.80526711951E+02 0.  0.
         -6    2    1    2    0  502  0.84778134477E+02  0.88768224022E+02  0.13244274201E+03  0.25042422551E+03  0.17350528272E+03 0.  0.
        -24    2    5    5    0    0  0.64788271745E+02  0.16235377419E+02  0.13983838835E+03  0.17467863796E+03  0.80602382531E+02 0.  0.
          5    1    3    3  501    0  0.14425912750E+02 -0.47812096263E+01  0.28146993587E+02  0.32331256891E+02  0.47000000000E+01 0. -1.
        -15    1    4    4    0    0 -0.34359561633E+02  0.11491922898E+02 -0.22955461236E+02  0.42927318773E+02  0.17770000000E+01 0.  1.
         16    1    4    4    0    0 -0.64844485594E+02 -0.95478937293E+02 -0.11730015018E+03  0.16456111330E+03  0.00000000000E+00 0. -1.
         -5    1    5    5    0  502  0.19989862732E+02  0.72532846603E+02 -0.73956463393E+01  0.75745587549E+02  0.47000000000E+01 0.  1.
         15    1    6    6    0    0 -0.12942470837E+02  0.36297919304E+01 -0.70597975470E+00  0.13577152766E+02  0.17770000000E+01 0. -1.
        -16    1    6    6    0    0  0.77730742581E+02  0.12605585488E+02  0.14054436810E+03  0.16110148520E+03  0.00000000000E+00 0.  1.
<mgrwt>
<rscale>  2 0.21240195E+03</rscale>
<asrwt>0</asrwt>
<pdfrwt beam="1">  1       21 0.39275234E-01 0.21253520E+03</pdfrwt>
<pdfrwt beam="2">  1       21 0.36146907E-01 0.21253520E+03</pdfrwt>
<totfact> 0.45679996E+04</totfact>
</mgrwt>
</event>
<event>
12    2  0.4097182E-002  0.1936019E+03  0.7546771E-02  0.1155729E+00
         21   -1    0    0  503  502  0.00000000000E+00  0.00000000000E+00  0.71898591238E+03  0.71898591238E+03  0.00000000000E+00 0. -1.
         21   -1    0    0  501  503 -0.00000000000E+00 -0.00000000000E+00 -0.77438004670E+02  0.77438004670E+02  0.00000000000E+00 0.  1.
          6    2    1    2  501    0  0.63423217309E+02 -0.57179798081E+02  0.89350676190E+02  0.21127140482E+03  0.17134768558E+03 0.  0.
         24    2    3    3    0    0 -0.86808364196E+01  0.15929216399E+02  0.45995793800E+02  0.99711293714E+02  0.86588868746E+02 0.  0.
         -6    2    1    2    0  502 -0.63423217309E+02  0.57179798081E+02  0.55219723152E+03  0.58515251224E+03  0.17375167991E+03 0.  0.
        -24    2    5    5    0    0 -0.34196522569E+02  0.47089358149E+02  0.54527343325E+03  0.55312056497E+03  0.72335555359E+02 0.  0.
          5    1    3    3  501    0  0.72104053728E+02 -0.73109014480E+02  0.43354882389E+02  0.11156011110E+03  0.47000000000E+01 0. -1.
        -15    1    4    4    0    0 -0.17179880994E+02 -0.17302282781E+01 -0.22528220437E+02  0.28439768739E+02  0.17770000000E+01 0.  1.
         16    1    4    4    0    0  0.84990445743E+01  0.17659444677E+02  0.68524014238E+02  0.71271524975E+02  0.00000000000E+00 0. -1.
         -5    1    5    5    0  502 -0.29226694740E+02  0.10090439932E+02  0.69237982680E+01  0.32031947270E+02  0.47000000000E+01 0.  1.
         15    1    6    6    0    0 -0.51821749028E+02  0.12787907695E+02  0.27853899337E+03  0.28361268098E+03  0.17770000000E+01 0. -1.
        -16    1    6    6    0    0  0.17625226459E+02  0.34301450454E+02  0.26673443989E+03  0.26950788399E+03  0.00000000000E+00 0.  1.
<mgrwt>
<rscale>  2 0.19306095E+03</rscale>
<asrwt>0</asrwt>
<pdfrwt beam="1">  1       21 0.11061321E+00 0.19360186E+03</pdfrwt>
<pdfrwt beam="2">  1       21 0.11913540E-01 0.19360186E+03</pdfrwt>
<totfact> 0.38287373E+04</totfact>
</mgrwt>
</event>
<event>
12    2  0.4097182E-002  0.1767858E+03  0.7546771E-02  0.1171055E+00
         21   -1    0    0  503  502  0.00000000000E+00  0.00000000000E+00  0.45405388338E+03  0.45405388338E+03  0.00000000000E+00 0.  1.
         21   -1    0    0  501  503 -0.00000000000E+00 -0.00000000000E+00 -0.84927605364E+02  0.84927605364E+02  0.00000000000E+00 0.  1.
          6    2    1    2  501    0 -0.22310367859E+01  0.35723540042E+02  0.66467924890E+02  0.18847428312E+03  0.17269459030E+03 0.  0.
         24    2    3    3    0    0 -0.59431362720E+02  0.29728846101E+02  0.62262440259E+01  0.10505387940E+03  0.81127432461E+02 0.  0.
         -6    2    1    2    0  502  0.22310367859E+01 -0.35723540042E+02  0.30265835312E+03  0.35050720562E+03  0.17312444553E+03 0.  0.
        -24    2    5    5    0    0  0.18973526059E+02 -0.86490318495E+01  0.30727792267E+03  0.31799920101E+03  0.79176825164E+02 0.  0.
          5    1    3    3  501    0  0.57200325934E+02  0.59946939412E+01  0.60241680864E+02  0.83420403714E+02  0.47000000000E+01 0. -1.
        -15    1    4    4    0    0 -0.77696832068E+01 -0.58143494505E+01 -0.30724243784E+02  0.32269358868E+02  0.17770000000E+01 0.  1.
         16    1    4    4    0    0 -0.51661679513E+02  0.35543195551E+02  0.36950487810E+02  0.72784520535E+02  0.00000000000E+00 0. -1.
         -5    1    5    5    0  502 -0.16742489273E+02 -0.27074508193E+02 -0.46195695457E+01  0.32508004610E+02  0.47000000000E+01 0.  1.
         15    1    6    6    0    0 -0.15616514770E+02 -0.26172778486E+01  0.10344835224E+02  0.18997342491E+02  0.17770000000E+01 0. -1.
        -16    1    6    6    0    0  0.34590040829E+02 -0.60317540009E+01  0.29693308744E+03  0.29900185852E+03  0.00000000000E+00 0.  1.
<mgrwt>
<rscale>  2 0.17668048E+03</rscale>
<asrwt>0</asrwt>
<pdfrwt beam="1">  1       21 0.69854442E-01 0.17678581E+03</pdfrwt>
<pdfrwt beam="2">  1       21 0.13065786E-01 0.17678581E+03</pdfrwt>
<totfact> 0.94355752E+04</totfact>
</mgrwt>
</event>
<event>
12    2  0.4097182E-002  0.2673887E+03  0.7546771E-02  0.1103634E+00
         21   -1    0    0  503  502  0.00000000000E+00  0.00000000000E+00  0.11435379034E+03  0.11435379034E+03  0.00000000000E+00 0. -1.
         21   -1    0    0  501  503 -0.00000000000E+00 -0.00000000000E+00 -0.62522966611E+03  0.62522966611E+03  0.00000000000E+00 0. -1.
          6    2    1    2  501    0 -0.13942405172E+03  0.14922386741E+03 -0.19837661122E+03  0.32830191094E+03  0.16346876169E+03 0.  0.
         24    2    3    3    0    0 -0.16748550482E+03  0.12300086751E+03 -0.16319063570E+03  0.27600244874E+03  0.79784462102E+02 0.  0.
         -6    2    1    2    0  502  0.13942405172E+03 -0.14922386741E+03 -0.31249926455E+03  0.41128154551E+03  0.17259748124E+03 0.  0.
        -24    2    5    5    0    0  0.10615617044E+03 -0.16044401559E+03 -0.31138111591E+03  0.37584168227E+03  0.85366012696E+02 0.  0.
          5    1    3    3  501    0  0.28061453104E+02  0.26222999899E+02 -0.35185975518E+02  0.52299462207E+02  0.47000000000E+01 0. -1.
        -15    1    4    4    0    0 -0.61598902574E+01 -0.11091688173E+02 -0.92488239471E+01  0.15800894529E+02  0.17770000000E+01 0.  1.
         16    1    4    4    0    0 -0.16132561457E+03  0.13409255568E+03 -0.15394181176E+03  0.26020155421E+03  0.00000000000E+00 0. -1.
         -5    1    5    5    0  502  0.33267881280E+02  0.11220148181E+02 -0.11181486380E+01  0.35439863240E+02  0.47000000000E+01 0.  1.
         15    1    6    6    0    0  0.87712574444E+02 -0.14218552024E+03 -0.19584669894E+03  0.25742825233E+03  0.17770000000E+01 0. -1.
        -16    1    6    6    0    0  0.18443595995E+02 -0.18258495349E+02 -0.11553441697E+03  0.11841342994E+03  0.00000000000E+00 0.  1.
<mgrwt>
<rscale>  2 0.26592686E+03</rscale>
<asrwt>0</asrwt>
<pdfrwt beam="1">  1       21 0.17592891E-01 0.26738870E+03</pdfrwt>
<pdfrwt beam="2">  1       21 0.96189181E-01 0.26738870E+03</pdfrwt>
<totfact> 0.25351441E+04</totfact>
</mgrwt>
</event>
<event>
12    2  0.4097182E-002  0.2133323E+03  0.7546771E-02  0.1139261E+00
         21   -1    0    0  501  502  0.00000000000E+00  0.00000000000E+00  0.16335425730E+03  0.16335425730E+03  0.00000000000E+00 0. -1.
         21   -1    0    0  502  503 -0.00000000000E+00 -0.00000000000E+00 -0.29913979140E+03  0.29913979140E+03  0.00000000000E+00 0.  1.
         -6    2    1    2    0  503 -0.10336669298E+03 -0.66353922725E+02 -0.13121174124E+03  0.24911268598E+03  0.17249084903E+03 0.  0.
        -24    2    3    3    0    0 -0.10709980169E+03 -0.16071468602E+01 -0.12677881228E+03  0.18393736899E+03  0.79291475109E+02 0.  0.
          6    2    1    2  501    0  0.10336669298E+03  0.66353922725E+02 -0.45737928642E+01  0.21338136272E+03  0.17442238990E+03 0.  0.
         24    2    5    5    0    0  0.11227601849E+02  0.30119605313E+01 -0.47570302463E+02  0.93495558200E+02  0.79645180502E+02 0.  0.
          5    1    5    5  501    0  0.92139091127E+02  0.63341962194E+02  0.42996509599E+02  0.11988580452E+03  0.47000000000E+01 0. -1.
        -15    1    6    6    0    0  0.13214314452E+02 -0.23349625366E+02  0.11142457262E+02  0.29105586989E+02  0.17770000000E+01 0.  1.
         16    1    6    6    0    0 -0.19867126031E+01  0.26361585897E+02 -0.58712759725E+02  0.64389971211E+02  0.00000000000E+00 0. -1.
         -5    1    3    3    0  503  0.37331087102E+01 -0.64746775865E+02 -0.44329289602E+01  0.65175316990E+02  0.47000000000E+01 0.  1.
         15    1    4    4    0    0 -0.27791791940E+02  0.35118650904E+02 -0.32388635840E+02  0.55298144644E+02  0.17770000000E+01 0. -1.
        -16    1    4    4    0    0 -0.79308009746E+02 -0.36725797764E+02 -0.94390176441E+02  0.12863922434E+03  0.00000000000E+00 0.  1.
<mgrwt>
<rscale>  2 0.21293716E+03</rscale>
<asrwt>0</asrwt>
<pdfrwt beam="1">  1       21 0.25131424E-01 0.21333234E+03</pdfrwt>
<pdfrwt beam="2">  1       21 0.46021506E-01 0.21333234E+03</pdfrwt>
<totfact> 0.67232029E+04</totfact>
</mgrwt>
</event>
<event>
12    2  0.4097182E-002  0.1823857E+03  0.7546771E-02  0.1166787E+00
         21   -1    0    0  503  502  0.00000000000E+00  0.00000000000E+00  0.32311036555E+02  0.32311036555E+02  0.00000000000E+00 0. -1.
         21   -1    0    0  501  503 -0.00000000000E+00 -0.00000000000E+00 -0.10213713762E+04  0.10213713762E+04  0.00000000000E+00 0.  1.
          6    2    1    2  501    0 -0.26060683355E+02 -0.47250046571E+02 -0.56367324666E+03  0.59084474261E+03  0.16869574611E+03 0.  0.
         24    2    3    3    0    0  0.42693546428E+02 -0.57534800375E+02 -0.34369798521E+03  0.36009785547E+03  0.80057281492E+02 0.  0.
         -6    2    1    2    0  502  0.26060683355E+02  0.47250046571E+02 -0.42538709298E+03  0.46283767014E+03  0.17422056109E+03 0.  0.
        -24    2    5    5    0    0  0.49055211008E+02 -0.12300301007E+01 -0.12126400356E+03  0.15398170103E+03  0.81224866826E+02 0.  0.
          5    1    3    3  501    0 -0.68754229783E+02  0.10284753804E+02 -0.21997526145E+03  0.23074688714E+03  0.47000000000E+01 0. -1.
        -15    1    4    4    0    0  0.37874760919E+02 -0.51128556499E+02 -0.34596113828E+03  0.35176823866E+03  0.17770000000E+01 0.  1.
         16    1    4    4    0    0  0.48187855097E+01 -0.64062438761E+01  0.22631530705E+01  0.83296168105E+01  0.00000000000E+00 0. -1.
         -5    1    5    5    0  502 -0.22994527654E+02  0.48480076672E+02 -0.30412308942E+03  0.30885596911E+03  0.47000000000E+01 0.  1.
         15    1    6    6    0    0  0.12178443221E+02  0.37345164266E+00  0.11093648671E+02  0.16573494358E+02  0.17770000000E+01 0. -1.
        -16    1    6    6    0    0  0.36876767787E+02 -0.16034817433E+01 -0.13235765223E+03  0.13740820667E+03  0.00000000000E+00 0.  1.
<mgrwt>
<rscale>  2 0.18105366E+03</rscale>
<asrwt>0</asrwt>
<pdfrwt beam="1">  1       21 0.49709283E-02 0.18238566E+03</pdfrwt>
<pdfrwt beam="2">  1       21 0.15713407E+00 0.18238566E+03</pdfrwt>
<totfact> 0.72171217E+04</totfact>
</mgrwt>
</event>
<event>
12    2  0.4097182E-002  0.1946483E+03  0.7546771E-02  0.1158347E+00
         21   -1    0    0  501  502  0.00000000000E+00  0.00000000000E+00  0.29190654785E+03  0.29190654785E+03  0.00000000000E+00 0.  1.
         21   -1    0    0  502  503 -0.00000000000E+00 -0.00000000000E+00 -0.12592897024E+03  0.12592897024E+03  0.00000000000E+00 0.  1.
         -6    2    1    2    0  503 -0.15963414085E+02 -0.37570594873E+02  0.35657822233E+02  0.19788748497E+03  0.19031972108E+03 0.  0.
        -24    2    3    3    0    0 -0.32272611041E+02  0.35900084603E+02  0.67427532426E+02  0.11606245742E+03  0.81201504880E+02 0.  0.
          6    2    1    2  501    0  0.15963414085E+02  0.37570594873E+02  0.13031975537E+03  0.21994803312E+03  0.17241670002E+03 0.  0.
         24    2    5    5    0    0  0.73256002893E+02  0.46221703367E+02  0.75282028035E+02  0.13989477684E+03  0.80001731358E+02 0.  0.
          5    1    5    5  501    0 -0.57292588808E+02 -0.86511084936E+01  0.55037727338E+02  0.80053256280E+02  0.47000000000E+01 0. -1.
        -15    1    6    6    0    0  0.33757670876E+02 -0.14913000434E+02  0.51381587800E+02  0.63286674891E+02  0.17770000000E+01 0.  1.
         16    1    6    6    0    0  0.39498332017E+02  0.61134703800E+02  0.23900440235E+02  0.76608101950E+02  0.00000000000E+00 0. -1.
         -5    1    3    3    0  503  0.16309196956E+02 -0.73470679476E+02 -0.31769710193E+02  0.81825027551E+02  0.47000000000E+01 0.  1.
         15    1    4    4    0    0 -0.31222625172E+02 -0.14581378136E+02  0.53538672166E+02  0.63694709806E+02  0.17770000000E+01 0. -1.
        -16    1    4    4    0    0 -0.10499858689E+01  0.50481462738E+02  0.13888860259E+02  0.52367747611E+02  0.00000000000E+00 0.  1.
<mgrwt>
<rscale>  2 0.19012695E+03</rscale>
<asrwt>0</asrwt>
<pdfrwt beam="1">  1       21 0.44908700E-01 0.19464834E+03</pdfrwt>
<pdfrwt beam="2">  1       21 0.19373688E-01 0.19464834E+03</pdfrwt>
<totfact> 0.11647199E+05</totfact>
</mgrwt>
</event>
<event>
12    2  0.4097182E-002  0.2350426E+03  0.7546771E-02  0.1123179E+00
         21   -1    0    0  501  502  0.00000000000E+00  0.00000000000E+00  0.30277802836E+03  0.30277802836E+03  0.00000000000E+00 0.  1.
         21   -1    0    0  502  503 -0.00000000000E+00 -0.00000000000E+00 -0.18236448489E+03  0.18236448489E+03  0.00000000000E+00 0. -1.
         -6    2    1    2    0  503 -0.15518567536E+03  0.32738330488E+02  0.65369090455E+02  0.24396339264E+03  0.17346650063E+03 0.  0.
        -24    2    3    3    0    0 -0.10856659081E+03  0.15547183421E+02 -0.27345234083E+02  0.13866899319E+03  0.80329996217E+02 0.  0.
          6    2    1    2  501    0  0.15518567536E+03 -0.32738330488E+02  0.55044453011E+02  0.24117912060E+03  0.17315624241E+03 0.  0.
         24    2    5    5    0    0  0.92420005066E+01 -0.11704096235E+02  0.48173417570E+02  0.93492640622E+02  0.78726077307E+02 0.  0.
          5    1    5    5  501    0  0.14594367486E+03 -0.21034234253E+02  0.68710354410E+01  0.14768647998E+03  0.47000000000E+01 0. -1.
        -15    1    6    6    0    0 -0.18921578416E+01  0.22338360483E+02  0.52788861665E+02  0.57379475906E+02  0.17770000000E+01 0.  1.
         16    1    6    6    0    0  0.11134158348E+02 -0.34042456719E+02 -0.46154440957E+01  0.36113164716E+02  0.00000000000E+00 0. -1.
         -5    1    3    3    0  503 -0.46619084551E+02  0.17191147067E+02  0.92714324538E+02  0.10529439945E+03  0.47000000000E+01 0.  1.
         15    1    4    4    0    0 -0.45842688203E+02 -0.33007840120E+02 -0.14094751683E+02  0.58248513501E+02  0.17770000000E+01 0. -1.
        -16    1    4    4    0    0 -0.62723902609E+02  0.48555023541E+02 -0.13250482401E+02  0.80420479689E+02  0.00000000000E+00 0.  1.
<mgrwt>
<rscale>  2 0.23498535E+03</rscale>
<asrwt>0</asrwt>
<pdfrwt beam="1">  1       21 0.46581235E-01 0.23504259E+03</pdfrwt>
<pdfrwt beam="2">  1       21 0.28056075E-01 0.23504259E+03</pdfrwt>
<totfact> 0.52544045E+04</totfact>
</mgrwt>
</event>
<event>
12    2  0.4097182E-002  0.1854889E+03  0.7546771E-02  0.1164044E+00
         21   -1    0    0  503  502  0.00000000000E+00  0.00000000000E+00  0.17370315834E+04  0.17370315834E+04  0.00000000000E+00 0. -1.
         21   -1    0    0  501  503 -0.00000000000E+00 -0.00000000000E+00 -0.42405351623E+02  0.42405351623E+02  0.00000000000E+00 0. -1.
          6    2    1    2  501    0  0.60760730081E+02  0.15799694648E+02  0.19503233822E+03  0.26915375702E+03  0.17454121375E+03 0.  0.
         24    2    3    3    0    0  0.40776948841E+02  0.42356840373E+02  0.34610478776E+02  0.10525776412E+03  0.80152667974E+02 0.  0.
         -6    2    1    2    0  502 -0.60760730081E+02 -0.15799694648E+02  0.14995938935E+04  0.15102831780E+04  0.16802361587E+03 0.  0.
        -24    2    5    5    0    0 -0.70668960686E+02 -0.67866367645E+02  0.84681835797E+03  0.85534264533E+03  0.70069705787E+02 0.  0.
          5    1    3    3  501    0  0.19983781240E+02 -0.26557145725E+02  0.16042185944E+03  0.16389599290E+03  0.47000000000E+01 0. -1.
        -15    1    4    4    0    0  0.25998417051E+02 -0.67472027959E+01  0.45470229757E+02  0.52840722534E+02  0.17770000000E+01 0.  1.
         16    1    4    4    0    0  0.14778531791E+02  0.49104043168E+02 -0.10859750981E+02  0.52417041587E+02  0.00000000000E+00 0. -1.
         -5    1    5    5    0  502  0.99082306045E+01  0.52066672997E+02  0.65277553558E+03  0.65494053266E+03  0.47000000000E+01 0.  1.
         15    1    6    6    0    0 -0.34551688963E+02 -0.59457491973E+02  0.71814600219E+03  0.72143319217E+03  0.17770000000E+01 0. -1.
        -16    1    6    6    0    0 -0.36117271722E+02 -0.84088756718E+01  0.12867235577E+03  0.13390945317E+03  0.00000000000E+00 0.  1.
<mgrwt>
<rscale>  2 0.18393976E+03</rscale>
<asrwt>0</asrwt>
<pdfrwt beam="1">  1       21 0.26723557E+00 0.18548890E+03</pdfrwt>
<pdfrwt beam="2">  1       21 0.65239016E-02 0.18548890E+03</pdfrwt>
<totfact> 0.90749815E+03</totfact>
</mgrwt>
</event>
<event>
12    2  0.4097182E-002  0.2805630E+03  0.7546771E-02  0.1095398E+00
         21   -1    0    0  501  502  0.00000000000E+00  0.00000000000E+00  0.12784390098E+03  0.12784390098E+03  0.00000000000E+00 0.  1.
         21   -1    0    0  502  503 -0.00000000000E+00 -0.00000000000E+00 -0.77030151178E+03  0.77030151178E+03  0.00000000000E+00 0. -1.
         -6    2    1    2    0  503  0.14272106230E+03  0.16921730521E+03 -0.52262302218E+03  0.59316982658E+03  0.17237117464E+03 0.  0.
        -24    2    3    3    0    0  0.87457756643E+02  0.12659501651E+03 -0.20983480563E+03  0.27265578499E+03  0.81457805217E+02 0.  0.
          6    2    1    2  501    0 -0.14272106230E+03 -0.16921730521E+03 -0.11983458862E+03  0.30497558618E+03  0.17218008458E+03 0.  0.
         24    2    5    5    0    0 -0.12997766225E+03 -0.19020997437E+03 -0.13172472192E+03  0.27728891657E+03  0.80397225420E+02 0.  0.
          5    1    5    5  501    0 -0.12743400055E+02  0.20992669168E+02  0.11890133300E+02  0.27686669602E+02  0.47000000000E+01 0. -1.
        -15    1    6    6    0    0 -0.19505384906E+02 -0.23294160020E+01  0.45473950528E+01  0.20241609373E+02  0.17770000000E+01 0.  1.
         16    1    6    6    0    0 -0.11047227734E+03 -0.18788055837E+03 -0.13627211697E+03  0.25704730720E+03  0.00000000000E+00 0. -1.
         -5    1    3    3    0  503  0.55263305661E+02  0.42622288694E+02 -0.31278821655E+03  0.32051404159E+03  0.47000000000E+01 0.  1.
         15    1    4    4    0    0  0.22728349735E+02  0.50988403917E+02 -0.14095023311E+03  0.15161306394E+03  0.17770000000E+01 0. -1.
        -16    1    4    4    0    0  0.64729406908E+02  0.75606612596E+02 -0.68884572524E+02  0.12104272105E+03  0.00000000000E+00 0.  1.
<mgrwt>
<rscale>  2 0.28053370E+03</rscale>
<asrwt>0</asrwt>
<pdfrwt beam="1">  1       21 0.19668293E-01 0.28056304E+03</pdfrwt>
<pdfrwt beam="2">  1       21 0.11850792E+00 0.28056304E+03</pdfrwt>
<totfact> 0.12315882E+04</totfact>
</mgrwt>
</event>
<event>
12    2  0.4097182E-002  0.2370274E+03  0.7546771E-02  0.1122031E+00
         21   -1    0    0  501  502  0.00000000000E+00  0.00000000000E+00  0.87266708621E+02  0.87266708621E+02  0.00000000000E+00 0.  1.
         21   -1    0    0  502  503 -0.00000000000E+00 -0.00000000000E+00 -0.93438828317E+03  0.93438828317E+03  0.00000000000E+00 0.  1.
         -6    2    1    2    0  503  0.74959141376E+02 -0.14152929005E+03 -0.71119137955E+03  0.74965004004E+03  0.17473577589E+03 0.  0.
        -24    2    3    3    0    0  0.87431504665E+02 -0.30130807619E+02 -0.30894955168E+03  0.33205482955E+03  0.79110370835E+02 0.  0.
          6    2    1    2  501    0 -0.74959141376E+02  0.14152929005E+03 -0.13593019500E+03  0.27200495175E+03  0.17280122408E+03 0.  0.
         24    2    5    5    0    0 -0.77013412782E+02  0.40978668138E+02 -0.12110940811E+03  0.17023858539E+03  0.81874112098E+02 0.  0.
          5    1    5    5  501    0  0.20542714060E+01  0.10055062191E+03 -0.14820786895E+02  0.10176636636E+03  0.47000000000E+01 0. -1.
        -15    1    6    6    0    0 -0.18781980835E+02  0.11184429069E+02  0.97039493309E+01  0.23982881798E+02  0.17770000000E+01 0.  1.
         16    1    6    6    0    0 -0.58231431946E+02  0.29794239069E+02 -0.13081335744E+03  0.14625570359E+03  0.00000000000E+00 0. -1.
         -5    1    3    3    0  503 -0.12472363289E+02 -0.11139848243E+03 -0.40224182787E+03  0.41759521049E+03  0.47000000000E+01 0.  1.
         15    1    4    4    0    0  0.25778184214E+02  0.21935291089E+02 -0.15014441079E+03  0.15392262211E+03  0.17770000000E+01 0. -1.
        -16    1    4    4    0    0  0.61653320451E+02 -0.52066098707E+02 -0.15880514088E+03  0.17813220744E+03  0.00000000000E+00 0.  1.
<mgrwt>
<rscale>  2 0.23667100E+03</rscale>
<asrwt>0</asrwt>
<pdfrwt beam="1">  1       21 0.13425647E-01 0.23702743E+03</pdfrwt>
<pdfrwt beam="2">  1       21 0.14375205E+00 0.23702743E+03</pdfrwt>
<totfact> 0.15569751E+04</totfact>
</mgrwt>
</event>
<event>
12    2  0.4097182E-002  0.2055947E+03  0.7546771E-02  0.1145369E+00
         21   -1    0    0  503  502  0.00000000000E+00  0.00000000000E+00  0.57305310145E+03  0.57305310145E+03  0.00000000000E+00 0.  1.
         21   -1    0    0  501  503 -0.00000000000E+00 -0.00000000000E+00 -0.10933307309E+03  0.10933307309E+03  0.00000000000E+00 0.  1.
          6    2    1    2  501    0  0.34342003627E+01  0.11006417596E+03  0.35480106068E+02  0.20735079609E+03  0.17207439714E+03 0.  0.
         24    2    3    3    0    0  0.28539312945E+02  0.13953154218E+03  0.27897978006E+02  0.16762459547E+03  0.83881846580E+02 0.  0.
         -6    2    1    2    0  502 -0.34342003627E+01 -0.11006417596E+03  0.42823992229E+03  0.47503537845E+03  0.17361815337E+03 0.  0.
        -24    2    5    5    0    0 -0.30483113142E+02 -0.13184321750E+02  0.29641259845E+03  0.30915022799E+03  0.81304295205E+02 0.  0.
          5    1    3    3  501    0 -0.25105112583E+02 -0.29467366215E+02  0.75821280615E+01  0.39726200616E+02  0.47000000000E+01 0. -1.
        -15    1    4    4    0    0  0.53318732512E+02  0.12340288337E+03  0.30777216164E+02  0.13791864857E+03  0.17770000000E+01 0.  1.
         16    1    4    4    0    0 -0.24779419567E+02  0.16128658810E+02 -0.28792381575E+01  0.29705946903E+02  0.00000000000E+00 0. -1.
         -5    1    5    5    0  502  0.27048912780E+02 -0.96879854210E+02  0.13182732384E+03  0.16588515047E+03  0.47000000000E+01 0.  1.
         15    1    6    6    0    0  0.19296001511E+02 -0.25077209274E+02  0.67267660796E+02  0.74359249709E+02  0.17770000000E+01 0. -1.
        -16    1    6    6    0    0 -0.49779114653E+02  0.11892887524E+02  0.22914493765E+03  0.23479097828E+03  0.00000000000E+00 0.  1.
<mgrwt>
<rscale>  2 0.20526843E+03</rscale>
<asrwt>0</asrwt>
<pdfrwt beam="1">  1       21 0.88162014E-01 0.20559470E+03</pdfrwt>
<pdfrwt beam="2">  1       21 0.16820473E-01 0.20559470E+03</pdfrwt>
<totfact> 0.34805742E+04</totfact>
</mgrwt>
</event>
<event>
12    2  0.4097182E-002  0.2008470E+03  0.7546771E-02  0.1149584E+00
         21   -1    0    0  503  502  0.00000000000E+00  0.00000000000E+00  0.91463517992E+02  0.91463517992E+02  0.00000000000E+00 0. -1.
         21   -1    0    0  501  503 -0.00000000000E+00 -0.00000000000E+00 -0.43861588693E+03  0.43861588693E+03  0.00000000000E+00 0.  1.
          6    2    1    2  501    0  0.10122932310E+03 -0.23193266193E+02 -0.15155739018E+03  0.25161310833E+03  0.17191338025E+03 0.  0.
         24    2    3    3    0    0  0.94163319061E+02  0.28302396963E+02 -0.15636790463E+03  0.19920163261E+03  0.74582923693E+02 0.  0.
         -6    2    1    2    0  502 -0.10122932310E+03  0.23193266193E+02 -0.19559497875E+03  0.27846629660E+03  0.16882173786E+03 0.  0.
        -24    2    5    5    0    0 -0.93149931232E+02 -0.43924043498E+02 -0.12218440881E+03  0.17856028270E+03  0.79677559678E+02 0.  0.
          5    1    3    3  501    0  0.70660040380E+01 -0.51495663157E+02  0.48105144469E+01  0.52411475711E+02  0.47000000000E+01 0. -1.
        -15    1    4    4    0    0  0.15466968057E+02  0.17317872100E+02 -0.97683444430E+02  0.10042085859E+03  0.17770000000E+01 0.  1.
         16    1    4    4    0    0  0.78696351004E+02  0.10984524863E+02 -0.58684460201E+02  0.98780774025E+02  0.00000000000E+00 0. -1.
         -5    1    5    5    0  502 -0.80793918679E+01  0.67117309691E+02 -0.73410569940E+02  0.99906013893E+02  0.47000000000E+01 0.  1.
         15    1    6    6    0    0 -0.10346401499E+03 -0.44469156536E+02 -0.88240806288E+02  0.14308006816E+03  0.17770000000E+01 0. -1.
        -16    1    6    6    0    0  0.10314083754E+02  0.54511303838E+00 -0.33943602525E+02  0.35480214547E+02  0.00000000000E+00 0.  1.
<mgrwt>
<rscale>  2 0.20018376E+03</rscale>
<asrwt>0</asrwt>
<pdfrwt beam="1">  1       21 0.14071311E-01 0.20084699E+03</pdfrwt>
<pdfrwt beam="2">  1       21 0.67479367E-01 0.20084699E+03</pdfrwt>
<totfact> 0.88176121E+04</totfact>
</mgrwt>
</event>
<event>
12    2  0.4097182E-002  0.2054688E+03  0.7546771E-02  0.1146075E+00
         21   -1    0    0  501  502  0.00000000000E+00  0.00000000000E+00  0.46179696549E+02  0.46179696549E+02  0.00000000000E+00 0. -1.
         21   -1    0    0  502  503 -0.00000000000E+00 -0.00000000000E+00 -0.10909640121E+04  0.10909640121E+04  0.00000000000E+00 0. -1.
         -6    2    1    2    0  503  0.90497165426E+02 -0.64567465028E+02 -0.75859081783E+03  0.78483112728E+03  0.16775331579E+03 0.  0.
        -24    2    3    3    0    0  0.74267825696E+02  0.23173145724E+02 -0.37840497334E+03  0.39428641461E+03  0.78859040576E+02 0.  0.
          6    2    1    2  501    0 -0.90497165426E+02  0.64567465028E+02 -0.28619349768E+03  0.35231258133E+03  0.17279682392E+03 0.  0.
         24    2    5    5    0    0 -0.18547589138E+02 -0.23129159782E+02 -0.70199452197E+02  0.10829832516E+03  0.76951887877E+02 0.  0.
          5    1    5    5  501    0 -0.71949576289E+02  0.87696624810E+02 -0.21599404548E+03  0.24401425617E+03  0.47000000000E+01 0. -1.
        -15    1    6    6    0    0 -0.35765363995E+02 -0.62963406856E+01 -0.25004900400E+01  0.36444688875E+02  0.17770000000E+01 0.  1.
         16    1    6    6    0    0  0.17217774857E+02 -0.16832819096E+02 -0.67698962157E+02  0.71853636281E+02  0.00000000000E+00 0. -1.
         -5    1    3    3    0  503  0.16229339730E+02 -0.87740610752E+02 -0.38018584449E+03  0.39054471267E+03  0.47000000000E+01 0.  1.
         15    1    4    4    0    0  0.69713956226E+02  0.17144758581E+02 -0.15580803068E+03  0.17156129690E+03  0.17770000000E+01 0. -1.
        -16    1    4    4    0    0  0.45538694699E+01  0.60283871426E+01 -0.22259694265E+03  0.22272511771E+03  0.00000000000E+00 0.  1.
<mgrwt>
<rscale>  2 0.20440483E+03</rscale>
<asrwt>0</asrwt>
<pdfrwt beam="1">  1       21 0.71045693E-02 0.20546882E+03</pdfrwt>
<pdfrwt beam="2">  1       21 0.16784060E+00 0.20546882E+03</pdfrwt>
<totfact> 0.32317160E+04</totfact>
</mgrwt>
</event>
<event>
12    2  0.4097182E-002  0.2644715E+03  0.7546771E-02  0.1104943E+00
         21   -1    0    0  501  502  0.00000000000E+00  0.00000000000E+00  0.12969576030E+04  0.12969576030E+04  0.00000000000E+00 0.  1.
         21   -1    0    0  502  503 -0.00000000000E+00 -0.00000000000E+00 -0.71850209398E+02  0.71850209398E+02  0.00000000000E+00 0. -1.
         -6    2    1    2    0  503 -0.19555917701E+03  0.43344718719E+02  0.95761920249E+03  0.99264948817E+03  0.16791757806E+03 0.  0.
        -24    2    3    3    0    0 -0.57757653300E+02 -0.28179979516E+02  0.33448349354E+03  0.35044605921E+03  0.82481362762E+02 0.  0.
          6    2    1    2  501    0  0.19555917701E+03 -0.43344718719E+02  0.26748819108E+03  0.37615832420E+03  0.17269335872E+03 0.  0.
         24    2    5    5    0    0  0.44509362224E+02 -0.70016843760E+02  0.68460028879E+02  0.12483831276E+03  0.63359190684E+02 0.  0.
          5    1    5    5  501    0  0.15104981478E+03  0.26672125041E+02  0.19902816220E+03  0.25132001143E+03  0.47000000000E+01 0. -1.
        -15    1    6    6    0    0  0.34150614505E+02 -0.72224438492E+02  0.77196653811E+02  0.11110857336E+03  0.17770000000E+01 0.  1.
         16    1    6    6    0    0  0.10358747719E+02  0.22075947319E+01 -0.87366249316E+01  0.13729739400E+02  0.00000000000E+00 0. -1.
         -5    1    3    3    0  503 -0.13780152371E+03  0.71524698235E+02  0.62313570895E+03  0.64220342896E+03  0.47000000000E+01 0.  1.
         15    1    4    4    0    0 -0.15238616924E+02  0.15109276223E+02  0.17614499424E+02  0.27819669169E+02  0.17770000000E+01 0. -1.
        -16    1    4    4    0    0 -0.42519036376E+02 -0.43289255739E+02  0.31686899412E+03  0.32262639004E+03  0.00000000000E+00 0.  1.
<mgrwt>
<rscale>  2 0.26369468E+03</rscale>
<asrwt>0</asrwt>
<pdfrwt beam="1">  1       21 0.19953192E+00 0.26447146E+03</pdfrwt>
<pdfrwt beam="2">  1       21 0.11053879E-01 0.26447146E+03</pdfrwt>
<totfact> 0.87061512E+03</totfact>
</mgrwt>
</event>
<event>
12    2  0.4097182E-002  0.2018395E+03  0.7546771E-02  0.1149495E+00
         21   -1    0    0  503  502  0.00000000000E+00  0.00000000000E+00  0.18553291538E+03  0.18553291538E+03  0.00000000000E+00 0.  1.
         21   -1    0    0  501  503 -0.00000000000E+00 -0.00000000000E+00 -0.28145079040E+03  0.28145079040E+03  0.00000000000E+00 0. -1.
          6    2    1    2  501    0  0.63096683690E+01 -0.10261129424E+03 -0.16368767494E+03  0.25987081362E+03  0.17369598506E+03 0.  0.
         24    2    3    3    0    0  0.69112504651E+02 -0.72971480476E+02 -0.12914014453E+03  0.18216407864E+03  0.80032489368E+02 0.  0.
         -6    2    1    2    0  502 -0.63096683690E+01  0.10261129424E+03  0.67769799917E+02  0.20711289216E+03  0.16653562592E+03 0.  0.
        -24    2    5    5    0    0 -0.47506590440E+02  0.10609634627E+03  0.19813148023E+02  0.14362066873E+03  0.81981856672E+02 0.  0.
          5    1    3    3  501    0 -0.62802836282E+02 -0.29639813760E+02 -0.34547530405E+02  0.77706734984E+02  0.47000000000E+01 0. -1.
        -15    1    4    4    0    0  0.29727346925E+02  0.12934030688E+02 -0.45935881851E+02  0.56251820197E+02  0.17770000000E+01 0.  1.
         16    1    4    4    0    0  0.39385157727E+02 -0.85905511164E+02 -0.83204262681E+02  0.12591225844E+03  0.00000000000E+00 0. -1.
         -5    1    5    5    0  502  0.41196922071E+02 -0.34850520389E+01  0.47956651894E+02  0.63492223435E+02  0.47000000000E+01 0.  1.
         15    1    6    6    0    0 -0.12582346677E+02  0.10138157891E+03  0.30783826375E+02  0.10671148807E+03  0.17770000000E+01 0. -1.
        -16    1    6    6    0    0 -0.34924243763E+02  0.47147673665E+01 -0.10970678352E+02  0.36909180663E+02  0.00000000000E+00 0.  1.
<mgrwt>
<rscale>  2 0.20028975E+03</rscale>
<asrwt>0</asrwt>
<pdfrwt beam="1">  1       21 0.28543525E-01 0.20183950E+03</pdfrwt>
<pdfrwt beam="2">  1       21 0.43300122E-01 0.20183950E+03</pdfrwt>
<totfact> 0.59931500E+04</totfact>
</mgrwt>
</event>
<event>
12    2  0.4097182E-002  0.2066736E+03  0.7546771E-02  0.1144444E+00
         21   -1    0    0  501  502  0.00000000000E+00  0.00000000000E+00  0.10257123884E+04  0.10257123884E+04  0.00000000000E+00 0. -1.
         21   -1    0    0  502  503 -0.00000000000E+00 -0.00000000000E+00 -0.60179997270E+02  0.60179997270E+02  0.00000000000E+00 0. -1.
         -6    2    1    2    0  503 -0.11037012591E+03 -0.12506782277E+02  0.18055390403E+03  0.27443336735E+03  0.17428705218E+03 0.  0.
        -24    2    3    3    0    0 -0.13160235875E+03  0.27329220137E+02  0.16296424474E+03  0.22575892936E+03  0.79647234835E+02 0.  0.
          6    2    1    2  501    0  0.11037012591E+03  0.12506782277E+02  0.78497848711E+03  0.81145901833E+03  0.17302175850E+03 0.  0.
         24    2    5    5    0    0  0.60596001828E+02  0.58318392122E+02  0.30172401150E+03  0.32347014016E+03  0.80762876140E+02 0.  0.
          5    1    5    5  501    0  0.49774124083E+02 -0.45811609845E+02  0.48325447561E+03  0.48798887817E+03  0.47000000000E+01 0. -1.
        -15    1    6    6    0    0 -0.43094935363E+01  0.47979425249E+02  0.16274287386E+03  0.16973213515E+03  0.17770000000E+01 0.  1.
         16    1    6    6    0    0  0.64905495365E+02  0.10338966873E+02  0.13898113765E+03  0.15373800502E+03  0.00000000000E+00 0. -1.
         -5    1    3    3    0  503  0.21232232841E+02 -0.39836002414E+02  0.17589659286E+02  0.48674437989E+02  0.47000000000E+01 0.  1.
         15    1    4    4    0    0 -0.84145799249E+02 -0.18781154724E+02  0.11633452836E+03  0.14481066094E+03  0.17770000000E+01 0. -1.
        -16    1    4    4    0    0 -0.47456559504E+02  0.46110374861E+02  0.46629716385E+02  0.80948268418E+02  0.00000000000E+00 0.  1.
<mgrwt>
<rscale>  2 0.20640657E+03</rscale>
<asrwt>0</asrwt>
<pdfrwt beam="1">  1       21 0.15780189E+00 0.20667356E+03</pdfrwt>
<pdfrwt beam="2">  1       21 0.92584619E-02 0.20667356E+03</pdfrwt>
<totfact> 0.24057499E+04</totfact>
</mgrwt>
</event>
<event>
12    2  0.4097182E-002  0.2119671E+03  0.7546771E-02  0.1140552E+00
         21   -1    0    0  501  502  0.00000000000E+00  0.00000000000E+00  0.34637824739E+03  0.34637824739E+03  0.00000000000E+00 0.  1.
         21   -1    0    0  502  503 -0.00000000000E+00 -0.00000000000E+00 -0.15610827862E+03  0.15610827862E+03  0.00000000000E+00 0. -1.
         -6    2    1    2    0  503 -0.70655202018E+02  0.86575309432E+02 -0.10860855190E+02  0.21224512471E+03  0.18011827507E+03 0.  0.
        -24    2    3    3    0    0 -0.17859228972E+02 -0.49772026788E+01  0.46275108536E+02  0.92012493560E+02  0.77338145150E+02 0.  0.
          6    2    1    2  501    0  0.70655202018E+02 -0.86575309432E+02  0.20113082396E+03  0.29024140129E+03  0.17691529301E+03 0.  0.
         24    2    5    5    0    0  0.12529281793E+02 -0.10049966261E+03  0.73140868529E+02  0.14890482108E+03  0.81030204277E+02 0.  0.
          5    1    5    5  501    0  0.58125920225E+02  0.13924353182E+02  0.12798995543E+03  0.14133658021E+03  0.47000000000E+01 0. -1.
        -15    1    6    6    0    0 -0.72282215298E+01 -0.74615174194E+02  0.85816175126E+02  0.11396159462E+03  0.17770000000E+01 0.  1.
         16    1    6    6    0    0  0.19757503322E+02 -0.25884488419E+02 -0.12675306597E+02  0.34943226462E+02  0.00000000000E+00 0. -1.
         -5    1    3    3    0  503 -0.52795973046E+02  0.91552512110E+02 -0.57135963725E+02  0.12023263115E+03  0.47000000000E+01 0.  1.
         15    1    4    4    0    0  0.56273823157E+01 -0.13128784249E+02 -0.18028787344E+02  0.23070052226E+02  0.17770000000E+01 0. -1.
        -16    1    4    4    0    0 -0.23486611288E+02  0.81515815706E+01  0.64303895880E+02  0.68942441335E+02  0.00000000000E+00 0.  1.
<mgrwt>
<rscale>  2 0.21128505E+03</rscale>
<asrwt>0</asrwt>
<pdfrwt beam="1">  1       21 0.53288961E-01 0.21196706E+03</pdfrwt>
<pdfrwt beam="2">  1       21 0.24016658E-01 0.21196706E+03</pdfrwt>
<totfact> 0.54020073E+04</totfact>
</mgrwt>
</event>
<event>
12    2  0.4097182E-002  0.2759286E+03  0.7546771E-02  0.1098026E+00
         21   -1    0    0  503  502  0.00000000000E+00  0.00000000000E+00  0.12379768749E+04  0.12379768749E+04  0.00000000000E+00 0.  1.
         21   -1    0    0  501  503 -0.00000000000E+00 -0.00000000000E+00 -0.65275959794E+02  0.65275959794E+02  0.00000000000E+00 0.  1.
          6    2    1    2  501    0  0.16603675583E+03  0.13686085945E+03  0.42726567960E+03  0.50861830021E+03  0.17273539073E+03 0.  0.
         24    2    3    3    0    0  0.13709608913E+03  0.15910849058E+03  0.29167310456E+03  0.36811934760E+03  0.79547499797E+02 0.  0.
         -6    2    1    2    0  502 -0.16603675583E+03 -0.13686085945E+03  0.74543523547E+03  0.79463453445E+03  0.17167193689E+03 0.  0.
        -24    2    5    5    0    0 -0.53196099232E+02 -0.13083833791E+03  0.45023024525E+03  0.47850582522E+03  0.79448444849E+02 0.  0.
          5    1    3    3  501    0  0.28940666699E+02 -0.22247631126E+02  0.13559257504E+03  0.14049895262E+03  0.47000000000E+01 0. -1.
        -15    1    4    4    0    0  0.90798998933E+02  0.99071440787E+02  0.11889837787E+03  0.17944244363E+03  0.17770000000E+01 0.  1.
         16    1    4    4    0    0  0.46297090195E+02  0.60037049792E+02  0.17277472669E+03  0.18867690397E+03  0.00000000000E+00 0. -1.
         -5    1    5    5    0  502 -0.11284065660E+03 -0.60225215427E+01  0.29520499022E+03  0.31612870923E+03  0.47000000000E+01 0.  1.
         15    1    6    6    0    0  0.12344721339E+02 -0.13812915931E+02  0.12992165402E+03  0.13124779124E+03  0.17770000000E+01 0. -1.
        -16    1    6    6    0    0 -0.65540820571E+02 -0.11702542198E+03  0.32030859123E+03  0.34725803398E+03  0.00000000000E+00 0.  1.
<mgrwt>
<rscale>  2 0.27576237E+03</rscale>
<asrwt>0</asrwt>
<pdfrwt beam="1">  1       21 0.19045796E+00 0.27592864E+03</pdfrwt>
<pdfrwt beam="2">  1       21 0.10042456E-01 0.27592864E+03</pdfrwt>
<totfact> 0.11781899E+04</totfact>
</mgrwt>
</event>
<event>
12    2  0.4097182E-002  0.2074553E+03  0.7546771E-02  0.1143700E+00
         21   -1    0    0  503  502  0.00000000000E+00  0.00000000000E+00  0.77550620651E+03  0.77550620651E+03  0.00000000000E+00 0.  1.
         21   -1    0    0  501  503 -0.00000000000E+00 -0.00000000000E+00 -0.99748739230E+02  0.99748739230E+02  0.00000000000E+00 0.  1.
          6    2    1    2  501    0 -0.80807295471E+01 -0.11410611217E+03  0.46172771141E+02  0.21253149357E+03  0.17306706197E+03 0.  0.
         24    2    3    3    0    0 -0.57475427687E+02 -0.30085359635E+02 -0.83511760096E+01  0.10075370564E+03  0.76635588387E+02 0.  0.
         -6    2    1    2    0  502  0.80807295471E+01  0.11410611217E+03  0.62958469614E+03  0.66272345218E+03  0.17245283826E+03 0.  0.
        -24    2    5    5    0    0 -0.43644762281E+02  0.12318501615E+03  0.47525034460E+03  0.49963103951E+03  0.81785525153E+02 0.  0.
          5    1    3    3  501    0  0.49394698140E+02 -0.84020752534E+02  0.54523947150E+02  0.11177778793E+03  0.47000000000E+01 0. -1.
        -15    1    4    4    0    0 -0.53394792245E+02 -0.44801231064E+02  0.16441321287E+02  0.71635388729E+02  0.17770000000E+01 0.  1.
         16    1    4    4    0    0 -0.40806354425E+01  0.14715871429E+02 -0.24792497297E+02  0.29118316911E+02  0.00000000000E+00 0. -1.
         -5    1    5    5    0  502  0.51725491828E+02 -0.90789039826E+01  0.15433435154E+03  0.16309241267E+03  0.47000000000E+01 0.  1.
         15    1    6    6    0    0  0.23190162089E+02  0.27232743994E+02  0.14252965661E+03  0.14696008542E+03  0.17770000000E+01 0. -1.
        -16    1    6    6    0    0 -0.66834924370E+02  0.95952272158E+02  0.33272068798E+03  0.35267095409E+03  0.00000000000E+00 0.  1.
<mgrwt>
<rscale>  2 0.20732717E+03</rscale>
<asrwt>0</asrwt>
<pdfrwt beam="1">  1       21 0.11930864E+00 0.20745532E+03</pdfrwt>
<pdfrwt beam="2">  1       21 0.15345960E-01 0.20745532E+03</pdfrwt>
<totfact> 0.19971700E+04</totfact>
</mgrwt>
</event>
<event>
12    2  0.4097182E-002  0.2107719E+03  0.7546771E-02  0.1141089E+00
         21   -1    0    0  503  502  0.00000000000E+00  0.00000000000E+00  0.76592908243E+03  0.76592908243E+03  0.00000000000E+00 0. -1.
         21   -1    0    0  501  503 -0.00000000000E+00 -0.00000000000E+00 -0.10615461210E+03  0.10615461210E+03  0.00000000000E+00 0. -1.
          6    2    1    2  501    0 -0.35646165829E+02 -0.11383367660E+03  0.35356730782E+02  0.21305234259E+03  0.17295215293E+03 0.  0.
         24    2    3    3    0    0 -0.17492673302E+02 -0.13897064005E+03 -0.45501729443E+01  0.16229737054E+03  0.81859025139E+02 0.  0.
         -6    2    1    2    0  502  0.35646165829E+02  0.11383367660E+03  0.62441773955E+03  0.65903135194E+03  0.17377011915E+03 0.  0.
        -24    2    5    5    0    0 -0.47598991621E+02  0.56048011025E+02  0.30336600088E+03  0.32233378990E+03  0.80380955918E+02 0.  0.
          5    1    3    3  501    0 -0.18153492527E+02  0.25136963444E+02  0.39906903727E+02  0.50754972044E+02  0.47000000000E+01 0. -1.
        -15    1    4    4    0    0  0.54908411717E+01 -0.57084119537E+02  0.36352630829E+02  0.67922143203E+02  0.17770000000E+01 0.  1.
         16    1    4    4    0    0 -0.22983514473E+02 -0.81886520511E+02 -0.40902803773E+02  0.94375227340E+02  0.00000000000E+00 0. -1.
         -5    1    5    5    0  502  0.83245157450E+02  0.57785665579E+02  0.32105173867E+03  0.33669756204E+03  0.47000000000E+01 0.  1.
         15    1    6    6    0    0 -0.52612726953E+02  0.64979385041E+02  0.17927589793E+03  0.19782169958E+03  0.17770000000E+01 0. -1.
        -16    1    6    6    0    0  0.50137353325E+01 -0.89313740154E+01  0.12409010295E+03  0.12451209032E+03  0.00000000000E+00 0.  1.
<mgrwt>
<rscale>  2 0.21060327E+03</rscale>
<asrwt>0</asrwt>
<pdfrwt beam="1">  1       21 0.11783524E+00 0.21077194E+03</pdfrwt>
<pdfrwt beam="2">  1       21 0.16331479E-01 0.21077194E+03</pdfrwt>
<totfact> 0.18337360E+04</totfact>
</mgrwt>
</event>
<event>
12    2  0.4097182E-002  0.1892186E+03  0.7546771E-02  0.1159306E+00
         21   -1    0    0  501  502  0.00000000000E+00  0.00000000000E+00  0.41373920296E+02  0.41373920296E+02  0.00000000000E+00 0.  1.
         21   -1    0    0  502  503 -0.00000000000E+00 -0.00000000000E+00 -0.12981165460E+04  0.12981165460E+04  0.00000000000E+00 0.  1.
         -6    2    1    2    0  503  0.14632961674E+02  0.72431122865E+02 -0.10156358135E+04  0.10330003608E+04  0.17353169335E+03 0.  0.
        -24    2    3    3    0    0  0.42643166750E+02  0.10761618748E+03 -0.67915671178E+03  0.69349655189E+03  0.79271336899E+02 0.  0.
          6    2    1    2  501    0 -0.14632961674E+02 -0.72431122865E+02 -0.24110681221E+03  0.30649010551E+03  0.17419327989E+03 0.  0.
         24    2    5    5    0    0  0.26695211682E+02  0.17731499341E+02 -0.10822590371E+03  0.14060839404E+03  0.83850067661E+02 0.  0.
          5    1    5    5  501    0 -0.41328173356E+02 -0.90162622206E+02 -0.13288090850E+03  0.16588171147E+03  0.47000000000E+01 0. -1.
        -15    1    6    6    0    0  0.14745672231E+02 -0.80719105675E+01  0.95725813985E+01  0.19426338651E+02  0.17770000000E+01 0.  1.
         16    1    6    6    0    0  0.11949539451E+02  0.25803409908E+02 -0.11779848511E+03  0.12118205539E+03  0.00000000000E+00 0. -1.
         -5    1    3    3    0  503 -0.28010205076E+02 -0.35185064611E+02 -0.33647910170E+03  0.33950380888E+03  0.47000000000E+01 0.  1.
         15    1    4    4    0    0  0.25208173522E+02 -0.13121759161E+01 -0.70038690642E+02  0.74469790746E+02  0.17770000000E+01 0. -1.
        -16    1    4    4    0    0  0.17434993228E+02  0.10892836339E+03 -0.60911802113E+03  0.61902676114E+03  0.00000000000E+00 0.  1.
<mgrwt>
<rscale>  2 0.18906623E+03</rscale>
<asrwt>0</asrwt>
<pdfrwt beam="1">  1       21 0.63652190E-02 0.18921863E+03</pdfrwt>
<pdfrwt beam="2">  1       21 0.19971022E+00 0.18921863E+03</pdfrwt>
<totfact> 0.24087602E+04</totfact>
</mgrwt>
</event>
<event>
12    2  0.4097182E-002  0.3053924E+03  0.7546771E-02  0.1082615E+00
         21   -1    0    0  501  502  0.00000000000E+00  0.00000000000E+00  0.22750661146E+03  0.22750661146E+03  0.00000000000E+00 0. -1.
         21   -1    0    0  502  503 -0.00000000000E+00 -0.00000000000E+00 -0.45712755927E+03  0.45712755927E+03  0.00000000000E+00 0.  1.
         -6    2    1    2    0  503  0.20054234248E+03  0.15091015962E+03 -0.22523396208E+03  0.37921024821E+03  0.17343288983E+03 0.  0.
        -24    2    3    3    0    0  0.60236186262E+02  0.28967436939E+02 -0.14366918113E+03  0.17615668736E+03  0.76959952930E+02 0.  0.
          6    2    1    2  501    0 -0.20054234248E+03 -0.15091015962E+03 -0.43869857396E+01  0.30542392252E+03  0.17399258432E+03 0.  0.
         24    2    5    5    0    0 -0.28499141004E+02 -0.28056124790E+02  0.22237000087E+02  0.92297425645E+02  0.80155994358E+02 0.  0.
          5    1    5    5  501    0 -0.17204320147E+03 -0.12285403483E+03 -0.26623985826E+02  0.21312649687E+03  0.47000000000E+01 0. -1.
        -15    1    6    6    0    0  0.17018479479E+01 -0.30201295131E+02  0.45116590504E+02  0.54347759676E+02  0.17770000000E+01 0.  1.
         16    1    6    6    0    0 -0.30200988952E+02  0.21451703411E+01 -0.22879590417E+02  0.37949665969E+02  0.00000000000E+00 0. -1.
         -5    1    3    3    0  503  0.14030615622E+03  0.12194272268E+03 -0.81564780944E+02  0.20305356086E+03  0.47000000000E+01 0.  1.
         15    1    4    4    0    0  0.32461537156E+02 -0.21572531865E+02 -0.86791347378E+02  0.95157875314E+02  0.17770000000E+01 0. -1.
        -16    1    4    4    0    0  0.27774649106E+02  0.50539968804E+02 -0.56877833754E+02  0.80998812043E+02  0.00000000000E+00 0.  1.
<mgrwt>
<rscale>  2 0.30531275E+03</rscale>
<asrwt>0</asrwt>
<pdfrwt beam="1">  1       21 0.35001017E-01 0.30539241E+03</pdfrwt>
<pdfrwt beam="2">  1       21 0.70327316E-01 0.30539241E+03</pdfrwt>
<totfact> 0.13596591E+04</totfact>
</mgrwt>
</event>
<event>
12    2  0.4097182E-002  0.2098958E+03  0.7546771E-02  0.1141713E+00
         21   -1    0    0  503  502  0.00000000000E+00  0.00000000000E+00  0.54544977036E+03  0.54544977036E+03  0.00000000000E+00 0.  1.
         21   -1    0    0  501  503 -0.00000000000E+00 -0.00000000000E+00 -0.80665172186E+02  0.80665172186E+02  0.00000000000E+00 0.  1.
          6    2    1    2  501    0  0.64407441054E+02  0.98837062338E+02  0.23743009558E+03  0.31690583762E+03  0.17360638318E+03 0.  0.
         24    2    3    3    0    0  0.65600435073E+02  0.13624476108E+03  0.17906875715E+03  0.24741558663E+03  0.79264119972E+02 0.  0.
         -6    2    1    2    0  502 -0.64407441054E+02 -0.98837062338E+02  0.22735450259E+03  0.30920910492E+03  0.17321407957E+03 0.  0.
        -24    2    5    5    0    0  0.16570037691E+02 -0.10065393172E+02  0.52807552731E+02  0.97250408432E+02  0.79329225548E+02 0.  0.
          5    1    3    3  501    0 -0.11929940184E+01 -0.37407698746E+02  0.58361338430E+02  0.69490250997E+02  0.47000000000E+01 0. -1.
        -15    1    4    4    0    0  0.14790940155E+02  0.11376329548E+03  0.12876374146E+03  0.17246483164E+03  0.17770000000E+01 0.  1.
         16    1    4    4    0    0  0.50809494918E+02  0.22481465602E+02  0.50305015687E+02  0.74950754984E+02  0.00000000000E+00 0. -1.
         -5    1    5    5    0  502 -0.80977478745E+02 -0.88771669166E+02  0.17454694986E+03  0.21195869649E+03  0.47000000000E+01 0.  1.
         15    1    6    6    0    0 -0.28717935259E+01  0.68447743981E+01 -0.19258803388E+02  0.20716113814E+02  0.17770000000E+01 0. -1.
        -16    1    6    6    0    0  0.19441831217E+02 -0.16910167570E+02  0.72066356119E+02  0.76534294618E+02  0.00000000000E+00 0.  1.
<mgrwt>
<rscale>  2 0.20981469E+03</rscale>
<asrwt>0</asrwt>
<pdfrwt beam="1">  1       21 0.83915347E-01 0.20989583E+03</pdfrwt>
<pdfrwt beam="2">  1       21 0.12410027E-01 0.20989583E+03</pdfrwt>
<totfact> 0.67639349E+04</totfact>
</mgrwt>
</event>
<event>
12    2  0.4097182E-002  0.2022285E+03  0.7546771E-02  0.1148034E+00
         21   -1    0    0  503  502  0.00000000000E+00  0.00000000000E+00  0.54797979543E+03  0.54797979543E+03  0.00000000000E+00 0. -1.
         21   -1    0    0  501  503 -0.00000000000E+00 -0.00000000000E+00 -0.79800834877E+02  0.79800834877E+02  0.00000000000E+00 0. -1.
          6    2    1    2  501    0  0.97596486720E+02 -0.34340530055E+02  0.15244045490E+03  0.25324780123E+03  0.17375848271E+03 0.  0.
         24    2    3    3    0    0  0.39465769773E+02  0.12692805550E+02  0.16067999510E+03  0.17787343600E+03  0.64048763550E+02 0.  0.
         -6    2    1    2    0  502 -0.97596486720E+02  0.34340530055E+02  0.31573850565E+03  0.37453282907E+03  0.17285742645E+03 0.  0.
        -24    2    5    5    0    0 -0.96961477403E+02  0.67357050040E+02  0.15379345550E+03  0.20918839131E+03  0.78542063993E+02 0.  0.
          5    1    3    3  501    0  0.58130716947E+02 -0.47033335605E+02 -0.82395402043E+01  0.75374365229E+02  0.47000000000E+01 0. -1.
        -15    1    4    4    0    0  0.16201463880E+02  0.32479188099E+02  0.43017974515E+02  0.56312422713E+02  0.17770000000E+01 0.  1.
         16    1    4    4    0    0  0.23264305893E+02 -0.19786382549E+02  0.11766202059E+03  0.12156101329E+03  0.00000000000E+00 0. -1.
         -5    1    5    5    0  502 -0.63500931666E+00 -0.33016519985E+02  0.16194505016E+03  0.16534443776E+03  0.47000000000E+01 0.  1.
         15    1    6    6    0    0 -0.73338213955E+02  0.15329418635E+02  0.12364057123E+03  0.14458088838E+03  0.17770000000E+01 0. -1.
        -16    1    6    6    0    0 -0.23623263448E+02  0.52027631404E+02  0.30152884264E+02  0.64607502931E+02  0.00000000000E+00 0.  1.
<mgrwt>
<rscale>  2 0.20203478E+03</rscale>
<asrwt>0</asrwt>
<pdfrwt beam="1">  1       21 0.84304581E-01 0.20222848E+03</pdfrwt>
<pdfrwt beam="2">  1       21 0.12277052E-01 0.20222848E+03</pdfrwt>
<totfact> 0.68473657E+04</totfact>
</mgrwt>
</event>
<event>
12    2  0.4097182E-002  0.2494266E+03  0.7546771E-02  0.1113815E+00
         21   -1    0    0  501  502  0.00000000000E+00  0.00000000000E+00  0.10242341521E+03  0.10242341521E+03  0.00000000000E+00 0.  1.
         21   -1    0    0  502  503 -0.00000000000E+00 -0.00000000000E+00 -0.98812789431E+03  0.98812789431E+03  0.00000000000E+00 0.  1.
         -6    2    1    2    0  503  0.12642586762E+03 -0.12780504063E+03 -0.78180771598E+03  0.82035106624E+03  0.17156613508E+03 0.  0.
        -24    2    3    3    0    0  0.12110599380E+02 -0.20851266995E+02 -0.19077029274E+03  0.20891471149E+03  0.81673803208E+02 0.  0.
          6    2    1    2  501    0 -0.12642586762E+03  0.12780504063E+03 -0.10389676312E+03  0.27020024328E+03  0.17290461436E+03 0.  0.
         24    2    5    5    0    0 -0.16297592023E+03  0.98991836948E+02 -0.83970980736E+02  0.21935504826E+03  0.68592836614E+02 0.  0.
          5    1    5    5  501    0  0.36550052613E+02  0.28813203683E+02 -0.19925782383E+02  0.50845195015E+02  0.47000000000E+01 0. -1.
        -15    1    6    6    0    0 -0.13094149710E+03  0.76509657500E+02 -0.94663851875E+02  0.17878424409E+03  0.17770000000E+01 0.  1.
         16    1    6    6    0    0 -0.32034423131E+02  0.22482179449E+02  0.10692871139E+02  0.40570804174E+02  0.00000000000E+00 0. -1.
         -5    1    3    3    0  503  0.11431526824E+03 -0.10695377364E+03 -0.59103742324E+03  0.61143635475E+03  0.47000000000E+01 0.  1.
         15    1    4    4    0    0  0.15565220509E+01 -0.49955473375E+02 -0.84137947200E+02  0.97879129385E+02  0.17770000000E+01 0. -1.
        -16    1    4    4    0    0  0.10554077329E+02  0.29104206380E+02 -0.10663234554E+03  0.11103558210E+03  0.00000000000E+00 0.  1.
<mgrwt>
<rscale>  2 0.24919479E+03</rscale>
<asrwt>0</asrwt>
<pdfrwt beam="1">  1       21 0.15757448E-01 0.24942661E+03</pdfrwt>
<pdfrwt beam="2">  1       21 0.15201968E+00 0.24942661E+03</pdfrwt>
<totfact> 0.99501401E+03</totfact>
</mgrwt>
</event>
<event>
12    2  0.4097182E-002  0.1760244E+03  0.7546771E-02  0.1171973E+00
         21   -1    0    0  501  502  0.00000000000E+00  0.00000000000E+00  0.33175433536E+02  0.33175433536E+02  0.00000000000E+00 0.  1.
         21   -1    0    0  502  503 -0.00000000000E+00 -0.00000000000E+00 -0.14131489650E+04  0.14131489650E+04  0.00000000000E+00 0.  1.
         -6    2    1    2    0  503  0.34195962927E+02  0.11990640042E+02 -0.11149403677E+04  0.11287500246E+04  0.17225404223E+03 0.  0.
        -24    2    3    3    0    0 -0.38836119528E+02  0.35754724365E+02 -0.71357114178E+03  0.72007195774E+03  0.80828246642E+02 0.  0.
          6    2    1    2  501    0 -0.34195962927E+02 -0.11990640042E+02 -0.26503316371E+03  0.31757437394E+03  0.17116590135E+03 0.  0.
         24    2    5    5    0    0  0.32113193597E+01  0.44228181998E+02 -0.86492603490E+02  0.12663280600E+03  0.81169282632E+02 0.  0.
          5    1    5    5  501    0 -0.37407282287E+02 -0.56218822040E+02 -0.17854056022E+03  0.19094156793E+03  0.47000000000E+01 0. -1.
        -15    1    6    6    0    0 -0.33922125386E+02  0.25027744025E+02 -0.69919160179E+02  0.81663610322E+02  0.17770000000E+01 0.  1.
         16    1    6    6    0    0  0.37133444746E+02  0.19200437973E+02 -0.16573443311E+02  0.44969195682E+02  0.00000000000E+00 0. -1.
         -5    1    3    3    0  503  0.73032082455E+02 -0.23764084323E+02 -0.40136922594E+03  0.40867806682E+03  0.47000000000E+01 0.  1.
         15    1    4    4    0    0 -0.21234546579E+02  0.12472738554E+02 -0.49085255956E+02  0.54945384308E+02  0.17770000000E+01 0. -1.
        -16    1    4    4    0    0 -0.17601572949E+02  0.23281985812E+02 -0.66448588582E+03  0.66512657343E+03  0.00000000000E+00 0.  1.
<mgrwt>
<rscale>  2 0.17575764E+03</rscale>
<asrwt>0</asrwt>
<pdfrwt beam="1">  1       21 0.51039141E-02 0.17602441E+03</pdfrwt>
<pdfrwt beam="2">  1       21 0.21740748E+00 0.17602441E+03</pdfrwt>
<totfact> 0.27463332E+04</totfact>
</mgrwt>
</event>
<event>
12    2  0.4097182E-002  0.2182927E+03  0.7546771E-02  0.1135302E+00
         21   -1    0    0  503  502  0.00000000000E+00  0.00000000000E+00  0.39543162122E+03  0.39543162122E+03  0.00000000000E+00 0.  1.
         21   -1    0    0  501  503 -0.00000000000E+00 -0.00000000000E+00 -0.14522972700E+03  0.14522972700E+03  0.00000000000E+00 0.  1.
          6    2    1    2  501    0 -0.97580557253E+02 -0.90905282438E+02  0.23738396853E+03  0.32199269320E+03  0.17187905756E+03 0.  0.
         24    2    3    3    0    0 -0.11395813135E+03 -0.11358976982E+03  0.16549675951E+03  0.24470963088E+03  0.81268287339E+02 0.  0.
         -6    2    1    2    0  502  0.97580557253E+02  0.90905282438E+02  0.12817925682E+02  0.21866865503E+03  0.17281766676E+03 0.  0.
        -24    2    5    5    0    0  0.32701793722E+02  0.18158254396E+02 -0.51503836130E+02  0.10178938788E+03  0.79431132645E+02 0.  0.
          5    1    3    3  501    0  0.16377574094E+02  0.22684487381E+02  0.71887209017E+02  0.77283062318E+02  0.47000000000E+01 0. -1.
        -15    1    4    4    0    0 -0.72056773652E+00 -0.49227167372E+02  0.35800439528E+02  0.60898788368E+02  0.17770000000E+01 0.  1.
         16    1    4    4    0    0 -0.11323756361E+03 -0.64362602448E+02  0.12969631999E+03  0.18381084251E+03  0.00000000000E+00 0. -1.
         -5    1    5    5    0  502  0.64878763531E+02  0.72747028042E+02  0.64321761812E+02  0.11687926715E+03  0.47000000000E+01 0.  1.
         15    1    6    6    0    0  0.85331831583E+00 -0.64092912730E+01  0.19259356226E+02  0.20393324839E+02  0.17770000000E+01 0. -1.
        -16    1    6    6    0    0  0.31848475406E+02  0.24567545669E+02 -0.70763192356E+02  0.81396063039E+02  0.00000000000E+00 0.  1.
<mgrwt>
<rscale>  2 0.21810683E+03</rscale>
<asrwt>0</asrwt>
<pdfrwt beam="1">  1       21 0.60835634E-01 0.21829265E+03</pdfrwt>
<pdfrwt beam="2">  1       21 0.22343035E-01 0.21829265E+03</pdfrwt>
<totfact> 0.46571081E+04</totfact>
</mgrwt>
</event>
<event>
12    2  0.4097182E-002  0.2122400E+03  0.7546771E-02  0.1144801E+00
         21   -1    0    0  501  502  0.00000000000E+00  0.00000000000E+00  0.14548896122E+03  0.14548896122E+03  0.00000000000E+00 0. -1.
         21   -1    0    0  502  503 -0.00000000000E+00 -0.00000000000E+00 -0.72987322506E+03  0.72987322506E+03  0.00000000000E+00 0. -1.
         -6    2    1    2    0  503  0.87692518920E+02  0.22698356200E+02 -0.63064618846E+03  0.65813880487E+03  0.16500569141E+03 0.  0.
        -24    2    3    3    0    0  0.16849050807E+02 -0.41685749583E+02 -0.32364866321E+03  0.33652773453E+03  0.80503830208E+02 0.  0.
          6    2    1    2  501    0 -0.87692518920E+02 -0.22698356200E+02  0.46261924624E+02  0.21722338142E+03  0.19193915316E+03 0.  0.
         24    2    5    5    0    0 -0.66301904962E+02 -0.73423964112E+02  0.81262758897E+02  0.15181853402E+03  0.81597856472E+02 0.  0.
          5    1    5    5  501    0 -0.21390613958E+02  0.50725607912E+02 -0.35000834273E+02  0.65404847399E+02  0.47000000000E+01 0. -1.
        -15    1    6    6    0    0 -0.57607439443E+02 -0.41433905802E+02  0.80343243018E+01  0.71435941410E+02  0.17770000000E+01 0.  1.
         16    1    6    6    0    0 -0.86944655186E+01 -0.31990058311E+02  0.73228434595E+02  0.80382592609E+02  0.00000000000E+00 0. -1.
         -5    1    3    3    0  503  0.70843468113E+02  0.64384105783E+02 -0.30699752525E+03  0.32161107034E+03  0.47000000000E+01 0.  1.
         15    1    4    4    0    0 -0.30442521915E+02 -0.27801394467E+02 -0.11637327347E+03  0.12347291679E+03  0.17770000000E+01 0. -1.
        -16    1    4    4    0    0  0.47291572722E+02 -0.13884355116E+02 -0.20727538974E+03  0.21305481773E+03  0.00000000000E+00 0.  1.
<mgrwt>
<rscale>  2 0.20596577E+03</rscale>
<asrwt>0</asrwt>
<pdfrwt beam="1">  1       21 0.22382917E-01 0.21224003E+03</pdfrwt>
<pdfrwt beam="2">  1       21 0.11228819E+00 0.21224003E+03</pdfrwt>
<totfact> 0.11453978E+04</totfact>
</mgrwt>
</event>
<event>
12    2  0.4097182E-002  0.1744211E+03  0.7546771E-02  0.1173910E+00
         21   -1    0    0  501  502  0.00000000000E+00  0.00000000000E+00  0.33435153361E+03  0.33435153361E+03  0.00000000000E+00 0.  1.
         21   -1    0    0  502  503 -0.00000000000E+00 -0.00000000000E+00 -0.10054347890E+03  0.10054347890E+03  0.00000000000E+00 0.  1.
         -6    2    1    2    0  503 -0.54282162917E+01  0.14783467520E+02  0.46431735963E+02  0.18049555026E+03  0.17370872492E+03 0.  0.
        -24    2    3    3    0    0 -0.55420947097E+02 -0.26908225343E+02 -0.22282530694E+02  0.85726299814E+02  0.55289721805E+02 0.  0.
          6    2    1    2  501    0  0.54282162917E+01 -0.14783467520E+02  0.18737631875E+03  0.25439946226E+03  0.17135105815E+03 0.  0.
         24    2    5    5    0    0 -0.41977932868E+01  0.18718385859E+02  0.20122865593E+03  0.21659719400E+03  0.77803425656E+02 0.  0.
          5    1    5    5  501    0  0.96260095785E+01 -0.33501853380E+02 -0.13852337184E+02  0.37802268262E+02  0.47000000000E+01 0. -1.
        -15    1    6    6    0    0 -0.36508794944E+02  0.28463901638E+02  0.12043671080E+03  0.12903970258E+03  0.17770000000E+01 0.  1.
         16    1    6    6    0    0  0.32311001657E+02 -0.97455157787E+01  0.80791945127E+02  0.87557491417E+02  0.00000000000E+00 0. -1.
         -5    1    3    3    0  503  0.49992730806E+02  0.41691692863E+02  0.68714266658E+02  0.94769250443E+02  0.47000000000E+01 0.  1.
         15    1    4    4    0    0 -0.39163213381E+02 -0.12619761014E+02  0.13982335903E+02  0.43493437398E+02  0.17770000000E+01 0. -1.
        -16    1    4    4    0    0 -0.16257733716E+02 -0.14288464329E+02 -0.36264866598E+02  0.42232862416E+02  0.00000000000E+00 0.  1.
<mgrwt>
<rscale>  2 0.17383119E+03</rscale>
<asrwt>0</asrwt>
<pdfrwt beam="1">  1       21 0.51438697E-01 0.17442115E+03</pdfrwt>
<pdfrwt beam="2">  1       21 0.15468228E-01 0.17442115E+03</pdfrwt>
<totfact> 0.13403576E+05</totfact>
</mgrwt>
</event>
<event>
12    2  0.4097182E-002  0.1878657E+03  0.7546771E-02  0.1160443E+00
         21   -1    0    0  503  502  0.00000000000E+00  0.00000000000E+00  0.70995004605E+03  0.70995004605E+03  0.00000000000E+00 0.  1.
         21   -1    0    0  501  503 -0.00000000000E+00 -0.00000000000E+00 -0.57960118711E+02  0.57960118711E+02  0.00000000000E+00 0. -1.
          6    2    1    2  501    0  0.26501773592E+01 -0.72606071648E+02  0.47139885971E+03  0.50745483547E+03  0.17324797267E+03 0.  0.
         24    2    3    3    0    0 -0.46354286046E+02 -0.64791516818E+02  0.42326383207E+03  0.43816143329E+03  0.80538870093E+02 0.  0.
         -6    2    1    2    0  502 -0.26501773592E+01  0.72606071648E+02  0.18059106763E+03  0.26045532928E+03  0.17304675601E+03 0.  0.
        -24    2    5    5    0    0 -0.44015381201E+02  0.91868902586E+02  0.16797144860E+03  0.21287926882E+03  0.82011746140E+02 0.  0.
          5    1    3    3  501    0  0.49004463406E+02 -0.78145548300E+01  0.48135027634E+02  0.69293402184E+02  0.47000000000E+01 0. -1.
        -15    1    4    4    0    0 -0.45729189929E+02 -0.81655829319E+02  0.31580288049E+03  0.32938343967E+03  0.17770000000E+01 0.  1.
         16    1    4    4    0    0 -0.62509611723E+00  0.16864312501E+02  0.10746095158E+03  0.10877799362E+03  0.00000000000E+00 0. -1.
         -5    1    5    5    0  502  0.41365203842E+02 -0.19262830939E+02  0.12619619031E+02  0.47576060463E+02  0.47000000000E+01 0.  1.
         15    1    6    6    0    0 -0.13175567170E+02  0.25915867335E+02 -0.73126406975E+00  0.29136235620E+02  0.17770000000E+01 0. -1.
        -16    1    6    6    0    0 -0.30839814031E+02  0.65953035251E+02  0.16870271267E+03  0.18374303320E+03  0.00000000000E+00 0.  1.
<mgrwt>
<rscale>  2 0.18781931E+03</rscale>
<asrwt>0</asrwt>
<pdfrwt beam="1">  1       21 0.10922308E+00 0.18786571E+03</pdfrwt>
<pdfrwt beam="2">  1       21 0.89169418E-02 0.18786571E+03</pdfrwt>
<totfact> 0.66112914E+04</totfact>
</mgrwt>
</event>
<event>
12    2  0.4097182E-002  0.2395936E+03  0.7546771E-02  0.1120130E+00
         21   -1    0    0  501  502  0.00000000000E+00  0.00000000000E+00  0.16188359397E+03  0.16188359397E+03  0.00000000000E+00 0.  1.
         21   -1    0    0  502  503 -0.00000000000E+00 -0.00000000000E+00 -0.36221036267E+03  0.36221036267E+03  0.00000000000E+00 0. -1.
         -6    2    1    2    0  503 -0.16355598981E+03  0.25836397303E+02 -0.60675693914E+02  0.24677191894E+03  0.17261737722E+03 0.  0.
        -24    2    3    3    0    0 -0.18787736805E+03  0.36158903933E+01 -0.61713681184E+02  0.21347855947E+03  0.80333908265E+02 0.  0.
          6    2    1    2  501    0  0.16355598981E+03 -0.25836397303E+02 -0.13965107479E+03  0.27732203769E+03  0.17316757397E+03 0.  0.
         24    2    5    5    0    0  0.18368180352E+02  0.41833302028E+00 -0.88794508187E+02  0.12118975005E+03  0.80404762180E+02 0.  0.
          5    1    5    5  501    0  0.14518780945E+03 -0.26254730323E+02 -0.50856566602E+02  0.15613228764E+03  0.47000000000E+01 0. -1.
        -15    1    6    6    0    0 -0.30980043733E+02 -0.14577123521E+01 -0.21757285272E+02  0.37926576782E+02  0.17770000000E+01 0.  1.
         16    1    6    6    0    0  0.49348224085E+02  0.18760453724E+01 -0.67037222915E+02  0.83263173268E+02  0.00000000000E+00 0. -1.
         -5    1    3    3    0  503  0.24321378250E+02  0.22220506910E+02  0.10379872700E+01  0.33293359471E+02  0.47000000000E+01 0.  1.
         15    1    4    4    0    0 -0.36899974423E+02  0.70415254414E+01 -0.49224500373E+02  0.61946754224E+02  0.17770000000E+01 0. -1.
        -16    1    4    4    0    0 -0.15097739363E+03 -0.34256350481E+01 -0.12489180811E+02  0.15153180524E+03  0.00000000000E+00 0.  1.
<mgrwt>
<rscale>  2 0.23949419E+03</rscale>
<asrwt>0</asrwt>
<pdfrwt beam="1">  1       21 0.24905168E-01 0.23959359E+03</pdfrwt>
<pdfrwt beam="2">  1       21 0.55724671E-01 0.23959359E+03</pdfrwt>
<totfact> 0.45284224E+04</totfact>
</mgrwt>
</event>
<event>
12    2  0.4097182E-002  0.2678079E+03  0.7546771E-02  0.1102672E+00
         21   -1    0    0  501  502  0.00000000000E+00  0.00000000000E+00  0.13409303689E+03  0.13409303689E+03  0.00000000000E+00 0. -1.
         21   -1    0    0  502  503 -0.00000000000E+00 -0.00000000000E+00 -0.73613833749E+03  0.73613833749E+03  0.00000000000E+00 0.  1.
         -6    2    1    2    0  503 -0.16302556932E+03 -0.12348318640E+03 -0.52992795412E+03  0.59375476300E+03  0.17290358140E+03 0.  0.
        -24    2    3    3    0    0 -0.10150630306E+03 -0.12135007888E+03 -0.48637561957E+03  0.51820301839E+03  0.83329189095E+02 0.  0.
          6    2    1    2  501    0  0.16302556932E+03  0.12348318640E+03 -0.72117346486E+02  0.27647661138E+03  0.17150210319E+03 0.  0.
         24    2    5    5    0    0  0.11302310474E+03  0.51300037667E+02 -0.10755823652E+03  0.18166732854E+03  0.77642307716E+02 0.  0.
          5    1    5    5  501    0  0.50002464587E+02  0.72183148730E+02  0.35440890036E+02  0.94809282836E+02  0.47000000000E+01 0. -1.
        -15    1    6    6    0    0  0.61862378778E+02  0.44655376127E+02 -0.10527413160E+03  0.13002637055E+03  0.17770000000E+01 0.  1.
         16    1    6    6    0    0  0.51160725958E+02  0.66446615401E+01 -0.22841049263E+01  0.51640957997E+02  0.00000000000E+00 0. -1.
         -5    1    3    3    0  503 -0.61519266263E+02 -0.21331075158E+01 -0.43552334546E+02  0.75551744610E+02  0.47000000000E+01 0.  1.
         15    1    4    4    0    0  0.63459556185E+01 -0.45303629058E+02 -0.10194807651E+03  0.11175534883E+03  0.17770000000E+01 0. -1.
        -16    1    4    4    0    0 -0.10785225868E+03 -0.76046449823E+02 -0.38442754306E+03  0.40644766956E+03  0.00000000000E+00 0.  1.
<mgrwt>
<rscale>  2 0.26758196E+03</rscale>
<asrwt>0</asrwt>
<pdfrwt beam="1">  1       21 0.20629698E-01 0.26780792E+03</pdfrwt>
<pdfrwt beam="2">  1       21 0.11325205E+00 0.26780792E+03</pdfrwt>
<totfact> 0.12671990E+04</totfact>
</mgrwt>
</event>
<event>
12    2  0.4097182E-002  0.1793712E+03  0.7546771E-02  0.1169258E+00
         21   -1    0    0  501  502  0.00000000000E+00  0.00000000000E+00  0.39284744002E+02  0.39284744002E+02  0.00000000000E+00 0.  1.
         21   -1    0    0  502  503 -0.00000000000E+00 -0.00000000000E+00 -0.20029901599E+04  0.20029901599E+04  0.00000000000E+00 0.  1.
         -6    2    1    2    0  503  0.85336149506E+01  0.32697204416E+02 -0.17682815309E+04  0.17770117949E+04  0.17265403845E+03 0.  0.
        -24    2    3    3    0    0 -0.57577789068E+02  0.66387397501E+01 -0.10881867953E+04  0.10931984427E+04  0.87023324061E+02 0.  0.
          6    2    1    2  501    0 -0.85336149506E+01 -0.32697204416E+02 -0.19542388501E+03  0.26526310900E+03  0.17615928134E+03 0.  0.
         24    2    5    5    0    0 -0.27922735767E+02 -0.79916871755E+02 -0.17304552761E+03  0.20932997151E+03  0.81901750786E+02 0.  0.
          5    1    5    5  501    0  0.19389120816E+02  0.47219667339E+02 -0.22378357403E+02  0.55933137492E+02  0.47000000000E+01 0. -1.
        -15    1    6    6    0    0  0.45186050316E+00 -0.33256905555E+02 -0.63371584698E+01  0.33904914858E+02  0.17770000000E+01 0.  1.
         16    1    6    6    0    0 -0.28374596270E+02 -0.46659966200E+02 -0.16670836914E+03  0.17542505665E+03  0.00000000000E+00 0. -1.
         -5    1    3    3    0  503  0.66111404019E+02  0.26058464666E+02 -0.68009473553E+03  0.68381335218E+03  0.47000000000E+01 0.  1.
         15    1    4    4    0    0  0.17309387390E+02  0.20182570077E+02 -0.20202632501E+03  0.20377621243E+03  0.17770000000E+01 0. -1.
        -16    1    4    4    0    0 -0.74887176459E+02 -0.13543830327E+02 -0.88616047031E+03  0.88942223026E+03  0.00000000000E+00 0.  1.
<mgrwt>
<rscale>  2 0.17850462E+03</rscale>
<asrwt>0</asrwt>
<pdfrwt beam="1">  1       21 0.60438051E-02 0.17937119E+03</pdfrwt>
<pdfrwt beam="2">  1       21 0.30815242E+00 0.17937119E+03</pdfrwt>
<totfact> 0.60619285E+03</totfact>
</mgrwt>
</event>
<event>
12    2  0.4097182E-002  0.2002721E+03  0.7546771E-02  0.1149676E+00
         21   -1    0    0  503  502  0.00000000000E+00  0.00000000000E+00  0.16770402889E+03  0.16770402889E+03  0.00000000000E+00 0. -1.
         21   -1    0    0  501  503 -0.00000000000E+00 -0.00000000000E+00 -0.51666176196E+03  0.51666176196E+03  0.00000000000E+00 0.  1.
          6    2    1    2  501    0 -0.10913707618E+02  0.98528977120E+02 -0.42583580291E+03  0.47057949002E+03  0.17401682975E+03 0.  0.
         24    2    3    3    0    0 -0.74496012277E+02  0.59395774474E+02 -0.29130115690E+03  0.31664515989E+03  0.79563052968E+02 0.  0.
         -6    2    1    2    0  502  0.10913707618E+02 -0.98528977120E+02  0.76878069841E+02  0.21378630083E+03  0.17311059024E+03 0.  0.
        -24    2    5    5    0    0  0.15667905450E+02 -0.80644852943E+02 -0.19249083996E+02  0.11578138259E+03  0.79282569029E+02 0.  0.
          5    1    3    3  501    0  0.63582304659E+02  0.39133202646E+02 -0.13453464601E+03  0.15393433013E+03  0.47000000000E+01 0. -1.
        -15    1    4    4    0    0 -0.33487115148E+02 -0.41309505711E+01 -0.17282144601E+03  0.17609333197E+03  0.17770000000E+01 0.  1.
         16    1    4    4    0    0 -0.41008897129E+02  0.63526725045E+02 -0.11847971089E+03  0.14055182792E+03  0.00000000000E+00 0. -1.
         -5    1    5    5    0  502 -0.47541978323E+01 -0.17884124177E+02  0.96127153837E+02  0.98004918241E+02  0.47000000000E+01 0.  1.
         15    1    6    6    0    0  0.27937550426E+02 -0.87450688310E+02  0.17200541303E+00  0.91822202787E+02  0.17770000000E+01 0. -1.
        -16    1    6    6    0    0 -0.12269644977E+02  0.68058353669E+01 -0.19421089409E+02  0.23959179801E+02  0.00000000000E+00 0.  1.
<mgrwt>
<rscale>  2 0.20007511E+03</rscale>
<asrwt>0</asrwt>
<pdfrwt beam="1">  1       21 0.25800620E-01 0.20027213E+03</pdfrwt>
<pdfrwt beam="2">  1       21 0.79486424E-01 0.20027213E+03</pdfrwt>
<totfact> 0.19808414E+04</totfact>
</mgrwt>
</event>
<event>
12    2  0.4097182E-002  0.1771588E+03  0.7546771E-02  0.1171083E+00
         21   -1    0    0  501  502  0.00000000000E+00  0.00000000000E+00  0.87042726338E+03  0.87042726338E+03  0.00000000000E+00 0. -1.
         21   -1    0    0  502  503 -0.00000000000E+00 -0.00000000000E+00 -0.46014236627E+02  0.46014236627E+02  0.00000000000E+00 0.  1.
         -6    2    1    2    0  503  0.34265065336E+02 -0.11502626428E+02  0.19654462105E+03  0.26460351517E+03  0.17343248559E+03 0.  0.
        -24    2    3    3    0    0 -0.43464565342E+02  0.11080308383E+02  0.13287104122E+03  0.16150987231E+03  0.80117311384E+02 0.  0.
          6    2    1    2  501    0 -0.34265065336E+02  0.11502626428E+02  0.62786840570E+03  0.65183798484E+03  0.17136982956E+03 0.  0.
         24    2    5    5    0    0 -0.84151597497E+01  0.22385466434E+01  0.13281853462E+03  0.15600484189E+03  0.81369045395E+02 0.  0.
          5    1    5    5  501    0 -0.25849905586E+02  0.92640797846E+01  0.49504987108E+03  0.49583314295E+03  0.47000000000E+01 0. -1.
        -15    1    6    6    0    0 -0.16921977104E+02 -0.17002024295E+02  0.13280689943E+03  0.13496759761E+03  0.17770000000E+01 0.  1.
         16    1    6    6    0    0  0.85068173546E+01  0.19240570938E+02  0.11635194254E-01  0.21037244280E+02  0.00000000000E+00 0. -1.
         -5    1    3    3    0  503  0.77729630678E+02 -0.22582934811E+02  0.63673579832E+02  0.10309364286E+03  0.47000000000E+01 0.  1.
         15    1    4    4    0    0 -0.37264920370E+02  0.31234250260E+02  0.13168972837E+03  0.14039086497E+03  0.17770000000E+01 0. -1.
        -16    1    4    4    0    0 -0.61996449718E+01 -0.20153941877E+02  0.11813128523E+01  0.21119007340E+02  0.00000000000E+00 0.  1.
<mgrwt>
<rscale>  2 0.17665191E+03</rscale>
<asrwt>0</asrwt>
<pdfrwt beam="1">  1       21 0.13391187E+00 0.17715878E+03</pdfrwt>
<pdfrwt beam="2">  1       21 0.70791140E-02 0.17715878E+03</pdfrwt>
<totfact> 0.59970662E+04</totfact>
</mgrwt>
</event>
<event>
12    2  0.4097182E-002  0.2141150E+03  0.7546771E-02  0.1139337E+00
         21   -1    0    0  503  502  0.00000000000E+00  0.00000000000E+00  0.48497331987E+03  0.48497331987E+03  0.00000000000E+00 0.  1.
         21   -1    0    0  501  503 -0.00000000000E+00 -0.00000000000E+00 -0.10365940835E+03  0.10365940835E+03  0.00000000000E+00 0.  1.
          6    2    1    2  501    0  0.10567339382E+02 -0.11193225604E+03  0.95317245546E+02  0.23437283517E+03  0.18222170553E+03 0.  0.
         24    2    3    3    0    0  0.42940683186E+02 -0.11547855027E+03  0.12272999924E+03  0.19154575663E+03  0.80298980848E+02 0.  0.
         -6    2    1    2    0  502 -0.10567339382E+02  0.11193225604E+03  0.28599666597E+03  0.35425989305E+03  0.17625402201E+03 0.  0.
        -24    2    5    5    0    0  0.10070649805E+02  0.78806774830E+01  0.41844583356E+02  0.88017546602E+02  0.76371436339E+02 0.  0.
          5    1    3    3  501    0 -0.32373343804E+02  0.35462942270E+01 -0.27412753691E+02  0.42827078545E+02  0.47000000000E+01 0. -1.
        -15    1    4    4    0    0  0.15923281128E+02 -0.93780598607E+02  0.42594455782E+02  0.10423913348E+03  0.17770000000E+01 0.  1.
         16    1    4    4    0    0  0.27017402058E+02 -0.21697951661E+02  0.80135543455E+02  0.87306623146E+02  0.00000000000E+00 0. -1.
         -5    1    5    5    0  502 -0.20637989188E+02  0.10405157856E+03  0.24415208261E+03  0.26624234645E+03  0.47000000000E+01 0.  1.
         15    1    6    6    0    0 -0.32343426505E+02 -0.36025527379E+01  0.24515427421E+02  0.40782833827E+02  0.17770000000E+01 0. -1.
        -16    1    6    6    0    0  0.42414076310E+02  0.11483230221E+02  0.17329155936E+02  0.47234712775E+02  0.00000000000E+00 0.  1.
<mgrwt>
<rscale>  2 0.21283987E+03</rscale>
<asrwt>0</asrwt>
<pdfrwt beam="1">  1       21 0.74611279E-01 0.21411504E+03</pdfrwt>
<pdfrwt beam="2">  1       21 0.15947602E-01 0.21411504E+03</pdfrwt>
<totfact> 0.55849010E+04</totfact>
</mgrwt>
</event>
<event>
12    2  0.4097182E-002  0.2800564E+03  0.7546771E-02  0.1095665E+00
         21   -1    0    0  501  502  0.00000000000E+00  0.00000000000E+00  0.44618488887E+03  0.44618488887E+03  0.00000000000E+00 0.  1.
         21   -1    0    0  502  503 -0.00000000000E+00 -0.00000000000E+00 -0.27529120509E+03  0.27529120509E+03  0.00000000000E+00 0.  1.
         -6    2    1    2    0  503  0.20570546955E+03  0.76477072201E+02 -0.13146591819E+03  0.30937817214E+03  0.17397724845E+03 0.  0.
        -24    2    3    3    0    0  0.44548166994E+02 -0.10337537908E+02 -0.69154363513E+02  0.11595306379E+03  0.81064068099E+02 0.  0.
          6    2    1    2  501    0 -0.20570546955E+03 -0.76477072201E+02  0.30235960197E+03  0.41209792182E+03  0.17389619171E+03 0.  0.
         24    2    5    5    0    0 -0.12279814976E+03 -0.11681892088E+03  0.20950068630E+03  0.28115535178E+03  0.80198182125E+02 0.  0.
          5    1    5    5  501    0 -0.82907319790E+02  0.40341848675E+02  0.92858915678E+02  0.13094257005E+03  0.47000000000E+01 0. -1.
        -15    1    6    6    0    0 -0.84025480090E+02 -0.28003603302E+02  0.79654726420E+02  0.11913234772E+03  0.17770000000E+01 0.  1.
         16    1    6    6    0    0 -0.38772669666E+02 -0.88815317574E+02  0.12984595988E+03  0.16202300406E+03  0.00000000000E+00 0. -1.
         -5    1    3    3    0  503  0.16115730255E+03  0.86814610109E+02 -0.62311554674E+02  0.19342510835E+03  0.47000000000E+01 0.  1.
         15    1    4    4    0    0  0.54509002486E+02  0.16559363746E+02 -0.22685462161E+02  0.61345185647E+02  0.17770000000E+01 0. -1.
        -16    1    4    4    0    0 -0.99608354915E+01 -0.26896901654E+02 -0.46468901352E+02  0.54607878142E+02  0.00000000000E+00 0.  1.
<mgrwt>
<rscale>  2 0.28004377E+03</rscale>
<asrwt>0</asrwt>
<pdfrwt beam="1">  1       21 0.68643829E-01 0.28005636E+03</pdfrwt>
<pdfrwt beam="2">  1       21 0.42352493E-01 0.28005636E+03</pdfrwt>
<totfact> 0.98568247E+03</totfact>
</mgrwt>
</event>
<event>
12    2  0.4097182E-002  0.1760780E+03  0.7546771E-02  0.1171776E+00
         21   -1    0    0  501  502  0.00000000000E+00  0.00000000000E+00  0.24868118317E+03  0.24868118317E+03  0.00000000000E+00 0. -1.
         21   -1    0    0  502  503 -0.00000000000E+00 -0.00000000000E+00 -0.24363782652E+03  0.24363782652E+03  0.00000000000E+00 0. -1.
         -6    2    1    2    0  503  0.26166959841E+02 -0.16696665274E+02 -0.16973774638E+03  0.24456973616E+03  0.17332041103E+03 0.  0.
        -24    2    3    3    0    0  0.42831946016E+02 -0.62427080670E+02 -0.59779798019E+02  0.12422924811E+03  0.78278770007E+02 0.  0.
          6    2    1    2  501    0 -0.26166959841E+02  0.16696665274E+02  0.17478110303E+03  0.24774927352E+03  0.17282297340E+03 0.  0.
         24    2    5    5    0    0 -0.21907955674E+02  0.44693003495E+02  0.28969244223E+02  0.99138633793E+02  0.80695901484E+02 0.  0.
          5    1    5    5  501    0 -0.42590041674E+01 -0.27996338221E+02  0.14581185881E+03  0.14861063973E+03  0.47000000000E+01 0. -1.
        -15    1    6    6    0    0 -0.29823006556E+02 -0.13802057016E+02 -0.10272981360E+01  0.32926001402E+02  0.17770000000E+01 0.  1.
         16    1    6    6    0    0  0.79150508818E+01  0.58495060510E+02  0.29996542359E+02  0.66212632390E+02  0.00000000000E+00 0. -1.
         -5    1    3    3    0  503 -0.16664986175E+02  0.45730415397E+02 -0.10995794837E+03  0.12034048806E+03  0.47000000000E+01 0.  1.
         15    1    4    4    0    0  0.37463765412E+02 -0.21185179223E+02 -0.69269411037E+02  0.81570549661E+02  0.17770000000E+01 0. -1.
        -16    1    4    4    0    0  0.53681806040E+01 -0.41241901448E+02  0.94896130178E+01  0.42658698448E+02  0.00000000000E+00 0.  1.
<mgrwt>
<rscale>  2 0.17595544E+03</rscale>
<asrwt>0</asrwt>
<pdfrwt beam="1">  1       21 0.38258644E-01 0.17607798E+03</pdfrwt>
<pdfrwt beam="2">  1       21 0.37482743E-01 0.17607798E+03</pdfrwt>
<totfact> 0.45591770E+04</totfact>
</mgrwt>
</event>
<event>
12    2  0.4097182E-002  0.1752538E+03  0.7546771E-02  0.1172778E+00
         21   -1    0    0  501  502  0.00000000000E+00  0.00000000000E+00  0.12310331450E+03  0.12310331450E+03  0.00000000000E+00 0. -1.
         21   -1    0    0  502  503 -0.00000000000E+00 -0.00000000000E+00 -0.25388188403E+03  0.25388188403E+03  0.00000000000E+00 0. -1.
         -6    2    1    2    0  503  0.16400452884E+02 -0.18361734482E+02 -0.36424632326E+02  0.17899898160E+03  0.17351585929E+03 0.  0.
        -24    2    3    3    0    0  0.74273423799E+02 -0.35149223584E+02 -0.26189477208E+02  0.11769686945E+03  0.80091541135E+02 0.  0.
          6    2    1    2  501    0 -0.16400452884E+02  0.18361734482E+02 -0.94353937200E+02  0.19798621693E+03  0.17230713415E+03 0.  0.
         24    2    5    5    0    0 -0.11644936758E+02 -0.42360884957E+02 -0.86558860304E+01  0.92743177160E+02  0.81217753111E+02 0.  0.
          5    1    5    5  501    0 -0.47555161261E+01  0.60722619439E+02 -0.85698051169E+02  0.10524303977E+03  0.47000000000E+01 0. -1.
        -15    1    6    6    0    0  0.23517103050E+01 -0.65287400014E+02 -0.83056386514E+01  0.65879560596E+02  0.17770000000E+01 0.  1.
         16    1    6    6    0    0 -0.13996647063E+02  0.22926515057E+02 -0.35024737902E+00  0.26863616564E+02  0.00000000000E+00 0. -1.
         -5    1    3    3    0  503 -0.57872970915E+02  0.16787489102E+02 -0.10235155118E+02  0.61302112143E+02  0.47000000000E+01 0.  1.
         15    1    4    4    0    0  0.15284985088E+02 -0.18288423753E+02  0.27312950119E+02  0.36293968999E+02  0.17770000000E+01 0. -1.
        -16    1    4    4    0    0  0.58988438711E+02 -0.16860799831E+02 -0.53502427327E+02  0.81402900454E+02  0.00000000000E+00 0.  1.
<mgrwt>
<rscale>  2 0.17495383E+03</rscale>
<asrwt>0</asrwt>
<pdfrwt beam="1">  1       21 0.18938972E-01 0.17525376E+03</pdfrwt>
<pdfrwt beam="2">  1       21 0.39058751E-01 0.17525376E+03</pdfrwt>
<totfact> 0.16236161E+05</totfact>
</mgrwt>
</event>
<event>
12    2  0.4097182E-002  0.1816348E+03  0.7546771E-02  0.1166770E+00
         21   -1    0    0  501  502  0.00000000000E+00  0.00000000000E+00  0.59084970281E+02  0.59084970281E+02  0.00000000000E+00 0.  1.
         21   -1    0    0  502  503 -0.00000000000E+00 -0.00000000000E+00 -0.84270268572E+03  0.84270268572E+03  0.00000000000E+00 0.  1.
         -6    2    1    2    0  503  0.19582979318E+02 -0.51478913209E+02 -0.65845382448E+03  0.68304657455E+03  0.17308267521E+03 0.  0.
        -24    2    3    3    0    0 -0.49128094726E+02 -0.13470470550E+02 -0.36269780331E+03  0.37700806805E+03  0.89388833626E+02 0.  0.
          6    2    1    2  501    0 -0.19582979318E+02  0.51478913209E+02 -0.12516389097E+03  0.21874108145E+03  0.17072811581E+03 0.  0.
         24    2    5    5    0    0 -0.46819716055E+01 -0.15075927667E+02 -0.61589509259E+01  0.81497310632E+02  0.79716212344E+02 0.  0.
          5    1    5    5  501    0 -0.14901007712E+02  0.66554840876E+02 -0.11900494004E+03  0.13724377082E+03  0.47000000000E+01 0. -1.
        -15    1    6    6    0    0 -0.26130326569E+02  0.17526998995E+02  0.17313309181E+02  0.35956891748E+02  0.17770000000E+01 0.  1.
         16    1    6    6    0    0  0.21448354964E+02 -0.32602926662E+02 -0.23472260107E+02  0.45540418884E+02  0.00000000000E+00 0. -1.
         -5    1    3    3    0  503  0.68711074044E+02 -0.38008442659E+02 -0.29575602116E+03  0.30603850651E+03  0.47000000000E+01 0.  1.
         15    1    4    4    0    0 -0.14800445999E+02  0.29095750233E+02 -0.51201893209E+02  0.60748724106E+02  0.17770000000E+01 0. -1.
        -16    1    4    4    0    0 -0.34327648727E+02 -0.42566220783E+02 -0.31149591010E+03  0.31625934394E+03  0.00000000000E+00 0.  1.
<mgrwt>
<rscale>  2 0.18107157E+03</rscale>
<asrwt>0</asrwt>
<pdfrwt beam="1">  1       21 0.90899954E-02 0.18163475E+03</pdfrwt>
<pdfrwt beam="2">  1       21 0.12964657E+00 0.18163475E+03</pdfrwt>
<totfact> 0.42033591E+04</totfact>
</mgrwt>
</event>
<event>
12    2  0.4097182E-002  0.2822766E+03  0.7546771E-02  0.1094957E+00
         21   -1    0    0  501  502  0.00000000000E+00  0.00000000000E+00  0.20482936778E+03  0.20482936778E+03  0.00000000000E+00 0. -1.
         21   -1    0    0  502  503 -0.00000000000E+00 -0.00000000000E+00 -0.63915312421E+03  0.63915312421E+03  0.00000000000E+00 0.  1.
         -6    2    1    2    0  503  0.19664962916E+03 -0.94775212360E+02  0.48642551683E+02  0.28643702449E+03  0.17895992188E+03 0.  0.
        -24    2    3    3    0    0  0.21694240139E+03 -0.95478981922E+02  0.13535542179E+02  0.24560953360E+03  0.62933223218E+02 0.  0.
          6    2    1    2  501    0 -0.19664962916E+03  0.94775212360E+02 -0.48296630811E+03  0.55754546749E+03  0.17305223497E+03 0.  0.
         24    2    5    5    0    0 -0.70995330560E+02 -0.17395381156E+02 -0.19573930147E+03  0.22453992978E+03  0.82227548172E+02 0.  0.
          5    1    5    5  501    0 -0.12565429860E+03  0.11217059352E+03 -0.28722700664E+03  0.33300553772E+03  0.47000000000E+01 0. -1.
        -15    1    6    6    0    0 -0.55830408451E+02  0.23960882930E+02 -0.78373419475E+02  0.99180184653E+02  0.17770000000E+01 0.  1.
         16    1    6    6    0    0 -0.15164922109E+02 -0.41356264086E+02 -0.11736588199E+03  0.12535974512E+03  0.00000000000E+00 0. -1.
         -5    1    3    3    0  503 -0.20292772228E+02  0.70376956193E+00  0.35107009504E+02  0.40827490893E+02  0.47000000000E+01 0.  1.
         15    1    4    4    0    0  0.10335977822E+03 -0.79250398995E+02  0.17455079338E+01  0.13026923667E+03  0.17770000000E+01 0. -1.
        -16    1    4    4    0    0  0.11358262317E+03 -0.16228582927E+02  0.11790034245E+02  0.11534029694E+03  0.00000000000E+00 0.  1.
<mgrwt>
<rscale>  2 0.28134500E+03</rscale>
<asrwt>0</asrwt>
<pdfrwt beam="1">  1       21 0.31512211E-01 0.28227659E+03</pdfrwt>
<pdfrwt beam="2">  1       21 0.98331248E-01 0.28227659E+03</pdfrwt>
<totfact> 0.78216487E+03</totfact>
</mgrwt>
</event>
<event>
12    2  0.4097182E-002  0.1745127E+03  0.7546771E-02  0.1173236E+00
         21   -1    0    0  503  502  0.00000000000E+00  0.00000000000E+00  0.25885484829E+03  0.25885484829E+03  0.00000000000E+00 0. -1.
         21   -1    0    0  501  503 -0.00000000000E+00 -0.00000000000E+00 -0.28585664111E+03  0.28585664111E+03  0.00000000000E+00 0. -1.
          6    2    1    2  501    0 -0.19875210286E+02 -0.10184112919E+02 -0.22244360747E+03  0.28269590046E+03  0.17302333221E+03 0.  0.
         24    2    3    3    0    0  0.29641008621E+02  0.16530639359E+02 -0.48433267673E+02  0.99755412098E+02  0.80333737593E+02 0.  0.
         -6    2    1    2    0  502  0.19875210286E+02  0.10184112919E+02  0.19544181465E+03  0.26201558894E+03  0.17307780272E+03 0.  0.
        -24    2    5    5    0    0 -0.30052240691E+02  0.28616436774E+02  0.18442891340E+03  0.20746400860E+03  0.85470773615E+02 0.  0.
          5    1    3    3  501    0 -0.49516218907E+02 -0.26714752278E+02 -0.17401033980E+03  0.18294048836E+03  0.47000000000E+01 0. -1.
        -15    1    4    4    0    0 -0.19943512374E+02  0.24255853932E+02 -0.22120264798E+01  0.31530000411E+02  0.17770000000E+01 0.  1.
         16    1    4    4    0    0  0.49584520995E+02 -0.77252145724E+01 -0.46221241193E+02  0.68225411688E+02  0.00000000000E+00 0. -1.
         -5    1    5    5    0  502  0.49927450976E+02 -0.18432323855E+02  0.11012901252E+02  0.54551580341E+02  0.47000000000E+01 0.  1.
         15    1    6    6    0    0 -0.40969036192E+02 -0.17863675822E+02  0.65564058996E+02  0.79368610933E+02  0.17770000000E+01 0. -1.
        -16    1    6    6    0    0  0.10916795502E+02  0.46480112596E+02  0.11886485440E+03  0.12809539766E+03  0.00000000000E+00 0.  1.
<mgrwt>
<rscale>  2 0.17449915E+03</rscale>
<asrwt>0</asrwt>
<pdfrwt beam="1">  1       21 0.39823823E-01 0.17451265E+03</pdfrwt>
<pdfrwt beam="2">  1       21 0.43977945E-01 0.17451265E+03</pdfrwt>
<totfact> 0.30487550E+04</totfact>
</mgrwt>
</event>
<event>
12    2  0.4097182E-002  0.3895125E+03  0.7546771E-02  0.1047867E+00
         21   -1    0    0  501  502  0.00000000000E+00  0.00000000000E+00  0.13510366903E+03  0.13510366903E+03  0.00000000000E+00 0.  1.
         21   -1    0    0  502  503 -0.00000000000E+00 -0.00000000000E+00 -0.11121946139E+04  0.11121946139E+04  0.00000000000E+00 0. -1.
         -6    2    1    2    0  503 -0.31843424595E+03  0.14494156884E+03 -0.51075250766E+03  0.63968693543E+03  0.16100566422E+03 0.  0.
        -24    2    3    3    0    0 -0.29296750964E+03  0.11578317545E+03 -0.50465958555E+03  0.60021567673E+03  0.79635770164E+02 0.  0.
          6    2    1    2  501    0  0.31843424595E+03 -0.14494156884E+03 -0.46633843724E+03  0.60761134752E+03  0.17120626222E+03 0.  0.
         24    2    5    5    0    0  0.93478133817E+02 -0.99434119280E+02 -0.16903678074E+03  0.23199645790E+03  0.81385610867E+02 0.  0.
          5    1    5    5  501    0  0.22495611213E+03 -0.45507449557E+02 -0.29730165650E+03  0.37561488962E+03  0.47000000000E+01 0. -1.
        -15    1    6    6    0    0  0.92489759359E+02 -0.69497105157E+02 -0.87298382787E+02  0.14494263892E+03  0.17770000000E+01 0.  1.
         16    1    6    6    0    0  0.98837445777E+00 -0.29937014123E+02 -0.81738397951E+02  0.87053818976E+02  0.00000000000E+00 0. -1.
         -5    1    3    3    0  503 -0.25466736306E+02  0.29158393385E+02 -0.60929221069E+01  0.39471258692E+02  0.47000000000E+01 0.  1.
         15    1    4    4    0    0 -0.15093696496E+02  0.42060045097E+01 -0.74158052855E+02  0.75816124143E+02  0.17770000000E+01 0. -1.
        -16    1    4    4    0    0 -0.27787381314E+03  0.11157717094E+03 -0.43050153269E+03  0.52439955259E+03  0.00000000000E+00 0.  1.
<mgrwt>
<rscale>  2 0.38841425E+03</rscale>
<asrwt>0</asrwt>
<pdfrwt beam="1">  1       21 0.20785180E-01 0.38951253E+03</pdfrwt>
<pdfrwt beam="2">  1       21 0.17110686E+00 0.38951253E+03</pdfrwt>
<totfact> 0.39812251E+03</totfact>
</mgrwt>
</event>
<event>
12    2  0.4097182E-002  0.1777098E+03  0.7546771E-02  0.1171062E+00
         21   -1    0    0  503  502  0.00000000000E+00  0.00000000000E+00  0.69984309503E+02  0.69984309503E+02  0.00000000000E+00 0. -1.
         21   -1    0    0  501  503 -0.00000000000E+00 -0.00000000000E+00 -0.44269155105E+03  0.44269155105E+03  0.00000000000E+00 0. -1.
          6    2    1    2  501    0  0.32068705351E+02 -0.20648400156E+02 -0.17213969424E+03  0.24741233099E+03  0.17356851356E+03 0.  0.
         24    2    3    3    0    0 -0.40868516692E+02 -0.22740772912E+02 -0.93112992730E+02  0.13974838189E+03  0.93124660629E+02 0.  0.
         -6    2    1    2    0  502 -0.32068705351E+02  0.20648400156E+02 -0.20056754730E+03  0.26526352956E+03  0.16935950163E+03 0.  0.
        -24    2    5    5    0    0 -0.80727278257E+02  0.56047396890E+01 -0.17355359580E+03  0.20742053506E+03  0.79712741684E+02 0.  0.
          5    1    3    3  501    0  0.72937222044E+02  0.20923727565E+01 -0.79026701513E+02  0.10766394910E+03  0.47000000000E+01 0. -1.
        -15    1    4    4    0    0 -0.25052216478E+02 -0.47270724891E+02 -0.96513871516E+02  0.11036403448E+03  0.17770000000E+01 0.  1.
         16    1    4    4    0    0 -0.15816300214E+02  0.24529951978E+02  0.34008787854E+01  0.29384347416E+02  0.00000000000E+00 0. -1.
         -5    1    5    5    0  502  0.48658572906E+02  0.15043660467E+02 -0.27013951504E+02  0.57842994506E+02  0.47000000000E+01 0.  1.
         15    1    6    6    0    0 -0.60938728877E+02 -0.30872888113E+02 -0.13229266440E+03  0.14889986797E+03  0.17770000000E+01 0. -1.
        -16    1    6    6    0    0 -0.19788549381E+02  0.36477627802E+02 -0.41260931397E+02  0.58520667088E+02  0.00000000000E+00 0.  1.
<mgrwt>
<rscale>  2 0.17667367E+03</rscale>
<asrwt>0</asrwt>
<pdfrwt beam="1">  1       21 0.10766817E-01 0.17770984E+03</pdfrwt>
<pdfrwt beam="2">  1       21 0.68106393E-01 0.17770984E+03</pdfrwt>
<totfact> 0.14083762E+05</totfact>
</mgrwt>
</event>
<event>
12    2  0.4097182E-002  0.1843488E+03  0.7546771E-02  0.1164253E+00
         21   -1    0    0  503  502  0.00000000000E+00  0.00000000000E+00  0.34490191103E+02  0.34490191103E+02  0.00000000000E+00 0.  1.
         21   -1    0    0  501  503 -0.00000000000E+00 -0.00000000000E+00 -0.10939626151E+04  0.10939626151E+04  0.00000000000E+00 0.  1.
          6    2    1    2  501    0 -0.55518131929E+02  0.95558348075E+01 -0.72139286937E+03  0.74457514622E+03  0.17553033767E+03 0.  0.
         24    2    3    3    0    0 -0.91899253170E+02  0.29757273996E+02 -0.36930639160E+03  0.39000687077E+03  0.79919836606E+02 0.  0.
         -6    2    1    2    0  502  0.55518131929E+02 -0.95558348075E+01 -0.33807955462E+03  0.38387765998E+03  0.17288925827E+03 0.  0.
        -24    2    5    5    0    0 -0.30209167793E+02  0.80507182503E+01 -0.11042392298E+03  0.13993435253E+03  0.80067299002E+02 0.  0.
          5    1    3    3  501    0  0.36381121241E+02 -0.20201439189E+02 -0.35208647777E+03  0.35456827545E+03  0.47000000000E+01 0. -1.
        -15    1    4    4    0    0 -0.35975845383E+02  0.51229110478E+02 -0.22985662643E+03  0.23823498831E+03  0.17770000000E+01 0.  1.
         16    1    4    4    0    0 -0.55923407786E+02 -0.21471836482E+02 -0.13944976517E+03  0.15177188246E+03  0.00000000000E+00 0. -1.
         -5    1    5    5    0  502  0.85727299721E+02 -0.17606553058E+02 -0.22765563164E+03  0.24394330744E+03  0.47000000000E+01 0.  1.
         15    1    6    6    0    0 -0.27962072152E+02 -0.27824183676E+02 -0.90724058632E+02  0.98944808959E+02  0.17770000000E+01 0. -1.
        -16    1    6    6    0    0 -0.22470956404E+01  0.35874901927E+02 -0.19699864349E+02  0.40989543574E+02  0.00000000000E+00 0.  1.
<mgrwt>
<rscale>  2 0.18371732E+03</rscale>
<asrwt>0</asrwt>
<pdfrwt beam="1">  1       21 0.53061830E-02 0.18434879E+03</pdfrwt>
<pdfrwt beam="2">  1       21 0.16830195E+00 0.18434879E+03</pdfrwt>
<totfact> 0.53596367E+04</totfact>
</mgrwt>
</event>
<event>
12    2  0.4097182E-002  0.1984491E+03  0.7546771E-02  0.1152047E+00
         21   -1    0    0  501  502  0.00000000000E+00  0.00000000000E+00  0.79054949426E+02  0.79054949426E+02  0.00000000000E+00 0.  1.
         21   -1    0    0  502  503 -0.00000000000E+00 -0.00000000000E+00 -0.79252021459E+03  0.79252021459E+03  0.00000000000E+00 0.  1.
         -6    2    1    2    0  503  0.58665774651E+02 -0.72514564733E+02 -0.62487144825E+03  0.65424840695E+03  0.16993120947E+03 0.  0.
        -24    2    3    3    0    0  0.90793777303E+02 -0.82136555440E+02 -0.57602435024E+03  0.59481003346E+03  0.83695878634E+02 0.  0.
          6    2    1    2  501    0 -0.58665774651E+02  0.72514564733E+02 -0.88593816922E+02  0.21732675707E+03  0.17516283775E+03 0.  0.
         24    2    5    5    0    0 -0.95422735201E+02  0.65302567425E+02 -0.25937763877E+02  0.14417651416E+03  0.82122931851E+02 0.  0.
          5    1    5    5  501    0  0.36756960550E+02  0.72119973086E+01 -0.62656053045E+02  0.73150242906E+02  0.47000000000E+01 0. -1.
        -15    1    6    6    0    0 -0.34518704616E+02 -0.55812434161E+01  0.19699643691E+02  0.40173684632E+02  0.17770000000E+01 0.  1.
         16    1    6    6    0    0 -0.60904030585E+02  0.70883810841E+02 -0.45637407567E+02  0.10400282953E+03  0.00000000000E+00 0. -1.
         -5    1    3    3    0  503 -0.32128002652E+02  0.96219907061E+01 -0.48847098011E+02  0.59438373494E+02  0.47000000000E+01 0.  1.
         15    1    4    4    0    0  0.29732230895E+02 -0.20833063184E+02 -0.50560096348E+02  0.62269600507E+02  0.17770000000E+01 0. -1.
        -16    1    4    4    0    0  0.61061546407E+02 -0.61303492256E+02 -0.52546425389E+03  0.53254043295E+03  0.00000000000E+00 0.  1.
<mgrwt>
<rscale>  2 0.19728844E+03</rscale>
<asrwt>0</asrwt>
<pdfrwt beam="1">  1       21 0.12162300E-01 0.19844912E+03</pdfrwt>
<pdfrwt beam="2">  1       21 0.12192619E+00 0.19844912E+03</pdfrwt>
<totfact> 0.28979298E+04</totfact>
</mgrwt>
</event>
<event>
12    2  0.4097182E-002  0.2228558E+03  0.7546771E-02  0.1132056E+00
         21   -1    0    0  503  502  0.00000000000E+00  0.00000000000E+00  0.70060465636E+03  0.70060465636E+03  0.00000000000E+00 0.  1.
         21   -1    0    0  501  503 -0.00000000000E+00 -0.00000000000E+00 -0.90142804621E+03  0.90142804621E+03  0.00000000000E+00 0.  1.
          6    2    1    2  501    0  0.71523643482E+02  0.12103289096E+03 -0.86954111791E+03  0.89764495273E+03  0.17291649183E+03 0.  0.
         24    2    3    3    0    0 -0.14981303450E+01  0.92642215094E+02 -0.70029281918E+03  0.71108320276E+03  0.81513583122E+02 0.  0.
         -6    2    1    2    0  502 -0.71523643482E+02 -0.12103289096E+03  0.66871772806E+03  0.70438774985E+03  0.17092135629E+03 0.  0.
        -24    2    5    5    0    0 -0.10893877160E+03 -0.93523210926E+02  0.41517190438E+03  0.44658113819E+03  0.80329047418E+02 0.  0.
          5    1    3    3  501    0  0.73021773827E+02  0.28390675867E+02 -0.16924829873E+03  0.18656174997E+03  0.47000000000E+01 0. -1.
        -15    1    4    4    0    0  0.33416648099E+02  0.79054505804E+02 -0.50020697749E+03  0.50751991618E+03  0.17770000000E+01 0.  1.
         16    1    4    4    0    0 -0.34914778444E+02  0.13587709291E+02 -0.20008584169E+03  0.20356328658E+03  0.00000000000E+00 0. -1.
         -5    1    5    5    0  502  0.37415128117E+02 -0.27509680035E+02  0.25354582368E+03  0.25780661165E+03  0.47000000000E+01 0.  1.
         15    1    6    6    0    0 -0.25558014960E+02 -0.39289157257E+02  0.51974383163E+02  0.70009601062E+02  0.17770000000E+01 0. -1.
        -16    1    6    6    0    0 -0.83380756638E+02 -0.54234053669E+02  0.36319752122E+03  0.37657153713E+03  0.00000000000E+00 0.  1.
<mgrwt>
<rscale>  2 0.22246867E+03</rscale>
<asrwt>0</asrwt>
<pdfrwt beam="1">  1       21 0.10778533E+00 0.22285580E+03</pdfrwt>
<pdfrwt beam="2">  1       21 0.13868124E+00 0.22285580E+03</pdfrwt>
<totfact> 0.24280220E+02</totfact>
</mgrwt>
</event>
<event>
12    2  0.4097182E-002  0.1846040E+03  0.7546771E-02  0.1163449E+00
         21   -1    0    0  501  502  0.00000000000E+00  0.00000000000E+00  0.31927884784E+03  0.31927884784E+03  0.00000000000E+00 0. -1.
         21   -1    0    0  502  503 -0.00000000000E+00 -0.00000000000E+00 -0.13102902497E+03  0.13102902497E+03  0.00000000000E+00 0. -1.
         -6    2    1    2    0  503  0.63931433691E+02 -0.35567881421E+01  0.19118797417E+03  0.26568052830E+03  0.17301278189E+03 0.  0.
        -24    2    3    3    0    0  0.81030076104E+02  0.18254445084E+02  0.20351911555E+03  0.23498459184E+03  0.83057991840E+02 0.  0.
          6    2    1    2  501    0 -0.63931433691E+02  0.35567881421E+01 -0.29381512919E+01  0.18462734451E+03  0.17314371098E+03 0.  0.
         24    2    5    5    0    0 -0.59013634585E+02 -0.61675491104E+02  0.22019743001E+01  0.11884021890E+03  0.82653939220E+02 0.  0.
          5    1    5    5  501    0 -0.49177991054E+01  0.65232279246E+02 -0.51401255920E+01  0.65787125601E+02  0.47000000000E+01 0. -1.
        -15    1    6    6    0    0 -0.50899370361E+02 -0.57751661874E+02  0.35176942527E+02  0.84655628088E+02  0.17770000000E+01 0.  1.
         16    1    6    6    0    0 -0.81142642240E+01 -0.39238292297E+01 -0.32974968227E+02  0.34184590817E+02  0.00000000000E+00 0. -1.
         -5    1    3    3    0  503 -0.17098642414E+02 -0.21811233226E+02 -0.12331141388E+02  0.30695936460E+02  0.47000000000E+01 0.  1.
         15    1    4    4    0    0 -0.34168647699E+01  0.93351981304E+01  0.10258604921E+03  0.10308189031E+03  0.17770000000E+01 0. -1.
        -16    1    4    4    0    0  0.84446940874E+02  0.89192469535E+01  0.10093306635E+03  0.13190270153E+03  0.00000000000E+00 0.  1.
<mgrwt>
<rscale>  2 0.18457326E+03</rscale>
<asrwt>0</asrwt>
<pdfrwt beam="1">  1       21 0.49119823E-01 0.18460396E+03</pdfrwt>
<pdfrwt beam="2">  1       21 0.20158312E-01 0.18460396E+03</pdfrwt>
<totfact> 0.90218351E+04</totfact>
</mgrwt>
</event>
<event>
12    2  0.4097182E-002  0.2712983E+03  0.7546771E-02  0.1100625E+00
         21   -1    0    0  501  502  0.00000000000E+00  0.00000000000E+00  0.17763802256E+03  0.17763802256E+03  0.00000000000E+00 0. -1.
         21   -1    0    0  502  503 -0.00000000000E+00 -0.00000000000E+00 -0.62097051146E+03  0.62097051146E+03  0.00000000000E+00 0.  1.
         -6    2    1    2    0  503 -0.21017741325E+03 -0.94014573236E+01 -0.45268305240E+03  0.52775440014E+03  0.17128872847E+03 0.  0.
        -24    2    3    3    0    0 -0.10608372753E+03 -0.66894224545E+02 -0.29115826805E+03  0.32712225006E+03  0.80667433974E+02 0.  0.
          6    2    1    2  501    0  0.21017741325E+03  0.94014573236E+01  0.93505634927E+01  0.27085413387E+03  0.17032790834E+03 0.  0.
         24    2    5    5    0    0  0.18540663038E+03 -0.36042366098E+02 -0.27236427033E+02  0.20729761850E+03  0.80967950038E+02 0.  0.
          5    1    5    5  501    0  0.24770782865E+02  0.45443823422E+02  0.36586990525E+02  0.63556515375E+02  0.47000000000E+01 0. -1.
        -15    1    6    6    0    0  0.10443994485E+03  0.17656528953E+02 -0.30000547815E+02  0.11010288685E+03  0.17770000000E+01 0.  1.
         16    1    6    6    0    0  0.80966685533E+02 -0.53698895051E+02  0.27641207827E+01  0.97194731645E+02  0.00000000000E+00 0. -1.
         -5    1    3    3    0  503 -0.10409368572E+03  0.57492767222E+02 -0.16152478435E+03  0.20063215009E+03  0.47000000000E+01 0.  1.
         15    1    4    4    0    0 -0.45044526095E+02 -0.31656859647E+01 -0.38063628813E+02  0.59084925879E+02  0.17770000000E+01 0. -1.
        -16    1    4    4    0    0 -0.61039201434E+02 -0.63728538581E+02 -0.25309463924E+03  0.26803732418E+03  0.00000000000E+00 0.  1.
<mgrwt>
<rscale>  2 0.27114676E+03</rscale>
<asrwt>0</asrwt>
<pdfrwt beam="1">  1       21 0.27328927E-01 0.27129829E+03</pdfrwt>
<pdfrwt beam="2">  1       21 0.95533924E-01 0.27129829E+03</pdfrwt>
<totfact> 0.11138452E+04</totfact>
</mgrwt>
</event>
<event>
12    2  0.4097182E-002  0.1781255E+03  0.7546771E-02  0.1169814E+00
         21   -1    0    0  501  502  0.00000000000E+00  0.00000000000E+00  0.13399578129E+03  0.13399578129E+03  0.00000000000E+00 0. -1.
         21   -1    0    0  502  503 -0.00000000000E+00 -0.00000000000E+00 -0.41083208133E+03  0.41083208133E+03  0.00000000000E+00 0. -1.
         -6    2    1    2    0  503  0.29874840246E+02  0.29015719696E+02 -0.31639734419E+03  0.36309221419E+03  0.17318850574E+03 0.  0.
        -24    2    3    3    0    0 -0.20809486808E+02 -0.35604009038E+02 -0.11798293803E+03  0.14830167220E+03  0.79829393785E+02 0.  0.
          6    2    1    2  501    0 -0.29874840246E+02 -0.29015719696E+02  0.39561044155E+02  0.18173564843E+03  0.17241911619E+03 0.  0.
         24    2    5    5    0    0 -0.22415174485E+01 -0.30076200717E+02 -0.40720681734E+02  0.96694654434E+02  0.82353385026E+02 0.  0.
          5    1    5    5  501    0 -0.27633322797E+02  0.10604810209E+01  0.80281725889E+02  0.85040994000E+02  0.47000000000E+01 0. -1.
        -15    1    6    6    0    0 -0.69927139649E+01  0.22575225523E+02  0.77872708144E+01  0.24946706631E+02  0.17770000000E+01 0.  1.
         16    1    6    6    0    0  0.47511965164E+01 -0.52651426240E+02 -0.48507952549E+02  0.71747947803E+02  0.00000000000E+00 0. -1.
         -5    1    3    3    0  503  0.50684327053E+02  0.64619728734E+02 -0.19841440617E+03  0.21479054198E+03  0.47000000000E+01 0.  1.
         15    1    4    4    0    0 -0.28656666669E+02  0.19030549157E+02 -0.40459520184E+02  0.53136586721E+02  0.17770000000E+01 0. -1.
        -16    1    4    4    0    0  0.78471798617E+01 -0.54634558194E+02 -0.77523417842E+02  0.95165085482E+02  0.00000000000E+00 0.  1.
<mgrwt>
<rscale>  2 0.17793816E+03</rscale>
<asrwt>0</asrwt>
<pdfrwt beam="1">  1       21 0.20614736E-01 0.17812545E+03</pdfrwt>
<pdfrwt beam="2">  1       21 0.63204935E-01 0.17812545E+03</pdfrwt>
<totfact> 0.50869757E+04</totfact>
</mgrwt>
</event>
<event>
12    2  0.4097182E-002  0.2012915E+03  0.7546771E-02  0.1148828E+00
         21   -1    0    0  501  502  0.00000000000E+00  0.00000000000E+00  0.23522682976E+03  0.23522682976E+03  0.00000000000E+00 0. -1.
         21   -1    0    0  502  503 -0.00000000000E+00 -0.00000000000E+00 -0.25534184530E+03  0.25534184530E+03  0.00000000000E+00 0.  1.
         -6    2    1    2    0  503 -0.79039783494E+02 -0.64765272244E+02 -0.15055942272E+03  0.25070622784E+03  0.17246346003E+03 0.  0.
        -24    2    3    3    0    0  0.23544232663E+01  0.75047912397E+01 -0.28270386218E+02  0.86923819085E+02  0.81820965448E+02 0.  0.
          6    2    1    2  501    0  0.79039783494E+02  0.64765272244E+02  0.13044440718E+03  0.23986244722E+03  0.17342555278E+03 0.  0.
         24    2    5    5    0    0  0.47828623942E+02 -0.18951108613E+02  0.19757199238E+02  0.97537758897E+02  0.80476988656E+02 0.  0.
          5    1    5    5  501    0  0.31211159551E+02  0.83716380857E+02  0.11068720794E+03  0.14232468832E+03  0.47000000000E+01 0. -1.
        -15    1    6    6    0    0  0.24624146397E+02 -0.24629282429E+02 -0.27615260742E+02  0.44482698812E+02  0.17770000000E+01 0.  1.
         16    1    6    6    0    0  0.23204477545E+02  0.56781738160E+01  0.47372459980E+02  0.53055060085E+02  0.00000000000E+00 0. -1.
         -5    1    3    3    0  503 -0.81394206760E+02 -0.72270063484E+02 -0.12228903650E+03  0.16378240876E+03  0.47000000000E+01 0.  1.
         15    1    4    4    0    0  0.10960106347E+02  0.43649171416E+02 -0.15054050559E+02  0.47488485590E+02  0.17770000000E+01 0. -1.
        -16    1    4    4    0    0 -0.86056830805E+01 -0.36144380176E+02 -0.13216335659E+02  0.39435333495E+02  0.00000000000E+00 0.  1.
<mgrwt>
<rscale>  2 0.20108406E+03</rscale>
<asrwt>0</asrwt>
<pdfrwt beam="1">  1       21 0.36188743E-01 0.20129146E+03</pdfrwt>
<pdfrwt beam="2">  1       21 0.39283360E-01 0.20129146E+03</pdfrwt>
<totfact> 0.45805043E+04</totfact>
</mgrwt>
</event>
<event>
12    2  0.4097182E-002  0.1933135E+03  0.7546771E-02  0.1155506E+00
         21   -1    0    0  503  502  0.00000000000E+00  0.00000000000E+00  0.21141305404E+03  0.21141305404E+03  0.00000000000E+00 0. -1.
         21   -1    0    0  501  503 -0.00000000000E+00 -0.00000000000E+00 -0.18142741333E+03  0.18142741333E+03  0.00000000000E+00 0.  1.
          6    2    1    2  501    0 -0.83739655303E+02 -0.13869252619E+02 -0.16500239834E+02  0.19401628996E+03  0.17368182639E+03 0.  0.
         24    2    3    3    0    0  0.14155539967E+01 -0.50794977945E+02 -0.29777899033E+02  0.10013708515E+03  0.80985054018E+02 0.  0.
         -6    2    1    2    0  502  0.83739655303E+02  0.13869252619E+02  0.46485880544E+02  0.19882417740E+03  0.17368198062E+03 0.  0.
        -24    2    5    5    0    0  0.82403827604E+02 -0.10860997239E+02 -0.28181365871E+02  0.12001645328E+03  0.81862125624E+02 0.  0.
          5    1    3    3  501    0 -0.85155209300E+02  0.36925725326E+02  0.13277659199E+02  0.93879204809E+02  0.47000000000E+01 0. -1.
        -15    1    4    4    0    0 -0.16349496285E+02 -0.63905685884E+01 -0.46291680644E+02  0.49540113257E+02  0.17770000000E+01 0.  1.
         16    1    4    4    0    0  0.17765050281E+02 -0.44404409356E+02  0.16513781611E+02  0.50596971894E+02  0.00000000000E+00 0. -1.
         -5    1    5    5    0  502  0.13358276995E+01  0.24730249858E+02  0.74667246415E+02  0.78807724119E+02  0.47000000000E+01 0.  1.
         15    1    6    6    0    0 -0.79050912982E+01 -0.21264938384E+02  0.49004505195E+01  0.23277891168E+02  0.17770000000E+01 0. -1.
        -16    1    6    6    0    0  0.90308918902E+02  0.10403941145E+02 -0.33081816390E+02  0.96738562116E+02  0.00000000000E+00 0.  1.
<mgrwt>
<rscale>  2 0.19331348E+03</rscale>
<asrwt>0</asrwt>
<pdfrwt beam="1">  1       21 0.32525085E-01 0.19331352E+03</pdfrwt>
<pdfrwt beam="2">  1       21 0.27911910E-01 0.19331352E+03</pdfrwt>
<totfact> 0.11148580E+05</totfact>
</mgrwt>
</event>
<event>
12    2  0.4097182E-002  0.2034558E+03  0.7546771E-02  0.1146904E+00
         21   -1    0    0  503  502  0.00000000000E+00  0.00000000000E+00  0.83844120026E+02  0.83844120026E+02  0.00000000000E+00 0.  1.
         21   -1    0    0  501  503 -0.00000000000E+00 -0.00000000000E+00 -0.51399538923E+03  0.51399538923E+03  0.00000000000E+00 0. -1.
          6    2    1    2  501    0 -0.57178098420E+02  0.91983729073E+02 -0.27517281444E+03  0.34208070128E+03  0.17195577055E+03 0.  0.
         24    2    3    3    0    0 -0.86838785219E+02  0.10798866704E+03 -0.22993334066E+03  0.28547138783E+03  0.97067220500E+02 0.  0.
         -6    2    1    2    0  502  0.57178098420E+02 -0.91983729073E+02 -0.15497845476E+03  0.25575880798E+03  0.17223212553E+03 0.  0.
        -24    2    5    5    0    0 -0.30635638144E+02 -0.56056463169E+02 -0.11087663909E+03  0.15102542786E+03  0.80213349129E+02 0.  0.
          5    1    3    3  501    0  0.29660686799E+02 -0.16004937966E+02 -0.45239473780E+02  0.56609313444E+02  0.47000000000E+01 0. -1.
        -15    1    4    4    0    0  0.11074673962E+02 -0.10328026999E+02 -0.15783587137E+02  0.21945293276E+02  0.17770000000E+01 0.  1.
         16    1    4    4    0    0 -0.97913459182E+02  0.11831669404E+03 -0.21414975352E+03  0.26352609456E+03  0.00000000000E+00 0. -1.
         -5    1    5    5    0  502  0.87813736564E+02 -0.35927265905E+02 -0.44101815674E+02  0.10473338012E+03  0.47000000000E+01 0.  1.
         15    1    6    6    0    0 -0.23886421391E+02 -0.61811426408E+02 -0.35631617925E+02  0.75259441178E+02  0.17770000000E+01 0. -1.
        -16    1    6    6    0    0 -0.67492167521E+01  0.57549632398E+01 -0.75245021161E+02  0.75765986684E+02  0.00000000000E+00 0.  1.
<mgrwt>
<rscale>  2 0.20339726E+03</rscale>
<asrwt>0</asrwt>
<pdfrwt beam="1">  1       21 0.12899095E-01 0.20345576E+03</pdfrwt>
<pdfrwt beam="2">  1       21 0.79076213E-01 0.20345576E+03</pdfrwt>
<totfact> 0.72424395E+04</totfact>
</mgrwt>
</event>
<event>
12    2  0.4097182E-002  0.2638041E+03  0.7546771E-02  0.1105030E+00
         21   -1    0    0  503  502  0.00000000000E+00  0.00000000000E+00  0.33561856313E+03  0.33561856313E+03  0.00000000000E+00 0.  1.
         21   -1    0    0  501  503 -0.00000000000E+00 -0.00000000000E+00 -0.21680693696E+03  0.21680693696E+03  0.00000000000E+00 0.  1.
          6    2    1    2  501    0 -0.19912810334E+03 -0.73188379274E+01 -0.54830778836E+00  0.26380467297E+03  0.17287867975E+03 0.  0.
         24    2    3    3    0    0 -0.20801523676E+03  0.14726593819E+02  0.28917005026E+02  0.22565658179E+03  0.81224924969E+02 0.  0.
         -6    2    1    2    0  502  0.19912810334E+03  0.73188379274E+01  0.11935993396E+03  0.28862082711E+03  0.17131731110E+03 0.  0.
        -24    2    5    5    0    0  0.43676999678E+02  0.36024674374E+02  0.79929642322E+02  0.12563031029E+03  0.78668733801E+02 0.  0.
          5    1    3    3  501    0  0.88871334244E+01 -0.22045431747E+02 -0.29465312815E+02  0.38148091180E+02  0.47000000000E+01 0. -1.
        -15    1    4    4    0    0 -0.18615276182E+03 -0.81119177802E+01  0.56882441514E+01  0.18642469738E+03  0.17770000000E+01 0.  1.
         16    1    4    4    0    0 -0.21862474941E+02  0.22838511599E+02  0.23228760875E+02  0.39231884411E+02  0.00000000000E+00 0. -1.
         -5    1    5    5    0  502  0.15545110366E+03 -0.28705836447E+02  0.39430291635E+02  0.16299051682E+03  0.47000000000E+01 0.  1.
         15    1    6    6    0    0  0.60390931676E+00 -0.35988526080E+01  0.65137378264E+02  0.65263712909E+02  0.17770000000E+01 0. -1.
        -16    1    6    6    0    0  0.43073090361E+02  0.39623526982E+02  0.14792264058E+02  0.60366597384E+02  0.00000000000E+00 0.  1.
<mgrwt>
<rscale>  2 0.26354859E+03</rscale>
<asrwt>0</asrwt>
<pdfrwt beam="1">  1       21 0.51633625E-01 0.26380410E+03</pdfrwt>
<pdfrwt beam="2">  1       21 0.33354913E-01 0.26380410E+03</pdfrwt>
<totfact> 0.29789048E+04</totfact>
</mgrwt>
</event>
<event>
12    2  0.4097182E-002  0.1878845E+03  0.7546771E-02  0.1161854E+00
         21   -1    0    0  501  502  0.00000000000E+00  0.00000000000E+00  0.20334610441E+03  0.20334610441E+03  0.00000000000E+00 0.  1.
         21   -1    0    0  502  503 -0.00000000000E+00 -0.00000000000E+00 -0.16783159674E+03  0.16783159674E+03  0.00000000000E+00 0.  1.
         -6    2    1    2    0  503 -0.19808746184E+02 -0.70001208782E+02  0.16276293127E+02  0.18858821246E+03  0.17322829014E+03 0.  0.
        -24    2    3    3    0    0 -0.61365846746E+02 -0.16940432733E+02 -0.31230746857E+02  0.10599615830E+03  0.78785027878E+02 0.  0.
          6    2    1    2  501    0  0.19808746184E+02  0.70001208782E+02  0.19238214539E+02  0.18258948869E+03  0.16636182502E+03 0.  0.
         24    2    5    5    0    0  0.16233579257E+01  0.58615492052E+02  0.73029858871E+02  0.12448635718E+03  0.82006595083E+02 0.  0.
          5    1    5    5  501    0  0.18185388258E+02  0.11385716730E+02 -0.53791644333E+02  0.58103131512E+02  0.47000000000E+01 0. -1.
        -15    1    6    6    0    0  0.29720242218E+02  0.58126957404E+02  0.70762425324E+02  0.96293896698E+02  0.17770000000E+01 0.  1.
         16    1    6    6    0    0 -0.28096884292E+02  0.48853464823E+00  0.22674335472E+01  0.28192460480E+02  0.00000000000E+00 0. -1.
         -5    1    3    3    0  503  0.41557100562E+02 -0.53060776049E+02  0.47507039984E+02  0.82592054159E+02  0.47000000000E+01 0.  1.
         15    1    4    4    0    0 -0.57723987676E+02  0.17490876149E+02 -0.37163746480E+02  0.70868126002E+02  0.17770000000E+01 0. -1.
        -16    1    4    4    0    0 -0.36418590702E+01 -0.34431308882E+02  0.59329996231E+01  0.35128032301E+02  0.00000000000E+00 0.  1.
<mgrwt>
<rscale>  2 0.18628641E+03</rscale>
<asrwt>0</asrwt>
<pdfrwt beam="1">  1       21 0.31284016E-01 0.18788453E+03</pdfrwt>
<pdfrwt beam="2">  1       21 0.25820246E-01 0.18788453E+03</pdfrwt>
<totfact> 0.14003513E+05</totfact>
</mgrwt>
</event>
<event>
12    2  0.4097182E-002  0.1814165E+03  0.7546771E-02  0.1166741E+00
         21   -1    0    0  501  502  0.00000000000E+00  0.00000000000E+00  0.47675637129E+02  0.47675637129E+02  0.00000000000E+00 0. -1.
         21   -1    0    0  502  503 -0.00000000000E+00 -0.00000000000E+00 -0.70646287305E+03  0.70646287305E+03  0.00000000000E+00 0. -1.
         -6    2    1    2    0  503  0.50213201392E+02  0.23933070287E+02 -0.39535812792E+03  0.43499426799E+03  0.17267833224E+03 0.  0.
        -24    2    3    3    0    0 -0.37064314827E+02  0.88337148523E+01 -0.24182115195E+03  0.25767802970E+03  0.80428225815E+02 0.  0.
          6    2    1    2  501    0 -0.50213201392E+02 -0.23933070287E+02 -0.26342910800E+03  0.31914424219E+03  0.17135925692E+03 0.  0.
         24    2    5    5    0    0 -0.26466467924E+02 -0.43008920719E+02 -0.27097713627E+03  0.28741321398E+03  0.81409495809E+02 0.  0.
          5    1    5    5  501    0 -0.23746733468E+02  0.19075850432E+02  0.75480282669E+01  0.31731028203E+02  0.47000000000E+01 0. -1.
        -15    1    6    6    0    0  0.23084063504E+02 -0.21575263559E+02 -0.16989318967E+03  0.17281556530E+03  0.17770000000E+01 0.  1.
         16    1    6    6    0    0 -0.49550531428E+02 -0.21433657160E+02 -0.10108394660E+03  0.11459764869E+03  0.00000000000E+00 0. -1.
         -5    1    3    3    0  503  0.87277516219E+02  0.15099355435E+02 -0.15353697597E+03  0.17731623829E+03  0.47000000000E+01 0.  1.
         15    1    4    4    0    0  0.30289859666E+01  0.21650417971E+02 -0.18837170908E+03  0.18964433517E+03  0.17770000000E+01 0. -1.
        -16    1    4    4    0    0 -0.40093300794E+02 -0.12816703119E+02 -0.53449442878E+02  0.68033694529E+02  0.00000000000E+00 0.  1.
<mgrwt>
<rscale>  2 0.18110196E+03</rscale>
<asrwt>0</asrwt>
<pdfrwt beam="1">  1       21 0.73347129E-02 0.18141655E+03</pdfrwt>
<pdfrwt beam="2">  1       21 0.10868660E+00 0.18141655E+03</pdfrwt>
<totfact> 0.94261952E+04</totfact>
</mgrwt>
</event>
<event>
12    2  0.4097182E-002  0.1926343E+03  0.7546771E-02  0.1156382E+00
         21   -1    0    0  501  502  0.00000000000E+00  0.00000000000E+00  0.68217023039E+03  0.68217023039E+03  0.00000000000E+00 0. -1.
         21   -1    0    0  502  503 -0.00000000000E+00 -0.00000000000E+00 -0.55732922706E+02  0.55732922706E+02  0.00000000000E+00 0. -1.
         -6    2    1    2    0  503 -0.27988524469E+02  0.75674026094E+02  0.24807256588E+03  0.31332355075E+03  0.17355614016E+03 0.  0.
        -24    2    3    3    0    0 -0.83504021103E+02  0.49782594389E+02  0.19349073900E+03  0.23114324638E+03  0.80853608582E+02 0.  0.
          6    2    1    2  501    0  0.27988524469E+02 -0.75674026094E+02  0.37836474180E+03  0.42457960234E+03  0.17492296921E+03 0.  0.
         24    2    5    5    0    0 -0.26750122056E+02 -0.60308800011E+01  0.27953261565E+03  0.29177762050E+03  0.79017441551E+02 0.  0.
          5    1    5    5  501    0  0.54738646525E+02 -0.69643146093E+02  0.98832126150E+02  0.13280198184E+03  0.47000000000E+01 0. -1.
        -15    1    6    6    0    0  0.16414397791E+02  0.10712173046E+02  0.18968140546E+03  0.19069970219E+03  0.17770000000E+01 0.  1.
         16    1    6    6    0    0 -0.43164519847E+02 -0.16743053047E+02  0.89851210189E+02  0.10107791832E+03  0.00000000000E+00 0. -1.
         -5    1    3    3    0  503  0.55515496634E+02  0.25891431705E+02  0.54581826879E+02  0.82180304378E+02  0.47000000000E+01 0.  1.
         15    1    4    4    0    0 -0.30953873073E+02  0.43380596963E+02  0.15963411186E+03  0.16830396860E+03  0.17770000000E+01 0. -1.
        -16    1    4    4    0    0 -0.52550148030E+02  0.64019974260E+01  0.33856627147E+02  0.62839277771E+02  0.00000000000E+00 0.  1.
<mgrwt>
<rscale>  2 0.19232344E+03</rscale>
<asrwt>0</asrwt>
<pdfrwt beam="1">  1       21 0.10494926E+00 0.19263427E+03</pdfrwt>
<pdfrwt beam="2">  1       21 0.85742963E-02 0.19263427E+03</pdfrwt>
<totfact> 0.77782882E+04</totfact>
</mgrwt>
</event>
<event>
12    2  0.4097182E-002  0.2583048E+03  0.7546771E-02  0.1108486E+00
         21   -1    0    0  503  502  0.00000000000E+00  0.00000000000E+00  0.16073427534E+03  0.16073427534E+03  0.00000000000E+00 0. -1.
         21   -1    0    0  501  503 -0.00000000000E+00 -0.00000000000E+00 -0.70479864716E+03  0.70479864716E+03  0.00000000000E+00 0.  1.
          6    2    1    2  501    0 -0.16630531713E+03 -0.95161722024E+02 -0.55044594945E+03  0.60714930929E+03  0.17007741962E+03 0.  0.
         24    2    3    3    0    0 -0.15029668259E+03 -0.26518072108E+02 -0.46584104590E+03  0.49692995183E+03  0.81481261896E+02 0.  0.
         -6    2    1    2    0  502  0.16630531713E+03  0.95161722024E+02  0.63815776313E+01  0.25838361321E+03  0.17322862119E+03 0.  0.
        -24    2    5    5    0    0  0.15705659811E+03  0.76228469457E+02  0.58995502453E+02  0.20151251386E+03  0.81543052236E+02 0.  0.
          5    1    3    3  501    0 -0.16008634538E+02 -0.68643649915E+02 -0.84604903553E+02  0.11021935746E+03  0.47000000000E+01 0. -1.
        -15    1    4    4    0    0 -0.64214629277E+02  0.27527301504E+02 -0.15869043701E+03  0.17339862591E+03  0.17770000000E+01 0.  1.
         16    1    4    4    0    0 -0.86082053315E+02 -0.54045373612E+02 -0.30715060889E+03  0.32353132592E+03  0.00000000000E+00 0. -1.
         -5    1    5    5    0  502  0.92487190222E+01  0.18933252567E+02 -0.52613924822E+02  0.56871099352E+02  0.47000000000E+01 0.  1.
         15    1    6    6    0    0  0.13922794869E+03  0.42574461611E+02  0.19940060248E+02  0.14696179847E+03  0.17770000000E+01 0. -1.
        -16    1    6    6    0    0  0.17828649423E+02  0.33654007846E+02  0.39055442206E+02  0.54550715396E+02  0.00000000000E+00 0.  1.
<mgrwt>
<rscale>  2 0.25777752E+03</rscale>
<asrwt>0</asrwt>
<pdfrwt beam="1">  1       21 0.24728351E-01 0.25830479E+03</pdfrwt>
<pdfrwt beam="2">  1       21 0.10843056E+00 0.25830479E+03</pdfrwt>
<totfact> 0.10032887E+04</totfact>
</mgrwt>
</event>
<event>
12    2  0.4097182E-002  0.2083578E+03  0.7546771E-02  0.1143219E+00
         21   -1    0    0  501  502  0.00000000000E+00  0.00000000000E+00  0.43538431139E+03  0.43538431139E+03  0.00000000000E+00 0. -1.
         21   -1    0    0  502  503 -0.00000000000E+00 -0.00000000000E+00 -0.12435209780E+03  0.12435209780E+03  0.00000000000E+00 0. -1.
         -6    2    1    2    0  503 -0.45244566317E+02  0.10528750398E+03  0.28164229266E+03  0.34931600474E+03  0.17194987896E+03 0.  0.
        -24    2    3    3    0    0 -0.24545827758E+02  0.40988702864E+02  0.26301239060E+03  0.27908825486E+03  0.80200779089E+02 0.  0.
          6    2    1    2  501    0  0.45244566317E+02 -0.10528750398E+03  0.29389920922E+02  0.21042040445E+03  0.17401278655E+03 0.  0.
         24    2    5    5    0    0 -0.24370069576E+02 -0.75800734666E+02 -0.26524978917E+02  0.11627034806E+03  0.80470911913E+02 0.  0.
          5    1    5    5  501    0  0.69614635893E+02 -0.29486769309E+02  0.55914899839E+02  0.94150056393E+02  0.47000000000E+01 0. -1.
        -15    1    6    6    0    0 -0.43682068296E+02 -0.80038505430E+02 -0.12552123280E+02  0.92059757602E+02  0.17770000000E+01 0.  1.
         16    1    6    6    0    0  0.19311998720E+02  0.42377707631E+01 -0.13972855637E+02  0.24210590457E+02  0.00000000000E+00 0. -1.
         -5    1    3    3    0  503 -0.20698738559E+02  0.64298801112E+02  0.18629902058E+02  0.70227749879E+02  0.47000000000E+01 0.  1.
         15    1    4    4    0    0  0.20864303732E+02  0.39667856505E+02  0.16620400157E+03  0.17215047452E+03  0.17770000000E+01 0. -1.
        -16    1    4    4    0    0 -0.45410131490E+02  0.13208463595E+01  0.96808389033E+02  0.10693778034E+03  0.00000000000E+00 0.  1.
<mgrwt>
<rscale>  2 0.20792654E+03</rscale>
<asrwt>0</asrwt>
<pdfrwt beam="1">  1       21 0.66982201E-01 0.20835782E+03</pdfrwt>
<pdfrwt beam="2">  1       21 0.19131092E-01 0.20835782E+03</pdfrwt>
<totfact> 0.50793529E+04</totfact>
</mgrwt>
</event>
<event>
12    2  0.4097182E-002  0.1931696E+03  0.7546771E-02  0.1156737E+00
         21   -1    0    0  501  502  0.00000000000E+00  0.00000000000E+00  0.22701900731E+03  0.22701900731E+03  0.00000000000E+00 0. -1.
         21   -1    0    0  502  503 -0.00000000000E+00 -0.00000000000E+00 -0.84059909432E+03  0.84059909432E+03  0.00000000000E+00 0.  1.
         -6    2    1    2    0  503  0.58568812913E+02  0.59456021375E+02 -0.78779690803E+03  0.81113406919E+03  0.17421017645E+03 0.  0.
        -24    2    3    3    0    0  0.94946538167E+01  0.62871645254E+02 -0.24446394697E+03  0.26555846842E+03  0.81949292595E+02 0.  0.
          6    2    1    2  501    0 -0.58568812913E+02 -0.59456021375E+02  0.17421682102E+03  0.25648403243E+03  0.16872235727E+03 0.  0.
         24    2    5    5    0    0  0.10690904511E+02 -0.80890279242E+02  0.11705137780E+03  0.16403775741E+03  0.80931008233E+02 0.  0.
          5    1    5    5  501    0 -0.69259717424E+02  0.21434257867E+02  0.57165443218E+02  0.92446275026E+02  0.47000000000E+01 0. -1.
        -15    1    6    6    0    0  0.40837416523E+02 -0.25383729300E+02  0.30796514712E+02  0.57128025950E+02  0.17770000000E+01 0.  1.
         16    1    6    6    0    0 -0.30146512012E+02 -0.55506549942E+02  0.86254863092E+02  0.10690973146E+03  0.00000000000E+00 0. -1.
         -5    1    3    3    0  503  0.49074159096E+02 -0.34156238789E+01 -0.54333296106E+03  0.54557560077E+03  0.47000000000E+01 0.  1.
         15    1    4    4    0    0  0.14202505703E+02  0.73188391186E+02 -0.24292534975E+03  0.25411441331E+03  0.17770000000E+01 0. -1.
        -16    1    4    4    0    0 -0.47078518867E+01 -0.10316745932E+02 -0.15385972177E+01  0.11444055112E+02  0.00000000000E+00 0.  1.
<mgrwt>
<rscale>  2 0.19192408E+03</rscale>
<asrwt>0</asrwt>
<pdfrwt beam="1">  1       21 0.34926000E-01 0.19316964E+03</pdfrwt>
<pdfrwt beam="2">  1       21 0.12932294E+00 0.19316964E+03</pdfrwt>
<totfact> 0.34598220E+03</totfact>
</mgrwt>
</event>
<event>
12    2  0.4097182E-002  0.2134971E+03  0.7546771E-02  0.1138927E+00
         21   -1    0    0  501  502  0.00000000000E+00  0.00000000000E+00  0.32298165080E+03  0.32298165080E+03  0.00000000000E+00 0.  1.
         21   -1    0    0  502  503 -0.00000000000E+00 -0.00000000000E+00 -0.14134367018E+03  0.14134367018E+03  0.00000000000E+00 0.  1.
         -6    2    1    2    0  503 -0.12521006420E+03 -0.60493536144E+01  0.76279208210E+02  0.22671466503E+03  0.17282033121E+03 0.  0.
        -24    2    3    3    0    0 -0.14286321176E+03  0.26904543446E+02  0.86508328350E+02  0.18767215168E+03  0.81261269423E+02 0.  0.
          6    2    1    2  501    0  0.12521006420E+03  0.60493536144E+01  0.10535877242E+03  0.23761065594E+03  0.17217490536E+03 0.  0.
         24    2    5    5    0    0  0.68089900530E+02 -0.59983261176E+02  0.82418927371E+02  0.14721515935E+03  0.81518080067E+02 0.  0.
          5    1    5    5  501    0  0.57120163671E+02  0.66032614790E+02  0.22939845046E+02  0.90395496594E+02  0.47000000000E+01 0. -1.
        -15    1    6    6    0    0  0.50445457199E+02 -0.16780511113E+02  0.85226161014E+02  0.10046385397E+03  0.17770000000E+01 0.  1.
         16    1    6    6    0    0  0.17644443331E+02 -0.43202750063E+02 -0.28072336435E+01  0.46751305374E+02  0.00000000000E+00 0. -1.
         -5    1    3    3    0  503  0.17653147562E+02 -0.32953897060E+02 -0.10229120140E+02  0.39042513356E+02  0.47000000000E+01 0.  1.
         15    1    4    4    0    0 -0.67639315309E+02 -0.23971173639E+02  0.58607784997E+02  0.92669975356E+02  0.17770000000E+01 0. -1.
        -16    1    4    4    0    0 -0.75223896454E+02  0.50875717085E+02  0.27900543353E+02  0.95002176322E+02  0.00000000000E+00 0.  1.
<mgrwt>
<rscale>  2 0.21336647E+03</rscale>
<asrwt>0</asrwt>
<pdfrwt beam="1">  1       21 0.49689484E-01 0.21349712E+03</pdfrwt>
<pdfrwt beam="2">  1       21 0.21745180E-01 0.21349712E+03</pdfrwt>
<totfact> 0.75484466E+04</totfact>
</mgrwt>
</event>
<event>
12    2  0.4097182E-002  0.2158461E+03  0.7546771E-02  0.1137119E+00
         21   -1    0    0  503  502  0.00000000000E+00  0.00000000000E+00  0.24142059156E+03  0.24142059156E+03  0.00000000000E+00 0.  1.
         21   -1    0    0  501  503 -0.00000000000E+00 -0.00000000000E+00 -0.25524896467E+03  0.25524896467E+03  0.00000000000E+00 0.  1.
          6    2    1    2  501    0  0.16028554090E+02  0.12686750865E+03 -0.13003715849E+03  0.25199048455E+03  0.17388864949E+03 0.  0.
         24    2    3    3    0    0 -0.44617545508E+01  0.59246473874E+01 -0.91991178943E+02  0.12347350125E+03  0.82026336059E+02 0.  0.
         -6    2    1    2    0  502 -0.16028554090E+02 -0.12686750865E+03  0.11620878538E+03  0.24467907167E+03  0.17323708327E+03 0.  0.
        -24    2    5    5    0    0  0.56601010191E+02 -0.88297576014E+02  0.76036617264E+02  0.15303526991E+03  0.81474476900E+02 0.  0.
          5    1    3    3  501    0  0.20490308641E+02  0.12094286126E+03 -0.38045979549E+02  0.12851698330E+03  0.47000000000E+01 0. -1.
        -15    1    4    4    0    0  0.48583612285E+01  0.38568573405E+02 -0.19718519975E+02  0.43624721057E+02  0.17770000000E+01 0.  1.
         16    1    4    4    0    0 -0.93201157793E+01 -0.32643926018E+02 -0.72272658968E+02  0.79848780193E+02  0.00000000000E+00 0. -1.
         -5    1    5    5    0  502 -0.72629564281E+02 -0.38569932632E+02  0.40172168120E+02  0.91643801767E+02  0.47000000000E+01 0.  1.
         15    1    6    6    0    0  0.17495157777E+02 -0.27826654812E+02 -0.15650247011E+02  0.36448473551E+02  0.17770000000E+01 0. -1.
        -16    1    6    6    0    0  0.39105852413E+02 -0.60470921202E+02  0.91686864275E+02  0.11658679636E+03  0.00000000000E+00 0.  1.
<mgrwt>
<rscale>  2 0.21571485E+03</rscale>
<asrwt>0</asrwt>
<pdfrwt beam="1">  1       21 0.37141629E-01 0.21584611E+03</pdfrwt>
<pdfrwt beam="2">  1       21 0.39269072E-01 0.21584611E+03</pdfrwt>
<totfact> 0.43210380E+04</totfact>
</mgrwt>
</event>
<event>
12    2  0.4097182E-002  0.1762771E+03  0.7546771E-02  0.1171501E+00
         21   -1    0    0  501  502  0.00000000000E+00  0.00000000000E+00  0.98158240813E+02  0.98158240813E+02  0.00000000000E+00 0. -1.
         21   -1    0    0  502  503 -0.00000000000E+00 -0.00000000000E+00 -0.41162360062E+03  0.41162360062E+03  0.00000000000E+00 0. -1.
         -6    2    1    2    0  503 -0.70484934223E+01  0.22130651475E+02 -0.27949622282E+03  0.33044177861E+03  0.17474033160E+03 0.  0.
        -24    2    3    3    0    0 -0.34790654034E+02 -0.45221625082E+02 -0.13243213332E+03  0.16625927938E+03  0.82755622536E+02 0.  0.
          6    2    1    2  501    0  0.70484934223E+01 -0.22130651475E+02 -0.33969136982E+02  0.17934006282E+03  0.17455517429E+03 0.  0.
         24    2    5    5    0    0 -0.17692835334E+02  0.32990574429E+02 -0.66233061780E+02  0.11068488284E+03  0.80392228444E+02 0.  0.
          5    1    5    5  501    0  0.24741328756E+02 -0.55121225904E+02  0.32263924798E+02  0.68655179973E+02  0.47000000000E+01 0. -1.
        -15    1    6    6    0    0 -0.50471182944E+01  0.20299662487E+02 -0.83322014641E+02  0.85925930620E+02  0.17770000000E+01 0.  1.
         16    1    6    6    0    0 -0.12645717039E+02  0.12690911942E+02  0.17088952861E+02  0.24758952224E+02  0.00000000000E+00 0. -1.
         -5    1    3    3    0  503  0.27742160612E+02  0.67352276557E+02 -0.14706408950E+03  0.16418249923E+03  0.47000000000E+01 0.  1.
         15    1    4    4    0    0  0.26908166605E+02 -0.97017702422E+01 -0.29723792949E+02  0.41289652120E+02  0.17770000000E+01 0. -1.
        -16    1    4    4    0    0 -0.61698820639E+02 -0.35519854840E+02 -0.10270834037E+03  0.12496962726E+03  0.00000000000E+00 0.  1.
<mgrwt>
<rscale>  2 0.17623124E+03</rscale>
<asrwt>0</asrwt>
<pdfrwt beam="1">  1       21 0.15101268E-01 0.17627714E+03</pdfrwt>
<pdfrwt beam="2">  1       21 0.63326709E-01 0.17627714E+03</pdfrwt>
<totfact> 0.89966601E+04</totfact>
</mgrwt>
</event>
<event>
12    2  0.4097182E-002  0.2022007E+03  0.7546771E-02  0.1148238E+00
         21   -1    0    0  501  502  0.00000000000E+00  0.00000000000E+00  0.25343145267E+03  0.25343145267E+03  0.00000000000E+00 0. -1.
         21   -1    0    0  502  503 -0.00000000000E+00 -0.00000000000E+00 -0.16038057032E+03  0.16038057032E+03  0.00000000000E+00 0.  1.
         -6    2    1    2    0  503 -0.26512505630E+01  0.10508667651E+03  0.36898790992E+02  0.20553989829E+03  0.17272779250E+03 0.  0.
        -24    2    3    3    0    0  0.33644739347E+02  0.28182182713E+02  0.69060389940E+02  0.11450057438E+03  0.80092697341E+02 0.  0.
          6    2    1    2  501    0  0.26512505630E+01 -0.10508667651E+03  0.56152091355E+02  0.20827212470E+03  0.17080392810E+03 0.  0.
         24    2    5    5    0    0 -0.55406855712E+02 -0.25489332429E+02  0.25056423874E+02  0.10485301900E+03  0.81527329699E+02 0.  0.
          5    1    5    5  501    0  0.58058106275E+02 -0.79597344080E+02  0.31095667481E+02  0.10341910571E+03  0.47000000000E+01 0. -1.
        -15    1    6    6    0    0 -0.61276418448E+02 -0.42474369682E+02  0.37022664275E+02  0.83262878504E+02  0.17770000000E+01 0.  1.
         16    1    6    6    0    0  0.58695627357E+01  0.16985037253E+02 -0.11966240402E+02  0.21590140493E+02  0.00000000000E+00 0. -1.
         -5    1    3    3    0  503 -0.36295989911E+02  0.76904493796E+02 -0.32161598948E+02  0.91039323901E+02  0.47000000000E+01 0.  1.
         15    1    4    4    0    0 -0.22869459037E+02  0.23198249712E+02  0.14199381977E+02  0.35580206912E+02  0.17770000000E+01 0. -1.
        -16    1    4    4    0    0  0.56514198385E+02  0.49839330015E+01  0.54861007963E+02  0.78920367473E+02  0.00000000000E+00 0.  1.
<mgrwt>
<rscale>  2 0.20178922E+03</rscale>
<asrwt>0</asrwt>
<pdfrwt beam="1">  1       21 0.38989454E-01 0.20220071E+03</pdfrwt>
<pdfrwt beam="2">  1       21 0.24673934E-01 0.20220071E+03</pdfrwt>
<totfact> 0.98124123E+04</totfact>
</mgrwt>
</event>
<event>
12    2  0.4097182E-002  0.2367007E+03  0.7546771E-02  0.1124099E+00
         21   -1    0    0  501  502  0.00000000000E+00  0.00000000000E+00  0.32297862560E+03  0.32297862560E+03  0.00000000000E+00 0. -1.
         21   -1    0    0  502  503 -0.00000000000E+00 -0.00000000000E+00 -0.16500480976E+03  0.16500480976E+03  0.00000000000E+00 0. -1.
         -6    2    1    2    0  503 -0.88786513558E+02  0.11307937214E+03  0.72437994349E+02  0.24753681622E+03  0.18803516417E+03 0.  0.
        -24    2    3    3    0    0 -0.22927984706E+02  0.86990367467E+02  0.11322397944E+03  0.16566149291E+03  0.80814876105E+02 0.  0.
          6    2    1    2  501    0  0.88786513558E+02 -0.11307937214E+03  0.85535821499E+02  0.24044661914E+03  0.17270845521E+03 0.  0.
         24    2    5    5    0    0  0.11024692980E+03 -0.95248386000E+02  0.11242247958E+03  0.20141488955E+03  0.81868817332E+02 0.  0.
          5    1    5    5  501    0 -0.21460416243E+02 -0.17830986143E+02 -0.26886658080E+02  0.39031729591E+02  0.47000000000E+01 0. -1.
        -15    1    6    6    0    0  0.64857025982E+02 -0.55242098512E+02  0.11222512298E+03  0.14091046527E+03  0.17770000000E+01 0.  1.
         16    1    6    6    0    0  0.45389903819E+02 -0.40006287488E+02  0.19735660077E+00  0.60504424276E+02  0.00000000000E+00 0. -1.
         -5    1    3    3    0  503 -0.65858528852E+02  0.26089004676E+02 -0.40785985087E+02  0.81875323309E+02  0.47000000000E+01 0.  1.
         15    1    4    4    0    0 -0.41612481350E+02  0.11724475110E+02  0.43972063442E+02  0.61690858423E+02  0.17770000000E+01 0. -1.
        -16    1    4    4    0    0  0.18684496643E+02  0.75265892357E+02  0.69251915994E+02  0.10397063449E+03  0.00000000000E+00 0.  1.
<mgrwt>
<rscale>  2 0.23364641E+03</rscale>
<asrwt>0</asrwt>
<pdfrwt beam="1">  1       21 0.49689019E-01 0.23670068E+03</pdfrwt>
<pdfrwt beam="2">  1       21 0.25385355E-01 0.23670068E+03</pdfrwt>
<totfact> 0.55682402E+04</totfact>
</mgrwt>
</event>
<event>
12    2  0.4097182E-002  0.2737636E+03  0.7546771E-02  0.1099566E+00
         21   -1    0    0  501  502  0.00000000000E+00  0.00000000000E+00  0.56210935855E+03  0.56210935855E+03  0.00000000000E+00 0.  1.
         21   -1    0    0  502  503 -0.00000000000E+00 -0.00000000000E+00 -0.13277480978E+03  0.13277480978E+03  0.00000000000E+00 0. -1.
         -6    2    1    2    0  503  0.20297367830E+03 -0.50921590546E+02  0.18505663829E+03  0.32798061102E+03  0.17185458785E+03 0.  0.
        -24    2    3    3    0    0  0.55995946595E+02 -0.20404098593E+02  0.11876188677E+02  0.98748569062E+02  0.77835485223E+02 0.  0.
          6    2    1    2  501    0 -0.20297367830E+03  0.50921590546E+02  0.24427791048E+03  0.36690355731E+03  0.17650835773E+03 0.  0.
         24    2    5    5    0    0 -0.16024485839E+03  0.86934954296E+02  0.23772754139E+03  0.31044373306E+03  0.81393037405E+02 0.  0.
          5    1    5    5  501    0 -0.42728819903E+02 -0.36013363750E+02  0.65503690864E+01  0.56459824247E+02  0.47000000000E+01 0. -1.
        -15    1    6    6    0    0 -0.32228880609E+02 -0.14332825490E+01  0.91162741660E+02  0.96718965256E+02  0.17770000000E+01 0.  1.
         16    1    6    6    0    0 -0.12801597778E+03  0.88368236845E+02  0.14656479973E+03  0.21372476780E+03  0.00000000000E+00 0. -1.
         -5    1    3    3    0  503  0.14697773170E+03 -0.30517491953E+02  0.17318044962E+03  0.22923204196E+03  0.47000000000E+01 0.  1.
         15    1    4    4    0    0 -0.17643871844E+02 -0.80842944629E+01  0.14095920533E+02  0.24052333261E+02  0.17770000000E+01 0. -1.
        -16    1    4    4    0    0  0.73639818438E+02 -0.12319804130E+02 -0.22197318560E+01  0.74696235802E+02  0.00000000000E+00 0.  1.
<mgrwt>
<rscale>  2 0.27301629E+03</rscale>
<asrwt>0</asrwt>
<pdfrwt beam="1">  1       21 0.86478362E-01 0.27376363E+03</pdfrwt>
<pdfrwt beam="2">  1       21 0.20426894E-01 0.27376363E+03</pdfrwt>
<totfact> 0.24525472E+04</totfact>
</mgrwt>
</event>
<event>
12    2  0.4097182E-002  0.1868081E+03  0.7546771E-02  0.1161553E+00
         21   -1    0    0  503  502  0.00000000000E+00  0.00000000000E+00  0.39393127880E+03  0.39393127880E+03  0.00000000000E+00 0.  1.
         21   -1    0    0  501  503 -0.00000000000E+00 -0.00000000000E+00 -0.97101276180E+02  0.97101276180E+02  0.00000000000E+00 0.  1.
          6    2    1    2  501    0  0.66474773824E+02  0.12904257198E+02  0.73860788906E+02  0.20015021620E+03  0.17326072116E+03 0.  0.
         24    2    3    3    0    0  0.10267093529E+03  0.35222981567E+02  0.28932324343E+02  0.13811035409E+03  0.80345573189E+02 0.  0.
         -6    2    1    2    0  502 -0.66474773824E+02 -0.12904257198E+02  0.22296921372E+03  0.29088233879E+03  0.17410298488E+03 0.  0.
        -24    2    5    5    0    0 -0.56502950305E+01 -0.63516172061E+02  0.10473193831E+03  0.14853302743E+03  0.83827509745E+02 0.  0.
          5    1    3    3  501    0 -0.36196161465E+02 -0.22318724369E+02  0.44928464563E+02  0.62039862107E+02  0.47000000000E+01 0. -1.
        -15    1    4    4    0    0  0.64560425470E+02 -0.19354745073E+02  0.23177638907E+02  0.71295268903E+02  0.17770000000E+01 0.  1.
         16    1    4    4    0    0  0.38110509819E+02  0.54577726640E+02  0.57546854360E+01  0.66815085186E+02  0.00000000000E+00 0. -1.
         -5    1    5    5    0  502 -0.60824478793E+02  0.50611914863E+02  0.11823727541E+03  0.14234931135E+03  0.47000000000E+01 0.  1.
         15    1    6    6    0    0 -0.41094360504E+02 -0.54729707249E+02  0.62480090175E+02  0.92687683745E+02  0.17770000000E+01 0. -1.
        -16    1    6    6    0    0  0.35444065473E+02 -0.87864648116E+01  0.42251848133E+02  0.55845343689E+02  0.00000000000E+00 0.  1.
<mgrwt>
<rscale>  2 0.18661160E+03</rscale>
<asrwt>0</asrwt>
<pdfrwt beam="1">  1       21 0.60604811E-01 0.18680810E+03</pdfrwt>
<pdfrwt beam="2">  1       21 0.14938658E-01 0.18680810E+03</pdfrwt>
<totfact> 0.10044955E+05</totfact>
</mgrwt>
</event>
<event>
12    2  0.4097182E-002  0.2412316E+03  0.7546771E-02  0.1119207E+00
         21   -1    0    0  501  502  0.00000000000E+00  0.00000000000E+00  0.74280925956E+03  0.74280925956E+03  0.00000000000E+00 0.  1.
         21   -1    0    0  502  503 -0.00000000000E+00 -0.00000000000E+00 -0.16676858885E+03  0.16676858885E+03  0.00000000000E+00 0.  1.
         -6    2    1    2    0  503  0.16232702847E+03 -0.44002533606E+02 -0.43602097889E+02  0.24514037760E+03  0.17293459646E+03 0.  0.
        -24    2    3    3    0    0  0.49008693665E+02 -0.36331619524E+02 -0.76249955678E+02  0.12687009162E+03  0.80994603375E+02 0.  0.
          6    2    1    2  501    0 -0.16232702847E+03  0.44002533606E+02  0.61964276860E+03  0.66443747082E+03  0.17097866771E+03 0.  0.
         24    2    5    5    0    0 -0.78749524511E+02  0.47144348124E+02  0.52114051261E+03  0.53513219404E+03  0.79717965636E+02 0.  0.
          5    1    5    5  501    0 -0.83577503961E+02 -0.31418145181E+01  0.98502255987E+02  0.12930527677E+03  0.47000000000E+01 0. -1.
        -15    1    6    6    0    0 -0.13942344619E+02  0.10334059654E+02  0.13524613700E+02  0.22073845771E+02  0.17770000000E+01 0.  1.
         16    1    6    6    0    0 -0.64807179892E+02  0.36810288470E+02  0.50761589891E+03  0.51305834827E+03  0.00000000000E+00 0. -1.
         -5    1    3    3    0  503  0.11331833481E+03 -0.76709140817E+01  0.32647857789E+02  0.11827028598E+03  0.47000000000E+01 0.  1.
         15    1    4    4    0    0 -0.14241756165E+02 -0.65691759108E+01  0.77538001409E+01  0.17585813500E+02  0.17770000000E+01 0. -1.
        -16    1    4    4    0    0  0.63250449830E+02 -0.29762443613E+02 -0.84003755818E+02  0.10928427812E+03  0.00000000000E+00 0.  1.
<mgrwt>
<rscale>  2 0.24088122E+03</rscale>
<asrwt>0</asrwt>
<pdfrwt beam="1">  1       21 0.11427835E+00 0.24123155E+03</pdfrwt>
<pdfrwt beam="2">  1       21 0.25656706E-01 0.24123155E+03</pdfrwt>
<totfact> 0.83016694E+03</totfact>
</mgrwt>
</event>
<event>
12    2  0.4097182E-002  0.3016228E+03  0.7546771E-02  0.1084652E+00
         21   -1    0    0  501  502  0.00000000000E+00  0.00000000000E+00  0.30118336196E+03  0.30118336196E+03  0.00000000000E+00 0.  1.
         21   -1    0    0  502  503 -0.00000000000E+00 -0.00000000000E+00 -0.32314967385E+03  0.32314967385E+03  0.00000000000E+00 0. -1.
         -6    2    1    2    0  503  0.24145612153E+03  0.41626687987E+02 -0.94020118192E+02  0.31593689465E+03  0.17590480095E+03 0.  0.
        -24    2    3    3    0    0  0.35783697367E+02  0.34599665330E+02 -0.20099968103E+02  0.97220631654E+02  0.81056971713E+02 0.  0.
          6    2    1    2  501    0 -0.24145612153E+03 -0.41626687987E+02  0.72053806300E+02  0.30839614116E+03  0.17286581241E+03 0.  0.
         24    2    5    5    0    0 -0.26193694107E+03 -0.41780822782E+02  0.58722826461E+02  0.28351054794E+03  0.81075657253E+02 0.  0.
          5    1    5    5  501    0  0.20480819534E+02  0.15413479579E+00  0.13330979839E+02  0.24885593218E+02  0.47000000000E+01 0. -1.
        -15    1    6    6    0    0 -0.96121191872E+02  0.64839611359E+01  0.54629179877E+02  0.11076475207E+03  0.17770000000E+01 0.  1.
         16    1    6    6    0    0 -0.16581574920E+03 -0.48264783918E+02  0.40936465834E+01  0.17274579587E+03  0.00000000000E+00 0. -1.
         -5    1    3    3    0  503  0.20567242417E+03  0.70270226567E+01 -0.73920150090E+02  0.21871626300E+03  0.47000000000E+01 0.  1.
         15    1    4    4    0    0  0.93915553044E+01  0.10554394634E+02 -0.49163229932E+02  0.51183761716E+02  0.17770000000E+01 0. -1.
        -16    1    4    4    0    0  0.26392142063E+02  0.24045270696E+02  0.29063261829E+02  0.46036869938E+02  0.00000000000E+00 0.  1.
<mgrwt>
<rscale>  2 0.30118133E+03</rscale>
<asrwt>0</asrwt>
<pdfrwt beam="1">  1       21 0.46335902E-01 0.30162284E+03</pdfrwt>
<pdfrwt beam="2">  1       21 0.49715334E-01 0.30162284E+03</pdfrwt>
<totfact> 0.16272163E+04</totfact>
</mgrwt>
</event>
<event>
12    2  0.4097182E-002  0.1895711E+03  0.7546771E-02  0.1159026E+00
         21   -1    0    0  501  502  0.00000000000E+00  0.00000000000E+00  0.38371812452E+03  0.38371812452E+03  0.00000000000E+00 0.  1.
         21   -1    0    0  502  503 -0.00000000000E+00 -0.00000000000E+00 -0.33519531995E+03  0.33519531995E+03  0.00000000000E+00 0.  1.
         -6    2    1    2    0  503  0.75280257210E+02 -0.13798120367E+02 -0.28110376776E+03  0.33905238712E+03  0.17343496681E+03 0.  0.
        -24    2    3    3    0    0  0.78985924036E+02 -0.10325487275E+02 -0.86771517534E+02  0.14459698189E+03  0.83866554911E+02 0.  0.
          6    2    1    2  501    0 -0.75280257210E+02  0.13798120367E+02  0.32962657232E+03  0.37986105736E+03  0.17257821550E+03 0.  0.
         24    2    5    5    0    0 -0.43518175149E+02  0.53990873142E+02  0.30782376885E+03  0.32398852858E+03  0.73513590813E+02 0.  0.
          5    1    5    5  501    0 -0.31762082060E+02 -0.40192752776E+02  0.21802803479E+02  0.55872528778E+02  0.47000000000E+01 0. -1.
        -15    1    6    6    0    0 -0.97886981989E+01  0.21385134358E+02  0.16195614231E+02  0.28611155749E+02  0.17770000000E+01 0.  1.
         16    1    6    6    0    0 -0.33729476950E+02  0.32605738784E+02  0.29162815461E+03  0.29537737283E+03  0.00000000000E+00 0. -1.
         -5    1    3    3    0  503 -0.37056668260E+01 -0.34726330913E+01 -0.19433225022E+03  0.19445540523E+03  0.47000000000E+01 0.  1.
         15    1    4    4    0    0 -0.12340902839E+02 -0.17571999992E+02 -0.57606545650E+01  0.22302823513E+02  0.17770000000E+01 0. -1.
        -16    1    4    4    0    0  0.91326826875E+02  0.72465127169E+01 -0.81010862969E+02  0.12229415837E+03  0.00000000000E+00 0.  1.
<mgrwt>
<rscale>  2 0.18937489E+03</rscale>
<asrwt>0</asrwt>
<pdfrwt beam="1">  1       21 0.59033558E-01 0.18957108E+03</pdfrwt>
<pdfrwt beam="2">  1       21 0.51568511E-01 0.18957108E+03</pdfrwt>
<totfact> 0.96049526E+03</totfact>
</mgrwt>
</event>
<event>
12    2  0.4097182E-002  0.1746117E+03  0.7546771E-02  0.1173129E+00
         21   -1    0    0  503  502  0.00000000000E+00  0.00000000000E+00  0.79978309118E+03  0.79978309118E+03  0.00000000000E+00 0.  1.
         21   -1    0    0  501  503 -0.00000000000E+00 -0.00000000000E+00 -0.68515243454E+02  0.68515243454E+02  0.00000000000E+00 0.  1.
          6    2    1    2  501    0  0.49210650988E+00 -0.25330685919E+02  0.76463884547E+02  0.19061992564E+03  0.17276384053E+03 0.  0.
         24    2    3    3    0    0 -0.16457854540E+02  0.24117351602E+01  0.11421058432E+03  0.14058147592E+03  0.80264664452E+02 0.  0.
         -6    2    1    2    0  502 -0.49210650988E+00  0.25330685919E+02  0.65480396318E+03  0.67767840899E+03  0.17273653349E+03 0.  0.
        -24    2    5    5    0    0 -0.61169470417E+02 -0.11541881082E+02  0.43522930161E+03  0.44686148870E+03  0.79910737556E+02 0.  0.
          5    1    3    3  501    0  0.16949961049E+02 -0.27742421079E+02 -0.37746699771E+02  0.50038449721E+02  0.47000000000E+01 0. -1.
        -15    1    4    4    0    0 -0.21825583434E+02 -0.91581378976E+01 -0.18634811916E+01  0.23808777229E+02  0.17770000000E+01 0.  1.
         16    1    4    4    0    0  0.53677288944E+01  0.11569873058E+02  0.11607406551E+03  0.11677269869E+03  0.00000000000E+00 0. -1.
         -5    1    5    5    0  502  0.60677363907E+02  0.36872567000E+02  0.21957466157E+03  0.23081692029E+03  0.47000000000E+01 0.  1.
         15    1    6    6    0    0 -0.28498292536E+02  0.31811029901E+02  0.13014785374E+03  0.13698801358E+03  0.17770000000E+01 0. -1.
        -16    1    6    6    0    0 -0.32671177880E+02 -0.43352910982E+02  0.30508144787E+03  0.30987347513E+03  0.00000000000E+00 0.  1.
<mgrwt>
<rscale>  2 0.17460490E+03</rscale>
<asrwt>0</asrwt>
<pdfrwt beam="1">  1       21 0.12304355E+00 0.17461166E+03</pdfrwt>
<pdfrwt beam="2">  1       21 0.10540807E-01 0.17461166E+03</pdfrwt>
<totfact> 0.37058854E+04</totfact>
</mgrwt>
</event>
<event>
12    2  0.4097182E-002  0.1814052E+03  0.7546771E-02  0.1166790E+00
         21   -1    0    0  501  502  0.00000000000E+00  0.00000000000E+00  0.30494098499E+03  0.30494098499E+03  0.00000000000E+00 0. -1.
         21   -1    0    0  502  503 -0.00000000000E+00 -0.00000000000E+00 -0.10707782723E+03  0.10707782723E+03  0.00000000000E+00 0.  1.
         -6    2    1    2    0  503 -0.43926646154E+02  0.19263777093E+02  0.98852951960E+02  0.20659080555E+03  0.17494916826E+03 0.  0.
        -24    2    3    3    0    0 -0.19394276854E+02 -0.51400199877E+02  0.28767007643E+02  0.10397811444E+03  0.83461302606E+02 0.  0.
          6    2    1    2  501    0  0.43926646154E+02 -0.19263777093E+02  0.99010205802E+02  0.20542800668E+03  0.17348487463E+03 0.  0.
         24    2    5    5    0    0 -0.80447350835E+01  0.96979763329E+01 -0.91048995238E+01  0.81933984032E+02  0.80445696196E+02 0.  0.
          5    1    5    5  501    0  0.51971381237E+02 -0.28961753426E+02  0.10811510533E+03  0.12349402264E+03  0.47000000000E+01 0. -1.
        -15    1    6    6    0    0 -0.34332352964E+02  0.29565559599E+02  0.59041689599E+01  0.45725810157E+02  0.17770000000E+01 0.  1.
         16    1    6    6    0    0  0.26287617880E+02 -0.19867583266E+02 -0.15009068484E+02  0.36208173875E+02  0.00000000000E+00 0. -1.
         -5    1    3    3    0  503 -0.24532369300E+02  0.70663976970E+02  0.70085944317E+02  0.10261269110E+03  0.47000000000E+01 0.  1.
         15    1    4    4    0    0  0.31410248950E+02 -0.33383579396E+02  0.16001684549E+02  0.48582700108E+02  0.17770000000E+01 0. -1.
        -16    1    4    4    0    0 -0.50804525805E+02 -0.18016620481E+02  0.12765323094E+02  0.55395414336E+02  0.00000000000E+00 0.  1.
<mgrwt>
<rscale>  2 0.18105125E+03</rscale>
<asrwt>0</asrwt>
<pdfrwt beam="1">  1       21 0.46913997E-01 0.18140522E+03</pdfrwt>
<pdfrwt beam="2">  1       21 0.16473512E-01 0.18140522E+03</pdfrwt>
<totfact> 0.14428379E+05</totfact>
</mgrwt>
</event>
<event>
12    2  0.4097182E-002  0.2521573E+03  0.7546771E-02  0.1111959E+00
         21   -1    0    0  503  502  0.00000000000E+00  0.00000000000E+00  0.13794476936E+03  0.13794476936E+03  0.00000000000E+00 0. -1.
         21   -1    0    0  501  503 -0.00000000000E+00 -0.00000000000E+00 -0.49260687311E+03  0.49260687311E+03  0.00000000000E+00 0.  1.
          6    2    1    2  501    0 -0.12261281143E+03 -0.13662979207E+03 -0.25739857417E+03  0.36028599345E+03  0.17277259473E+03 0.  0.
         24    2    3    3    0    0 -0.11297201390E+02 -0.37196588514E+02 -0.15262735942E+03  0.17786553285E+03  0.82642749079E+02 0.  0.
         -6    2    1    2    0  502  0.12261281143E+03  0.13662979207E+03 -0.97263529584E+02  0.27026564902E+03  0.17286331376E+03 0.  0.
        -24    2    5    5    0    0  0.99960265000E+01  0.86953012423E+02 -0.11560747575E+02  0.12020772844E+03  0.81581248930E+02 0.  0.
          5    1    3    3  501    0 -0.11131561004E+03 -0.99433203554E+02 -0.10477121474E+03  0.18242046060E+03  0.47000000000E+01 0. -1.
        -15    1    4    4    0    0 -0.41718110683E+02 -0.35021725601E+02 -0.12637168347E+03  0.13762224433E+03  0.17770000000E+01 0.  1.
         16    1    4    4    0    0  0.30420909294E+02 -0.21748629126E+01 -0.26255675953E+02  0.40243288517E+02  0.00000000000E+00 0. -1.
         -5    1    5    5    0  502  0.11261678493E+03  0.49676779645E+02 -0.85702782009E+02  0.15005792058E+03  0.47000000000E+01 0.  1.
         15    1    6    6    0    0  0.19097848830E+02  0.65760391279E+02  0.28331170547E+02  0.74128063813E+02  0.17770000000E+01 0. -1.
        -16    1    6    6    0    0 -0.91018223299E+01  0.21192621144E+02 -0.39891918122E+02  0.46079664627E+02  0.00000000000E+00 0.  1.
<mgrwt>
<rscale>  2 0.25214180E+03</rscale>
<asrwt>0</asrwt>
<pdfrwt beam="1">  1       21 0.21222272E-01 0.25215735E+03</pdfrwt>
<pdfrwt beam="2">  1       21 0.75785672E-01 0.25215735E+03</pdfrwt>
<totfact> 0.31142219E+04</totfact>
</mgrwt>
</event>
<event>
12    2  0.4097182E-002  0.1772174E+03  0.7546771E-02  0.1170636E+00
         21   -1    0    0  503  502  0.00000000000E+00  0.00000000000E+00  0.13202925606E+03  0.13202925606E+03  0.00000000000E+00 0. -1.
         21   -1    0    0  501  503 -0.00000000000E+00 -0.00000000000E+00 -0.25695950139E+03  0.25695950139E+03  0.00000000000E+00 0. -1.
          6    2    1    2  501    0 -0.36498066953E+02  0.54395539543E+01 -0.11638558339E+03  0.21201794446E+03  0.17333293718E+03 0.  0.
         24    2    3    3    0    0 -0.24724808226E+02  0.19981915657E+02 -0.15024765334E+03  0.17304590722E+03  0.79749204233E+02 0.  0.
         -6    2    1    2    0  502  0.36498066953E+02 -0.54395539543E+01 -0.85446619260E+01  0.17697081299E+03  0.17286977690E+03 0.  0.
        -24    2    5    5    0    0  0.36694581587E+01 -0.29963948044E+02  0.55982632633E+02  0.10038736045E+03  0.77667650121E+02 0.  0.
          5    1    3    3  501    0 -0.11773258726E+02 -0.14542361703E+02  0.33862069949E+02  0.38972037234E+02  0.47000000000E+01 0. -1.
        -15    1    4    4    0    0 -0.17857246323E+02  0.23740319923E+02 -0.83177716782E+01  0.30900276552E+02  0.17770000000E+01 0.  1.
         16    1    4    4    0    0 -0.68675619034E+01 -0.37584042656E+01 -0.14192988167E+03  0.14214563067E+03  0.00000000000E+00 0. -1.
         -5    1    5    5    0  502  0.32828608794E+02  0.24524394090E+02 -0.64527294559E+02  0.76583452546E+02  0.47000000000E+01 0.  1.
         15    1    6    6    0    0 -0.57965415111E+01  0.25567290628E+02  0.24120949172E+02  0.35668812169E+02  0.17770000000E+01 0. -1.
        -16    1    6    6    0    0  0.94659996698E+01 -0.55531238673E+02  0.31861683461E+02  0.64718548278E+02  0.00000000000E+00 0.  1.
<mgrwt>
<rscale>  2 0.17710404E+03</rscale>
<asrwt>0</asrwt>
<pdfrwt beam="1">  1       21 0.20312194E-01 0.17721739E+03</pdfrwt>
<pdfrwt beam="2">  1       21 0.39532230E-01 0.17721739E+03</pdfrwt>
<totfact> 0.13903436E+05</totfact>
</mgrwt>
</event>
<event>
12    2  0.4097182E-002  0.1815483E+03  0.7546771E-02  0.1170442E+00
         21   -1    0    0  503  502  0.00000000000E+00  0.00000000000E+00  0.45718070833E+02  0.45718070833E+02  0.00000000000E+00 0.  1.
         21   -1    0    0  501  503 -0.00000000000E+00 -0.00000000000E+00 -0.75544598673E+03  0.75544598673E+03  0.00000000000E+00 0.  1.
          6    2    1    2  501    0  0.46325061512E+02  0.73640896579E+01 -0.48452661769E+03  0.51189704753E+03  0.15834235971E+03 0.  0.
         24    2    3    3    0    0  0.11743170847E+01  0.44406150582E+02 -0.39461426866E+03  0.40457964676E+03  0.77401449032E+02 0.  0.
         -6    2    1    2    0  502 -0.46325061512E+02 -0.73640896579E+01 -0.22520129821E+03  0.28926701004E+03  0.17538397087E+03 0.  0.
        -24    2    5    5    0    0 -0.50684257618E+02  0.58167287687E+02 -0.11855648768E+03  0.16393317733E+03  0.82862045182E+02 0.  0.
          5    1    3    3  501    0  0.45150744428E+02 -0.37042060924E+02 -0.89912349032E+02  0.10731740077E+03  0.47000000000E+01 0. -1.
        -15    1    4    4    0    0 -0.53262369043E+01 -0.17488195494E+02 -0.18533162921E+03  0.18623956695E+03  0.17770000000E+01 0.  1.
         16    1    4    4    0    0  0.65005539891E+01  0.61894346077E+02 -0.20928263944E+03  0.21834007981E+03  0.00000000000E+00 0. -1.
         -5    1    5    5    0  502  0.43591961051E+01 -0.65531377345E+02 -0.10664481053E+03  0.12533383271E+03  0.47000000000E+01 0.  1.
         15    1    6    6    0    0 -0.57653697252E+01  0.12224866730E+02 -0.94259126728E+02  0.95239842267E+02  0.17770000000E+01 0. -1.
        -16    1    6    6    0    0 -0.44918887892E+02  0.45942420956E+02 -0.24297360951E+02  0.68693335062E+02  0.00000000000E+00 0.  1.
<mgrwt>
<rscale>  2 0.17730044E+03</rscale>
<asrwt>0</asrwt>
<pdfrwt beam="1">  1       21 0.70335495E-02 0.18154828E+03</pdfrwt>
<pdfrwt beam="2">  1       21 0.11622246E+00 0.18154828E+03</pdfrwt>
<totfact> 0.86136913E+04</totfact>
</mgrwt>
</event>
<event>
12    2  0.4097182E-002  0.1895298E+03  0.7546771E-02  0.1159415E+00
         21   -1    0    0  501  502  0.00000000000E+00  0.00000000000E+00  0.41462372584E+03  0.41462372584E+03  0.00000000000E+00 0.  1.
         21   -1    0    0  502  503 -0.00000000000E+00 -0.00000000000E+00 -0.89106480292E+02  0.89106480292E+02  0.00000000000E+00 0. -1.
         -6    2    1    2    0  503 -0.73691475244E+02 -0.25351299615E+02  0.21191428962E+03  0.28276145418E+03  0.17021531044E+03 0.  0.
        -24    2    3    3    0    0 -0.25672124744E+02 -0.22615525452E+02  0.21757245351E+03  0.23410503321E+03  0.79352845365E+02 0.  0.
          6    2    1    2  501    0  0.73691475244E+02  0.25351299615E+02  0.11360295592E+03  0.22096875195E+03  0.17276699867E+03 0.  0.
         24    2    5    5    0    0 -0.72602655051E+00  0.44311497167E+02  0.10983504950E+03  0.14393797380E+03  0.81794659392E+02 0.  0.
          5    1    5    5  501    0  0.74417501795E+02 -0.18960197552E+02  0.37679064205E+01  0.77030778156E+02  0.47000000000E+01 0. -1.
        -15    1    6    6    0    0  0.33600367192E+02  0.24047276892E+02  0.90778578393E+02  0.99755522280E+02  0.17770000000E+01 0.  1.
         16    1    6    6    0    0 -0.34326393742E+02  0.20264220275E+02  0.19056471111E+02  0.44182451515E+02  0.00000000000E+00 0. -1.
         -5    1    3    3    0  503 -0.48019350500E+02 -0.27357741622E+01 -0.56581638896E+01  0.48656420967E+02  0.47000000000E+01 0.  1.
         15    1    4    4    0    0 -0.10402864399E+02  0.14121205198E+02  0.56968696860E+01  0.18526739518E+02  0.17770000000E+01 0. -1.
        -16    1    4    4    0    0 -0.15269260345E+02 -0.36736730651E+02  0.21187558382E+03  0.21557829369E+03  0.00000000000E+00 0.  1.
<mgrwt>
<rscale>  2 0.18894638E+03</rscale>
<asrwt>0</asrwt>
<pdfrwt beam="1">  1       21 0.63788264E-01 0.18952983E+03</pdfrwt>
<pdfrwt beam="2">  1       21 0.13708690E-01 0.18952983E+03</pdfrwt>
<totfact> 0.10499498E+05</totfact>
</mgrwt>
</event>
<event>
12    2  0.4097182E-002  0.2259852E+03  0.7546771E-02  0.1129777E+00
         21   -1    0    0  501  502  0.00000000000E+00  0.00000000000E+00  0.21599775823E+03  0.21599775823E+03  0.00000000000E+00 0. -1.
         21   -1    0    0  502  503 -0.00000000000E+00 -0.00000000000E+00 -0.85372779083E+03  0.85372779083E+03  0.00000000000E+00 0.  1.
         -6    2    1    2    0  503  0.12816142009E+03  0.64536576192E+02 -0.77396634696E+03  0.80585127810E+03  0.17257478646E+03 0.  0.
        -24    2    3    3    0    0  0.86819158690E+02  0.11069888602E+03 -0.54150730205E+03  0.56522825554E+03  0.80380426732E+02 0.  0.
          6    2    1    2  501    0 -0.12816142009E+03 -0.64536576192E+02  0.13623631436E+03  0.26387427096E+03  0.17458229653E+03 0.  0.
         24    2    5    5    0    0 -0.14591021358E+03 -0.41690247731E+02  0.15302707372E+03  0.23009566835E+03  0.80615532752E+02 0.  0.
          5    1    5    5  501    0  0.17748793489E+02 -0.22846328461E+02 -0.16790759361E+02  0.33778602612E+02  0.47000000000E+01 0. -1.
        -15    1    6    6    0    0 -0.38718109442E+02 -0.30808215050E+02  0.91529586292E+01  0.50350496463E+02  0.17770000000E+01 0.  1.
         16    1    6    6    0    0 -0.10719210413E+03 -0.10882032680E+02  0.14387411509E+03  0.17974517189E+03  0.00000000000E+00 0. -1.
         -5    1    3    3    0  503  0.41342261396E+02 -0.46162309830E+02 -0.23245904491E+03  0.24062302256E+03  0.47000000000E+01 0.  1.
         15    1    4    4    0    0  0.24962769061E+02  0.50242846110E+02 -0.94363295945E+02  0.10979559543E+03  0.17770000000E+01 0. -1.
        -16    1    4    4    0    0  0.61856389629E+02  0.60456039913E+02 -0.44714400611E+03  0.45543266011E+03  0.00000000000E+00 0.  1.
<mgrwt>
<rscale>  2 0.22559736E+03</rscale>
<asrwt>0</asrwt>
<pdfrwt beam="1">  1       21 0.33230425E-01 0.22598517E+03</pdfrwt>
<pdfrwt beam="2">  1       21 0.13134273E+00 0.22598517E+03</pdfrwt>
<totfact> 0.35739070E+03</totfact>
</mgrwt>
</event>
<event>
12    2  0.4097182E-002  0.1742652E+03  0.7546771E-02  0.1173645E+00
         21   -1    0    0  503  502  0.00000000000E+00  0.00000000000E+00  0.40930064147E+03  0.40930064147E+03  0.00000000000E+00 0.  1.
         21   -1    0    0  501  503 -0.00000000000E+00 -0.00000000000E+00 -0.75075263345E+02  0.75075263345E+02  0.00000000000E+00 0.  1.
          6    2    1    2  501    0 -0.53010304831E+01 -0.18217865565E+02  0.13719446854E+03  0.22178974142E+03  0.17322925749E+03 0.  0.
         24    2    3    3    0    0 -0.29273590828E+01 -0.30847567368E+02  0.47556911317E+01  0.88645971585E+02  0.82917729325E+02 0.  0.
         -6    2    1    2    0  502  0.53010304831E+01  0.18217865565E+02  0.19703090958E+03  0.26258616339E+03  0.17254078453E+03 0.  0.
        -24    2    5    5    0    0 -0.63009722625E+02  0.14929300939E+02  0.10813671417E+03  0.15033002046E+03  0.81929585193E+02 0.  0.
          5    1    3    3  501    0 -0.23736714003E+01  0.12629701803E+02  0.13243877741E+03  0.13314376984E+03  0.47000000000E+01 0. -1.
        -15    1    4    4    0    0 -0.38208576568E+02 -0.36341773544E+02  0.43024093906E+01  0.52936644049E+02  0.17770000000E+01 0.  1.
         16    1    4    4    0    0  0.35281217485E+02  0.54942061752E+01  0.45328174118E+00  0.35709327536E+02  0.00000000000E+00 0. -1.
         -5    1    5    5    0  502  0.68310753108E+02  0.32885646259E+01  0.88894195415E+02  0.11225614293E+03  0.47000000000E+01 0.  1.
         15    1    6    6    0    0 -0.19208571732E+02  0.20440655462E+02  0.10194860274E+03  0.10575190284E+03  0.17770000000E+01 0. -1.
        -16    1    6    6    0    0 -0.43801150893E+02 -0.55113545229E+01  0.61881114272E+01  0.44578117628E+02  0.00000000000E+00 0.  1.
<mgrwt>
<rscale>  2 0.17409388E+03</rscale>
<asrwt>0</asrwt>
<pdfrwt beam="1">  1       21 0.62969329E-01 0.17426522E+03</pdfrwt>
<pdfrwt beam="2">  1       21 0.11550041E-01 0.17426522E+03</pdfrwt>
<totfact> 0.14761389E+05</totfact>
</mgrwt>
</event>
<event>
12    2  0.4097182E-002  0.1920829E+03  0.7546771E-02  0.1158433E+00
         21   -1    0    0  503  502  0.00000000000E+00  0.00000000000E+00  0.41323079716E+03  0.41323079716E+03  0.00000000000E+00 0. -1.
         21   -1    0    0  501  503 -0.00000000000E+00 -0.00000000000E+00 -0.14978266395E+03  0.14978266395E+03  0.00000000000E+00 0. -1.
          6    2    1    2  501    0 -0.22483069119E+02 -0.81747952145E+02 -0.54181820503E+02  0.19181994015E+03  0.16331259501E+03 0.  0.
         24    2    3    3    0    0  0.21983427498E+02 -0.46640087868E+02 -0.84187576643E+02  0.12753722975E+03  0.80744213596E+02 0.  0.
         -6    2    1    2    0  502  0.22483069119E+02  0.81747952145E+02  0.31762995372E+03  0.37119352096E+03  0.17235900449E+03 0.  0.
        -24    2    5    5    0    0  0.25453371377E+02  0.11820768930E+03  0.19404438814E+03  0.24222213984E+03  0.79983801720E+02 0.  0.
          5    1    3    3  501    0 -0.44466496616E+02 -0.35107864277E+02  0.30005756140E+02  0.64282710404E+02  0.47000000000E+01 0. -1.
        -15    1    4    4    0    0  0.48370332183E+02 -0.44771794710E+02 -0.43447135909E+02  0.78962104738E+02  0.17770000000E+01 0.  1.
         16    1    4    4    0    0 -0.26386904686E+02 -0.18682931580E+01 -0.40740440735E+02  0.48575125007E+02  0.00000000000E+00 0. -1.
         -5    1    5    5    0  502 -0.29703022588E+01 -0.36459737152E+02  0.12358556558E+03  0.12897138112E+03  0.47000000000E+01 0.  1.
         15    1    6    6    0    0 -0.21910635407E+02  0.68879507634E+02  0.70335587625E+02  0.10086979296E+03  0.17770000000E+01 0. -1.
        -16    1    6    6    0    0  0.47364006784E+02  0.49328181662E+02  0.12370880051E+03  0.14135234688E+03  0.00000000000E+00 0.  1.
<mgrwt>
<rscale>  2 0.19003174E+03</rscale>
<asrwt>0</asrwt>
<pdfrwt beam="1">  1       21 0.63573968E-01 0.19208291E+03</pdfrwt>
<pdfrwt beam="2">  1       21 0.23043487E-01 0.19208291E+03</pdfrwt>
<totfact> 0.40461149E+04</totfact>
</mgrwt>
</event>
<event>
12    2  0.4097182E-002  0.2014468E+03  0.7546771E-02  0.1149915E+00
         21   -1    0    0  503  502  0.00000000000E+00  0.00000000000E+00  0.12649068459E+03  0.12649068459E+03  0.00000000000E+00 0. -1.
         21   -1    0    0  501  503 -0.00000000000E+00 -0.00000000000E+00 -0.35518235861E+03  0.35518235861E+03  0.00000000000E+00 0. -1.
          6    2    1    2  501    0 -0.31025160720E+02  0.83583124229E+02 -0.19811856687E+03  0.27791940331E+03  0.17331915344E+03 0.  0.
         24    2    3    3    0    0 -0.50753681359E+02  0.48872381473E+02 -0.21115665204E+03  0.23565675013E+03  0.77346792670E+02 0.  0.
         -6    2    1    2    0  502  0.31025160720E+02 -0.83583124229E+02 -0.30573107159E+02  0.20375363988E+03  0.18064365926E+03 0.  0.
        -24    2    5    5    0    0 -0.42026903916E+02 -0.60769405315E+02 -0.54085127001E+02  0.12355404515E+03  0.82953118299E+02 0.  0.
          5    1    3    3  501    0  0.19728520639E+02  0.34710742756E+02  0.13038085177E+02  0.42262653187E+02  0.47000000000E+01 0. -1.
        -15    1    4    4    0    0 -0.35713204191E+02 -0.13003628177E+02 -0.53716339015E+02  0.65826515217E+02  0.17770000000E+01 0.  1.
         16    1    4    4    0    0 -0.15040477168E+02  0.61876009650E+02 -0.15744031303E+03  0.16983023491E+03  0.00000000000E+00 0. -1.
         -5    1    5    5    0  502  0.73052064636E+02 -0.22813718915E+02  0.23512019842E+02  0.80199594733E+02  0.47000000000E+01 0.  1.
         15    1    6    6    0    0 -0.60176822388E+01 -0.20311318471E+02  0.21717241111E+02  0.30390104443E+02  0.17770000000E+01 0. -1.
        -16    1    6    6    0    0 -0.36009221677E+02 -0.40458086843E+02 -0.75802368113E+02  0.93163940708E+02  0.00000000000E+00 0.  1.
<mgrwt>
<rscale>  2 0.19979126E+03</rscale>
<asrwt>0</asrwt>
<pdfrwt beam="1">  1       21 0.19460106E-01 0.20144684E+03</pdfrwt>
<pdfrwt beam="2">  1       21 0.54643439E-01 0.20144684E+03</pdfrwt>
<totfact> 0.76524741E+04</totfact>
</mgrwt>
</event>
<event>
12    2  0.4097182E-002  0.1873703E+03  0.7546771E-02  0.1162217E+00
         21   -1    0    0  501  502  0.00000000000E+00  0.00000000000E+00  0.66478256742E+02  0.66478256742E+02  0.00000000000E+00 0.  1.
         21   -1    0    0  502  503 -0.00000000000E+00 -0.00000000000E+00 -0.56325261968E+03  0.56325261968E+03  0.00000000000E+00 0.  1.
         -6    2    1    2    0  503  0.57046388141E+02  0.30146753804E+02 -0.34712074151E+03  0.39446221007E+03  0.17591051367E+03 0.  0.
        -24    2    3    3    0    0 -0.74661938504E+01 -0.40067804398E+02 -0.13333692768E+03  0.16033069473E+03  0.79158211131E+02 0.  0.
          6    2    1    2  501    0 -0.57046388141E+02 -0.30146753804E+02 -0.14965362143E+03  0.23526866636E+03  0.16968211985E+03 0.  0.
         24    2    5    5    0    0 -0.71493072886E+02 -0.73082912960E+02 -0.83022097342E+02  0.15455887472E+03  0.80891318887E+02 0.  0.
          5    1    5    5  501    0  0.14446684745E+02  0.42936159155E+02 -0.66631524087E+02  0.80709791632E+02  0.47000000000E+01 0. -1.
        -15    1    6    6    0    0 -0.81835822474E+02 -0.31819783810E+02 -0.55237647214E+02  0.10374948617E+03  0.17770000000E+01 0.  1.
         16    1    6    6    0    0  0.10342749588E+02 -0.41263129149E+02 -0.27784450128E+02  0.50809388553E+02  0.00000000000E+00 0. -1.
         -5    1    3    3    0  503  0.64512581992E+02  0.70214558202E+02 -0.21378381383E+03  0.23413151534E+03  0.47000000000E+01 0.  1.
         15    1    4    4    0    0  0.96791645678E+01 -0.59644320382E+01  0.79447369870E+01  0.13983463486E+02  0.17770000000E+01 0. -1.
        -16    1    4    4    0    0 -0.17145358418E+02 -0.34103372360E+02 -0.14128166467E+03  0.14634723124E+03  0.00000000000E+00 0.  1.
<mgrwt>
<rscale>  2 0.18589424E+03</rscale>
<asrwt>0</asrwt>
<pdfrwt beam="1">  1       21 0.10227424E-01 0.18737029E+03</pdfrwt>
<pdfrwt beam="2">  1       21 0.86654249E-01 0.18737029E+03</pdfrwt>
<totfact> 0.89598988E+04</totfact>
</mgrwt>
</event>
<event>
12    2  0.4097182E-002  0.2135787E+03  0.7546771E-02  0.1142560E+00
         21   -1    0    0  501  502  0.00000000000E+00  0.00000000000E+00  0.29570548293E+03  0.29570548293E+03  0.00000000000E+00 0. -1.
         21   -1    0    0  502  503 -0.00000000000E+00 -0.00000000000E+00 -0.31342245528E+03  0.31342245528E+03  0.00000000000E+00 0. -1.
         -6    2    1    2    0  503 -0.35921906867E+02  0.81776568309E+02 -0.23442160961E+03  0.30486364677E+03  0.17323556666E+03 0.  0.
        -24    2    3    3    0    0 -0.58125148575E+02  0.11524401534E+03 -0.16760123977E+03  0.22676047284E+03  0.81672642316E+02 0.  0.
          6    2    1    2  501    0  0.35921906867E+02 -0.81776568309E+02  0.21670463726E+03  0.30426429143E+03  0.19400533166E+03 0.  0.
         24    2    5    5    0    0  0.71053640674E+02  0.83250191964E+01  0.11686488089E+03  0.16518660903E+03  0.92256650807E+02 0.  0.
          5    1    5    5  501    0 -0.35131733807E+02 -0.90101587506E+02  0.99839756368E+02  0.13907768240E+03  0.47000000000E+01 0. -1.
        -15    1    6    6    0    0 -0.11126720975E+02  0.29528252021E+02  0.26859613266E+02  0.41476718058E+02  0.17770000000E+01 0.  1.
         16    1    6    6    0    0  0.82180361649E+02 -0.21203232825E+02  0.90005267629E+02  0.12370989097E+03  0.00000000000E+00 0. -1.
         -5    1    3    3    0  503  0.22203241709E+02 -0.33467447029E+02 -0.66820369839E+02  0.78103173933E+02  0.47000000000E+01 0.  1.
         15    1    4    4    0    0  0.20835937981E+02  0.26489851353E+02 -0.32404267985E+02  0.46787208176E+02  0.17770000000E+01 0. -1.
        -16    1    4    4    0    0 -0.78961086556E+02  0.88754163984E+02 -0.13519697178E+03  0.17997326467E+03  0.00000000000E+00 0.  1.
<mgrwt>
<rscale>  2 0.20874917E+03</rscale>
<asrwt>0</asrwt>
<pdfrwt beam="1">  1       21 0.45493151E-01 0.21357870E+03</pdfrwt>
<pdfrwt beam="2">  1       21 0.48218839E-01 0.21357870E+03</pdfrwt>
<totfact> 0.18803057E+04</totfact>
</mgrwt>
</event>
<event>
12    2  0.4097182E-002  0.2004962E+03  0.7546771E-02  0.1150891E+00
         21   -1    0    0  503  502  0.00000000000E+00  0.00000000000E+00  0.59539610647E+03  0.59539610647E+03  0.00000000000E+00 0.  1.
         21   -1    0    0  501  503 -0.00000000000E+00 -0.00000000000E+00 -0.67713079037E+02  0.67713079037E+02  0.00000000000E+00 0.  1.
          6    2    1    2  501    0  0.74253622438E+02 -0.42894445516E+02  0.33400082304E+03  0.38955779238E+03  0.18123241960E+03 0.  0.
         24    2    3    3    0    0  0.12049735519E+03 -0.16419878097E+02  0.25843015479E+03  0.29697052847E+03  0.81339565230E+02 0.  0.
         -6    2    1    2    0  502 -0.74253622438E+02  0.42894445516E+02  0.19368220439E+03  0.27355139312E+03  0.17310122611E+03 0.  0.
        -24    2    5    5    0    0 -0.28396129899E+02  0.48592785819E+02  0.20275064430E+03  0.22622584710E+03  0.83082555959E+02 0.  0.
          5    1    3    3  501    0 -0.46243732751E+02 -0.26474567419E+02  0.75570668246E+02  0.92587263908E+02  0.47000000000E+01 0. -1.
        -15    1    4    4    0    0  0.63223168291E+02 -0.20925745172E+02  0.57546477171E+02  0.88033008489E+02  0.17770000000E+01 0.  1.
         16    1    4    4    0    0  0.57274186898E+02  0.45058670754E+01  0.20088367762E+03  0.20893751998E+03  0.00000000000E+00 0. -1.
         -5    1    5    5    0  502 -0.45857492539E+02 -0.56983403026E+01 -0.90684399072E+01  0.47325546025E+02  0.47000000000E+01 0.  1.
         15    1    6    6    0    0 -0.47736128133E+02  0.30957374953E+02  0.18746302990E+03  0.19591488535E+03  0.17770000000E+01 0. -1.
        -16    1    6    6    0    0  0.19339998235E+02  0.17635410866E+02  0.15287614399E+02  0.30310961749E+02  0.00000000000E+00 0.  1.
<mgrwt>
<rscale>  2 0.19864094E+03</rscale>
<asrwt>0</asrwt>
<pdfrwt beam="1">  1       21 0.91599398E-01 0.20049619E+03</pdfrwt>
<pdfrwt beam="2">  1       21 0.10417397E-01 0.20049619E+03</pdfrwt>
<totfact> 0.75853315E+04</totfact>
</mgrwt>
</event>
<event>
12    2  0.4097182E-002  0.2010677E+03  0.7546771E-02  0.1149299E+00
         21   -1    0    0  501  502  0.00000000000E+00  0.00000000000E+00  0.21613233537E+03  0.21613233537E+03  0.00000000000E+00 0. -1.
         21   -1    0    0  502  503 -0.00000000000E+00 -0.00000000000E+00 -0.27964281023E+03  0.27964281023E+03  0.00000000000E+00 0.  1.
         -6    2    1    2    0  503  0.44692100751E+02  0.90577653329E+02 -0.17605087423E+03  0.26724917430E+03  0.17385774558E+03 0.  0.
        -24    2    3    3    0    0  0.54836089091E+02  0.11206186816E+03 -0.18855382287E+03  0.23999324447E+03  0.80494436521E+02 0.  0.
          6    2    1    2  501    0 -0.44692100751E+02 -0.90577653329E+02  0.11254039937E+03  0.22852597130E+03  0.17133908754E+03 0.  0.
         24    2    5    5    0    0 -0.20365785906E+02  0.14211882094E+02  0.78707619857E+02  0.11565718333E+03  0.81024390185E+02 0.  0.
          5    1    5    5  501    0 -0.24326314845E+02 -0.10478953542E+03  0.33832779510E+02  0.11286878797E+03  0.47000000000E+01 0. -1.
        -15    1    6    6    0    0 -0.34525923873E+02 -0.24417623215E+02  0.49893670224E+02  0.65427790732E+02  0.17770000000E+01 0.  1.
         16    1    6    6    0    0  0.14160137967E+02  0.38629505309E+02  0.28813949633E+02  0.50229392601E+02  0.00000000000E+00 0. -1.
         -5    1    3    3    0  503 -0.10143988340E+02 -0.21484214831E+02  0.12502948639E+02  0.27255929833E+02  0.47000000000E+01 0.  1.
         15    1    4    4    0    0  0.63392748985E+01  0.97135952084E+02 -0.11573941423E+03  0.15124268355E+03  0.17770000000E+01 0. -1.
        -16    1    4    4    0    0  0.48496814193E+02  0.14925916077E+02 -0.72814408640E+02  0.88750560917E+02  0.00000000000E+00 0.  1.
<mgrwt>
<rscale>  2 0.20052201E+03</rscale>
<asrwt>0</asrwt>
<pdfrwt beam="1">  1       21 0.33251129E-01 0.20106768E+03</pdfrwt>
<pdfrwt beam="2">  1       21 0.43021970E-01 0.20106768E+03</pdfrwt>
<totfact> 0.45058787E+04</totfact>
</mgrwt>
</event>
<event>
12    2  0.4097182E-002  0.1805578E+03  0.7546771E-02  0.1168351E+00
         21   -1    0    0  501  502  0.00000000000E+00  0.00000000000E+00  0.34516469739E+02  0.34516469739E+02  0.00000000000E+00 0. -1.
         21   -1    0    0  502  503 -0.00000000000E+00 -0.00000000000E+00 -0.13360300775E+04  0.13360300775E+04  0.00000000000E+00 0. -1.
         -6    2    1    2    0  503  0.47704585002E+02  0.13192580640E+02 -0.10381037656E+04  0.10536890152E+04  0.17364141476E+03 0.  0.
        -24    2    3    3    0    0  0.69351233889E+00  0.51114396083E+02 -0.40927828571E+03  0.42195198190E+03  0.89003356300E+02 0.  0.
          6    2    1    2  501    0 -0.47704585002E+02 -0.13192580640E+02 -0.26340984218E+03  0.31685753209E+03  0.16900940527E+03 0.  0.
         24    2    5    5    0    0 -0.51326865777E+02 -0.70880278189E+02 -0.17881316126E+03  0.21429204184E+03  0.79299883802E+02 0.  0.
          5    1    5    5  501    0  0.36222807746E+01  0.57687697549E+02 -0.84596680921E+02  0.10256549025E+03  0.47000000000E+01 0. -1.
        -15    1    6    6    0    0  0.95074979468E+01 -0.28353437367E+02 -0.10662004986E+03  0.11074882703E+03  0.17770000000E+01 0.  1.
         16    1    6    6    0    0 -0.60834363723E+02 -0.42526840823E+02 -0.72193111398E+02  0.10354321481E+03  0.00000000000E+00 0. -1.
         -5    1    3    3    0  503  0.47011072663E+02 -0.37921815443E+02 -0.62882547991E+03  0.63173703329E+03  0.47000000000E+01 0.  1.
         15    1    4    4    0    0  0.33614265066E+02  0.56167851055E+02 -0.32074352544E+03  0.32735960830E+03  0.17770000000E+01 0. -1.
        -16    1    4    4    0    0 -0.32920752727E+02 -0.50534549719E+01 -0.88534760266E+02  0.94592373597E+02  0.00000000000E+00 0.  1.
<mgrwt>
<rscale>  2 0.17943485E+03</rscale>
<asrwt>0</asrwt>
<pdfrwt beam="1">  1       21 0.53102271E-02 0.18055778E+03</pdfrwt>
<pdfrwt beam="2">  1       21 0.20554305E+00 0.18055778E+03</pdfrwt>
<totfact> 0.30328212E+04</totfact>
</mgrwt>
</event>
<event>
12    2  0.4097182E-002  0.1777486E+03  0.7546771E-02  0.1170652E+00
         21   -1    0    0  501  502  0.00000000000E+00  0.00000000000E+00  0.38375473316E+02  0.38375473316E+02  0.00000000000E+00 0. -1.
         21   -1    0    0  502  503 -0.00000000000E+00 -0.00000000000E+00 -0.24493819592E+04  0.24493819592E+04  0.00000000000E+00 0. -1.
         -6    2    1    2    0  503  0.23378629463E+02 -0.16216140932E+01 -0.22197865017E+04  0.22266833843E+04  0.17354420502E+03 0.  0.
        -24    2    3    3    0    0 -0.27618721846E+02 -0.43604716041E+02 -0.83864307180E+03  0.84395326802E+03  0.79188077727E+02 0.  0.
          6    2    1    2  501    0 -0.23378629463E+02  0.16216140932E+01 -0.19121998420E+03  0.26107404817E+03  0.17619700998E+03 0.  0.
         24    2    5    5    0    0 -0.26514010146E+02  0.35535762176E+02 -0.20425988596E+03  0.22430274020E+03  0.81386946865E+02 0.  0.
          5    1    5    5  501    0  0.31353806829E+01 -0.33914148082E+02  0.13039901764E+02  0.36771307975E+02  0.47000000000E+01 0. -1.
        -15    1    6    6    0    0 -0.47544647407E+02  0.23581463225E+02 -0.18749771868E+03  0.19487208919E+03  0.17770000000E+01 0.  1.
         16    1    6    6    0    0  0.21030637261E+02  0.11954298950E+02 -0.16762167282E+02  0.29430651011E+02  0.00000000000E+00 0. -1.
         -5    1    3    3    0  503  0.50997351309E+02  0.41983101948E+02 -0.13811434299E+04  0.13827301163E+04  0.47000000000E+01 0.  1.
         15    1    4    4    0    0  0.12364040654E+02 -0.37229796499E+02 -0.64121856790E+03  0.64241990691E+03  0.17770000000E+01 0. -1.
        -16    1    4    4    0    0 -0.39982762500E+02 -0.63749195419E+01 -0.19742450390E+03  0.20153336110E+03  0.00000000000E+00 0.  1.
<mgrwt>
<rscale>  2 0.17708763E+03</rscale>
<asrwt>0</asrwt>
<pdfrwt beam="1">  1       21 0.59039225E-02 0.17774863E+03</pdfrwt>
<pdfrwt beam="2">  1       21 0.37682777E+00 0.17774863E+03</pdfrwt>
<totfact> 0.25046720E+03</totfact>
</mgrwt>
</event>
<event>
12    2  0.4097182E-002  0.1784342E+03  0.7546771E-02  0.1169891E+00
         21   -1    0    0  503  502  0.00000000000E+00  0.00000000000E+00  0.23383779054E+02  0.23383779054E+02  0.00000000000E+00 0. -1.
         21   -1    0    0  501  503 -0.00000000000E+00 -0.00000000000E+00 -0.14816741104E+04  0.14816741104E+04  0.00000000000E+00 0. -1.
          6    2    1    2  501    0 -0.25288201941E+02 -0.34000635685E+02 -0.96266568756E+03  0.97906281375E+03  0.17332983263E+03 0.  0.
         24    2    3    3    0    0 -0.37917561639E+01  0.48109265150E+02 -0.54971461788E+03  0.55745303096E+03  0.78986339362E+02 0.  0.
         -6    2    1    2    0  502  0.25288201941E+02  0.34000635685E+02 -0.49562464379E+03  0.52599507570E+03  0.17097220754E+03 0.  0.
        -24    2    5    5    0    0  0.76775502857E+02  0.43785495489E+02 -0.29066760678E+03  0.31439128874E+03  0.80886200015E+02 0.  0.
          5    1    3    3  501    0 -0.21496445777E+02 -0.82109900835E+02 -0.41295106968E+03  0.42160978279E+03  0.47000000000E+01 0. -1.
        -15    1    4    4    0    0  0.23409074172E+02 -0.11894245716E+01 -0.58869287204E+02  0.63388880644E+02  0.17770000000E+01 0.  1.
         16    1    4    4    0    0 -0.27200830336E+02  0.49298689722E+02 -0.49084533068E+03  0.49406415032E+03  0.00000000000E+00 0. -1.
         -5    1    5    5    0  502 -0.51487300916E+02 -0.97848598041E+01 -0.20495703701E+03  0.21160378696E+03  0.47000000000E+01 0.  1.
         15    1    6    6    0    0  0.50471969495E+02 -0.17171368609E+02 -0.13510538179E+03  0.14525459553E+03  0.17770000000E+01 0. -1.
        -16    1    6    6    0    0  0.26303533362E+02  0.60956864098E+02 -0.15556222498E+03  0.16913669321E+03  0.00000000000E+00 0.  1.
<mgrwt>
<rscale>  2 0.17785911E+03</rscale>
<asrwt>0</asrwt>
<pdfrwt beam="1">  1       21 0.35975054E-02 0.17843421E+03</pdfrwt>
<pdfrwt beam="2">  1       21 0.22794980E+00 0.17843421E+03</pdfrwt>
<totfact> 0.42554609E+04</totfact>
</mgrwt>
</event>
<event>
12    2  0.4097182E-002  0.2128876E+03  0.7546771E-02  0.1139327E+00
         21   -1    0    0  501  502  0.00000000000E+00  0.00000000000E+00  0.79125773174E+03  0.79125773174E+03  0.00000000000E+00 0. -1.
         21   -1    0    0  502  503 -0.00000000000E+00 -0.00000000000E+00 -0.87463020229E+02  0.87463020229E+02  0.00000000000E+00 0.  1.
         -6    2    1    2    0  503  0.34877806557E+02 -0.11817607358E+03  0.93547673309E+02  0.23240614763E+03  0.17343415037E+03 0.  0.
        -24    2    3    3    0    0  0.71690783659E+02 -0.11481554040E+03  0.34078219098E+02  0.16222641800E+03  0.82667459751E+02 0.  0.
          6    2    1    2  501    0 -0.34877806557E+02  0.11817607358E+03  0.61024703820E+03  0.64631460434E+03  0.17360608974E+03 0.  0.
         24    2    5    5    0    0  0.42567700676E+01  0.98326013506E+01  0.14185919886E+03  0.16394640358E+03  0.81483684290E+02 0.  0.
          5    1    5    5  501    0 -0.39134576624E+02  0.10834347223E+03  0.46838783934E+03  0.48236820076E+03  0.47000000000E+01 0. -1.
        -15    1    6    6    0    0  0.13499632281E+02 -0.55690929791E+00  0.14808484427E+03  0.14871055460E+03  0.17770000000E+01 0.  1.
         16    1    6    6    0    0 -0.92428622136E+01  0.10389510648E+02 -0.62256454057E+01  0.15235848980E+02  0.00000000000E+00 0. -1.
         -5    1    3    3    0  503 -0.36812977103E+02 -0.33605331854E+01  0.59469454211E+02  0.70179729627E+02  0.47000000000E+01 0.  1.
         15    1    4    4    0    0  0.81536702949E+02 -0.56021680278E+02  0.23247768034E+02  0.10163798029E+03  0.17770000000E+01 0. -1.
        -16    1    4    4    0    0 -0.98459192900E+01 -0.58793860117E+02  0.10830451063E+02  0.60588437712E+02  0.00000000000E+00 0.  1.
<mgrwt>
<rscale>  2 0.21285252E+03</rscale>
<asrwt>0</asrwt>
<pdfrwt beam="1">  1       21 0.12173195E+00 0.21288758E+03</pdfrwt>
<pdfrwt beam="2">  1       21 0.13455850E-01 0.21288758E+03</pdfrwt>
<totfact> 0.24046505E+04</totfact>
</mgrwt>
</event>
<event>
12    2  0.4097182E-002  0.2809646E+03  0.7546771E-02  0.1095187E+00
         21   -1    0    0  501  502  0.00000000000E+00  0.00000000000E+00  0.16842155879E+04  0.16842155879E+04  0.00000000000E+00 0.  1.
         21   -1    0    0  502  503 -0.00000000000E+00 -0.00000000000E+00 -0.50099465450E+02  0.50099465450E+02  0.00000000000E+00 0.  1.
         -6    2    1    2    0  503 -0.16016899017E+03  0.15217700433E+03  0.59570354151E+03  0.65856330878E+03  0.17329447843E+03 0.  0.
        -24    2    3    3    0    0 -0.78639998491E+02  0.83380351878E+02  0.17102098768E+03  0.22066227271E+03  0.79417428359E+02 0.  0.
          6    2    1    2  501    0  0.16016899017E+03 -0.15217700433E+03  0.10384125809E+04  0.10757517446E+04  0.17357759539E+03 0.  0.
         24    2    5    5    0    0  0.40899483886E+02 -0.37703163310E+02  0.58602686924E+03  0.59408339647E+03  0.80083045539E+02 0.  0.
          5    1    5    5  501    0  0.11926950628E+03 -0.11447384102E+03  0.45238571170E+03  0.48166834810E+03  0.47000000000E+01 0. -1.
        -15    1    6    6    0    0  0.51193655073E+02 -0.19465257514E+02  0.19660840852E+03  0.20410220626E+03  0.17770000000E+01 0.  1.
         16    1    6    6    0    0 -0.10294171187E+02 -0.18237905796E+02  0.38941846072E+03  0.38998119021E+03  0.00000000000E+00 0. -1.
         -5    1    3    3    0  503 -0.81528991676E+02  0.68796652451E+02  0.42468255383E+03  0.43790103608E+03  0.47000000000E+01 0.  1.
         15    1    4    4    0    0 -0.20736958271E+01  0.57283130207E+02  0.85437032908E+02  0.10289947299E+03  0.17770000000E+01 0. -1.
        -16    1    4    4    0    0 -0.76566302664E+02  0.26097221671E+02  0.85583954774E+02  0.11776279972E+03  0.00000000000E+00 0.  1.
<mgrwt>
<rscale>  2 0.28092092E+03</rscale>
<asrwt>0</asrwt>
<pdfrwt beam="1">  1       21 0.25911005E+00 0.28096464E+03</pdfrwt>
<pdfrwt beam="2">  1       21 0.77076114E-02 0.28096464E+03</pdfrwt>
<totfact> 0.69843611E+03</totfact>
</mgrwt>
</event>
<event>
11    2  0.4097182E-002  0.2165586E+03  0.7546771E-02  0.1139364E+00
         21   -1    0    0  501  502  0.00000000000E+00  0.00000000000E+00  0.31091760526E+03  0.31091760526E+03  0.00000000000E+00 0. -1.
         21   -1    0    0  502  503 -0.00000000000E+00 -0.00000000000E+00 -0.60811415951E+03  0.60811415951E+03  0.00000000000E+00 0. -1.
         -6    2    1    2    0  503 -0.96981349271E+02 -0.39980269849E+02 -0.55255722715E+03  0.59347883837E+03  0.18945669224E+03 0.  0.
        -24    2    3    3    0    0  0.11076702943E+02 -0.56909638000E+02 -0.19271108479E+03  0.21734790063E+03  0.82104491119E+02 0.  0.
          6    2    1    2  501    0  0.96981349271E+02  0.39980269849E+02  0.25536067290E+03  0.32555292639E+03  0.17254515506E+03 0.  0.
          5    1    5    5  501    0  0.65669149679E+02  0.19844521342E+02  0.44059429210E+02  0.81667408120E+02  0.47000000000E+01 0. -1.
        -15    1    5    5    0    0 -0.11571236778E+02  0.45998476739E+02  0.30838572560E+02  0.56603256704E+02  0.17770000000E+01 0.  1.
         16    1    5    5    0    0  0.42883436371E+02 -0.25862728232E+02  0.18046267113E+03  0.18728226157E+03  0.00000000000E+00 0. -1.
         -5    1    3    3    0  503 -0.10805805221E+03  0.16929368151E+02 -0.35984614235E+03  0.37613093774E+03  0.47000000000E+01 0.  1.
         15    1    4    4    0    0  0.46033026628E+02 -0.24841141071E+02 -0.87910612038E+02  0.10231107109E+03  0.17770000000E+01 0. -1.
        -16    1    4    4    0    0 -0.34956323685E+02 -0.32068496928E+02 -0.10480047276E+03  0.11503682954E+03  0.00000000000E+00 0.  1.
<mgrwt>
<rscale>  2 0.21280495E+03</rscale>
<asrwt>0</asrwt>
<pdfrwt beam="1">  1       21 0.47833478E-01 0.21655863E+03</pdfrwt>
<pdfrwt beam="2">  1       21 0.93556024E-01 0.21655863E+03</pdfrwt>
<totfact> 0.39357404E+03</totfact>
</mgrwt>
</event>
<event>
12    2  0.4097182E-002  0.2133622E+03  0.7546771E-02  0.1139034E+00
         21   -1    0    0  503  502  0.00000000000E+00  0.00000000000E+00  0.87827018123E+03  0.87827018123E+03  0.00000000000E+00 0. -1.
         21   -1    0    0  501  503 -0.00000000000E+00 -0.00000000000E+00 -0.60320643675E+02  0.60320643675E+02  0.00000000000E+00 0. -1.
          6    2    1    2  501    0  0.10889178962E+03  0.58916487895E+02  0.23203970149E+03  0.31522349238E+03  0.17376666161E+03 0.  0.
         24    2    3    3    0    0  0.12250697548E+03 -0.56383378583E+01  0.16260899871E+03  0.21933078514E+03  0.81391381301E+02 0.  0.
         -6    2    1    2    0  502 -0.10889178962E+03 -0.58916487895E+02  0.58590983607E+03  0.62336733253E+03  0.17311245153E+03 0.  0.
        -24    2    5    5    0    0 -0.27050432654E+02  0.17930885015E+01  0.42329398315E+03  0.43140466430E+03  0.78722596059E+02 0.  0.
          5    1    3    3  501    0 -0.13615185861E+02  0.64554825753E+02  0.69430702777E+02  0.95892707242E+02  0.47000000000E+01 0. -1.
        -15    1    4    4    0    0  0.80076799331E+01 -0.21300646304E+02  0.41386686291E+01  0.23197559740E+02  0.17770000000E+01 0.  1.
         16    1    4    4    0    0  0.11449929555E+03  0.15662308446E+02  0.15847033008E+03  0.19613322540E+03  0.00000000000E+00 0. -1.
         -5    1    5    5    0  502 -0.81841356967E+02 -0.60709576396E+02  0.16261585291E+03  0.19196266823E+03  0.47000000000E+01 0.  1.
         15    1    6    6    0    0 -0.39137872994E+02  0.20194045794E+01  0.41474879442E+03  0.41660001356E+03  0.17770000000E+01 0. -1.
        -16    1    6    6    0    0  0.12087440340E+02 -0.22631607794E+00  0.85451887342E+01  0.14804650737E+02  0.00000000000E+00 0.  1.
<mgrwt>
<rscale>  2 0.21322896E+03</rscale>
<asrwt>0</asrwt>
<pdfrwt beam="1">  1       21 0.13511848E+00 0.21336220E+03</pdfrwt>
<pdfrwt beam="2">  1       21 0.92800997E-02 0.21336220E+03</pdfrwt>
<totfact> 0.35850733E+04</totfact>
</mgrwt>
</event>
<event>
12    2  0.4097182E-002  0.2203836E+03  0.7546771E-02  0.1133672E+00
         21   -1    0    0  503  502  0.00000000000E+00  0.00000000000E+00  0.32257222119E+03  0.32257222119E+03  0.00000000000E+00 0.  1.
         21   -1    0    0  501  503 -0.00000000000E+00 -0.00000000000E+00 -0.15077892460E+03  0.15077892460E+03  0.00000000000E+00 0. -1.
          6    2    1    2  501    0  0.70672668927E+02  0.11693447410E+03  0.99400910937E+02  0.24176330134E+03  0.17291805983E+03 0.  0.
         24    2    3    3    0    0  0.52590019673E+02  0.22466444092E+02  0.10727290978E+03  0.14514420766E+03  0.79302664308E+02 0.  0.
         -6    2    1    2    0  502 -0.70672668927E+02 -0.11693447410E+03  0.72392385654E+02  0.23158784445E+03  0.17240642340E+03 0.  0.
        -24    2    5    5    0    0 -0.14220044788E+02 -0.60605419190E+02 -0.25411300912E+02  0.10530438431E+03  0.81043523072E+02 0.  0.
          5    1    3    3  501    0  0.18082649254E+02  0.94468030004E+02 -0.78719988430E+01  0.96619093676E+02  0.47000000000E+01 0. -1.
        -15    1    4    4    0    0  0.25602702922E+02  0.51045788997E+02  0.75012421958E+02  0.94293118244E+02  0.17770000000E+01 0.  1.
         16    1    4    4    0    0  0.26987316751E+02 -0.28579344905E+02  0.32260487822E+02  0.50851089419E+02  0.00000000000E+00 0. -1.
         -5    1    5    5    0  502 -0.56452624139E+02 -0.56329054906E+02  0.97803686565E+02  0.12628346014E+03  0.47000000000E+01 0.  1.
         15    1    6    6    0    0 -0.38272126071E+02 -0.64941674310E+02 -0.91621353923E+01  0.75955771012E+02  0.17770000000E+01 0. -1.
        -16    1    6    6    0    0  0.24052081282E+02  0.43362551191E+01 -0.16249165519E+02  0.29348613299E+02  0.00000000000E+00 0.  1.
<mgrwt>
<rscale>  2 0.22028328E+03</rscale>
<asrwt>0</asrwt>
<pdfrwt beam="1">  1       21 0.49626496E-01 0.22038365E+03</pdfrwt>
<pdfrwt beam="2">  1       21 0.23196758E-01 0.22038365E+03</pdfrwt>
<totfact> 0.66774108E+04</totfact>
</mgrwt>
</event>
<event>
12    2  0.4097182E-002  0.2400907E+03  0.7546771E-02  0.1120538E+00
         21   -1    0    0  501  502  0.00000000000E+00  0.00000000000E+00  0.22875156594E+03  0.22875156594E+03  0.00000000000E+00 0.  1.
         21   -1    0    0  502  503 -0.00000000000E+00 -0.00000000000E+00 -0.40696850278E+03  0.40696850278E+03  0.00000000000E+00 0.  1.
         -6    2    1    2    0  503 -0.15599809152E+03 -0.57355083782E+02 -0.28893737212E+03  0.37567051686E+03  0.17325854101E+03 0.  0.
        -24    2    3    3    0    0 -0.19922502026E+02  0.16156179523E+02 -0.88088430474E+02  0.12212987071E+03  0.80611447768E+02 0.  0.
          6    2    1    2  501    0  0.15599809152E+03  0.57355083782E+02  0.11072043528E+03  0.26004955186E+03  0.16655853158E+03 0.  0.
         24    2    5    5    0    0  0.11331108152E+02  0.53136553547E+01  0.41757107470E+02  0.91482423003E+02  0.80428531934E+02 0.  0.
          5    1    5    5  501    0  0.14466698337E+03  0.52041428427E+02  0.68963327813E+02  0.16856712886E+03  0.47000000000E+01 0. -1.
        -15    1    6    6    0    0  0.45280492094E+02  0.96084094448E+01  0.30484232717E+02  0.55453500067E+02  0.17770000000E+01 0.  1.
         16    1    6    6    0    0 -0.33949383942E+02 -0.42947540901E+01  0.11272874753E+02  0.36028922936E+02  0.00000000000E+00 0. -1.
         -5    1    3    3    0  503 -0.13607558949E+03 -0.73511263305E+02 -0.20084894165E+03  0.25354064615E+03  0.47000000000E+01 0.  1.
         15    1    4    4    0    0  0.50563131142E+01 -0.22653989311E+02 -0.68554941034E+00  0.23289423372E+02  0.17770000000E+01 0. -1.
        -16    1    4    4    0    0 -0.24978815140E+02  0.38810168834E+02 -0.87402881064E+02  0.98840447333E+02  0.00000000000E+00 0.  1.
<mgrwt>
<rscale>  2 0.23888430E+03</rscale>
<asrwt>0</asrwt>
<pdfrwt beam="1">  1       21 0.35192549E-01 0.24009068E+03</pdfrwt>
<pdfrwt beam="2">  1       21 0.62610539E-01 0.24009068E+03</pdfrwt>
<totfact> 0.17909369E+04</totfact>
</mgrwt>
</event>
<event>
12    2  0.4097182E-002  0.1914619E+03  0.7546771E-02  0.1157497E+00
         21   -1    0    0  501  502  0.00000000000E+00  0.00000000000E+00  0.10565467974E+04  0.10565467974E+04  0.00000000000E+00 0.  1.
         21   -1    0    0  502  503 -0.00000000000E+00 -0.00000000000E+00 -0.41741443893E+02  0.41741443893E+02  0.00000000000E+00 0. -1.
         -6    2    1    2    0  503  0.46482290963E+02  0.62359364664E+02  0.27564087009E+03  0.33472960481E+03  0.17325335592E+03 0.  0.
        -24    2    3    3    0    0  0.19191111831E+02  0.54153192990E+02  0.53176573280E+02  0.11039814677E+03  0.77840450795E+02 0.  0.
          6    2    1    2  501    0 -0.46482290963E+02 -0.62359364664E+02  0.73916448337E+03  0.76355863644E+03  0.17495246230E+03 0.  0.
         24    2    5    5    0    0 -0.47581557461E+01 -0.30482059906E+02  0.14729270830E+03  0.16934373075E+03  0.77655400345E+02 0.  0.
          5    1    5    5  501    0 -0.41724135217E+02 -0.31877304758E+02  0.59187177507E+03  0.59421490569E+03  0.47000000000E+01 0. -1.
        -15    1    6    6    0    0  0.11701409267E+02 -0.92297860643E+01  0.14092111057E+03  0.14171813245E+03  0.17770000000E+01 0.  1.
         16    1    6    6    0    0 -0.16459565013E+02 -0.21252273842E+02  0.63715977254E+01  0.27625598300E+02  0.00000000000E+00 0. -1.
         -5    1    3    3    0  503  0.27291179132E+02  0.82061716739E+01  0.22246429681E+03  0.22433145804E+03  0.47000000000E+01 0.  1.
         15    1    4    4    0    0  0.36978683861E+02  0.74594095946E-03  0.33985027414E+02  0.50254978638E+02  0.17770000000E+01 0. -1.
        -16    1    4    4    0    0 -0.17787572029E+02  0.54152447049E+02  0.19191545867E+02  0.60143168131E+02  0.00000000000E+00 0.  1.
<mgrwt>
<rscale>  2 0.19107288E+03</rscale>
<asrwt>0</asrwt>
<pdfrwt beam="1">  1       21 0.16254564E+00 0.19146190E+03</pdfrwt>
<pdfrwt beam="2">  1       21 0.64217614E-02 0.19146190E+03</pdfrwt>
<totfact> 0.42355683E+04</totfact>
</mgrwt>
</event>
<event>
12    2  0.4097182E-002  0.1747057E+03  0.7546771E-02  0.1174443E+00
         21   -1    0    0  501  502  0.00000000000E+00  0.00000000000E+00  0.38148754889E+03  0.38148754889E+03  0.00000000000E+00 0.  1.
         21   -1    0    0  502  503 -0.00000000000E+00 -0.00000000000E+00 -0.13820852583E+03  0.13820852583E+03  0.00000000000E+00 0.  1.
         -6    2    1    2    0  503  0.22912616587E+02  0.28125189431E+02 -0.49474111655E+02  0.18157583436E+03  0.17089786897E+03 0.  0.
        -24    2    3    3    0    0  0.52358403409E+02  0.66935365075E+02 -0.59419944020E+02  0.13163293019E+03  0.81084850981E+02 0.  0.
          6    2    1    2  501    0 -0.22912616587E+02 -0.28125189431E+02  0.29275313471E+03  0.33812024037E+03  0.16524189779E+03 0.  0.
         24    2    5    5    0    0  0.73641203834E+01  0.35177610654E+02  0.21937377316E+03  0.23648094678E+03  0.80664064347E+02 0.  0.
          5    1    5    5  501    0 -0.30276736970E+02 -0.63302800086E+02  0.73379361549E+02  0.10163929359E+03  0.47000000000E+01 0. -1.
        -15    1    6    6    0    0 -0.24998616340E+02  0.24196501318E+02  0.36556720289E+02  0.50497059540E+02  0.17770000000E+01 0.  1.
         16    1    6    6    0    0  0.32362736723E+02  0.10981109336E+02  0.18281705287E+03  0.18598388724E+03  0.00000000000E+00 0. -1.
         -5    1    3    3    0  503 -0.29445786822E+02 -0.38810175643E+02  0.99458323657E+01  0.49942904165E+02  0.47000000000E+01 0.  1.
         15    1    4    4    0    0 -0.15475950823E+02 -0.70210298716E+01 -0.78587765569E+01  0.18807392491E+02  0.17770000000E+01 0. -1.
        -16    1    4    4    0    0  0.67834354232E+02  0.73956394946E+02 -0.51561167463E+02  0.11282553770E+03  0.00000000000E+00 0.  1.
<mgrwt>
<rscale>  2 0.17330687E+03</rscale>
<asrwt>0</asrwt>
<pdfrwt beam="1">  1       21 0.58690392E-01 0.17470574E+03</pdfrwt>
<pdfrwt beam="2">  1       21 0.21262850E-01 0.17470574E+03</pdfrwt>
<totfact> 0.56380960E+04</totfact>
</mgrwt>
</event>
<event>
12    2  0.4097182E-002  0.2498054E+03  0.7546771E-02  0.1113432E+00
         21   -1    0    0  503  502  0.00000000000E+00  0.00000000000E+00  0.35239378074E+03  0.35239378074E+03  0.00000000000E+00 0.  1.
         21   -1    0    0  501  503 -0.00000000000E+00 -0.00000000000E+00 -0.18199365216E+03  0.18199365216E+03  0.00000000000E+00 0. -1.
          6    2    1    2  501    0  0.12285037048E+03 -0.13168525314E+03  0.41233296489E+02  0.25318552751E+03  0.17311703320E+03 0.  0.
         24    2    3    3    0    0  0.10498802102E+03 -0.15472125220E+03  0.13587491411E+01  0.20356909569E+03  0.80482172429E+02 0.  0.
         -6    2    1    2    0  502 -0.12285037048E+03  0.13168525314E+03  0.12916683209E+03  0.28120190539E+03  0.17308154628E+03 0.  0.
        -24    2    5    5    0    0 -0.41889369480E+02  0.13433266158E+03  0.11500205246E+03  0.19883429382E+03  0.80682222852E+02 0.  0.
          5    1    3    3  501    0  0.17862349458E+02  0.23035999065E+02  0.39874547348E+02  0.49616431828E+02  0.47000000000E+01 0. -1.
        -15    1    4    4    0    0  0.11785576513E+03 -0.14690131198E+03 -0.88543378935E+00  0.18834521114E+03  0.17770000000E+01 0.  1.
         16    1    4    4    0    0 -0.12867744116E+02 -0.78199402266E+01  0.22441829304E+01  0.15223884551E+02  0.00000000000E+00 0. -1.
         -5    1    5    5    0  502 -0.80961000996E+02 -0.26474084462E+01  0.14164779629E+02  0.82367611569E+02  0.47000000000E+01 0.  1.
         15    1    6    6    0    0 -0.44760275740E+02  0.85252101504E+02  0.30408104006E+02  0.10099115612E+03  0.17770000000E+01 0. -1.
        -16    1    6    6    0    0  0.28709062606E+01  0.49080560080E+02  0.84593948453E+02  0.97843137702E+02  0.00000000000E+00 0.  1.
<mgrwt>
<rscale>  2 0.24979923E+03</rscale>
<asrwt>0</asrwt>
<pdfrwt beam="1">  1       21 0.54214428E-01 0.24980538E+03</pdfrwt>
<pdfrwt beam="2">  1       21 0.27999023E-01 0.24980538E+03</pdfrwt>
<totfact> 0.38128615E+04</totfact>
</mgrwt>
</event>
<event>
12    2  0.4097182E-002  0.2222900E+03  0.7546771E-02  0.1132444E+00
         21   -1    0    0  501  502  0.00000000000E+00  0.00000000000E+00  0.16259350162E+04  0.16259350162E+04  0.00000000000E+00 0. -1.
         21   -1    0    0  502  503 -0.00000000000E+00 -0.00000000000E+00 -0.68876541993E+02  0.68876541993E+02  0.00000000000E+00 0. -1.
         -6    2    1    2    0  503  0.84795520694E+02 -0.10935410468E+03  0.14245060729E+03  0.26284498596E+03  0.17218220171E+03 0.  0.
        -24    2    3    3    0    0  0.28031745289E+02 -0.13150687353E+03  0.81492286068E+02  0.17652651579E+03  0.80254479982E+02 0.  0.
          6    2    1    2  501    0 -0.84795520694E+02  0.10935410468E+03  0.14146078669E+04  0.14319665722E+04  0.17396622180E+03 0.  0.
         24    2    5    5    0    0  0.51257638971E+00  0.26119667642E+02  0.29863666712E+03  0.30963896779E+03  0.77523748956E+02 0.  0.
          5    1    5    5  501    0 -0.85308097084E+02  0.83234437035E+02  0.11159711998E+04  0.11223276044E+04  0.47000000000E+01 0. -1.
        -15    1    6    6    0    0  0.13991793326E+02 -0.21999175820E+02  0.54507974062E+02  0.60448415882E+02  0.17770000000E+01 0.  1.
         16    1    6    6    0    0 -0.13479216936E+02  0.48118843463E+02  0.24412869306E+03  0.24919055191E+03  0.00000000000E+00 0. -1.
         -5    1    3    3    0  503  0.56763775405E+02  0.22152768854E+02  0.60958321225E+02  0.86318470171E+02  0.47000000000E+01 0.  1.
         15    1    4    4    0    0  0.18430659574E+02 -0.14099273659E+02 -0.11954213396E+02  0.26163709160E+02  0.17770000000E+01 0. -1.
        -16    1    4    4    0    0  0.96010857149E+01 -0.11740759987E+03  0.93446499465E+02  0.15036280663E+03  0.00000000000E+00 0.  1.
<mgrwt>
<rscale>  2 0.22194083E+03</rscale>
<asrwt>0</asrwt>
<pdfrwt beam="1">  1       21 0.25014382E+00 0.22229001E+03</pdfrwt>
<pdfrwt beam="2">  1       21 0.10596392E-01 0.22229001E+03</pdfrwt>
<totfact> 0.47198220E+03</totfact>
</mgrwt>
</event>
<event>
12    2  0.4097182E-002  0.2882661E+03  0.7546771E-02  0.1091277E+00
         21   -1    0    0  503  502  0.00000000000E+00  0.00000000000E+00  0.11234732362E+03  0.11234732362E+03  0.00000000000E+00 0.  1.
         21   -1    0    0  501  503 -0.00000000000E+00 -0.00000000000E+00 -0.74363800681E+03  0.74363800681E+03  0.00000000000E+00 0. -1.
          6    2    1    2  501    0 -0.14617285351E+03  0.17815377678E+03 -0.34848618756E+03  0.45226096211E+03  0.17318222671E+03 0.  0.
         24    2    3    3    0    0 -0.25783543135E+02  0.47746043189E+02 -0.62927923806E+02  0.11600901040E+03  0.80954871149E+02 0.  0.
         -6    2    1    2    0  502  0.14617285351E+03 -0.17815377678E+03 -0.28280449563E+03  0.40372436832E+03  0.17294424404E+03 0.  0.
        -24    2    5    5    0    0  0.18140817635E+02 -0.11571497121E+03 -0.14141758555E+03  0.20296791141E+03  0.86475405371E+02 0.  0.
          5    1    3    3  501    0 -0.12038931037E+03  0.13040773359E+03 -0.28555826375E+03  0.33625195171E+03  0.47000000000E+01 0. -1.
        -15    1    4    4    0    0 -0.41927084310E+02  0.24571876065E+01 -0.76155634267E+01  0.42720869665E+02  0.17770000000E+01 0.  1.
         16    1    4    4    0    0  0.16143541175E+02  0.45288855582E+02 -0.55312360379E+02  0.73288140735E+02  0.00000000000E+00 0. -1.
         -5    1    5    5    0  502  0.12803203587E+03 -0.62438805574E+02 -0.14138691008E+03  0.20075645692E+03  0.47000000000E+01 0.  1.
         15    1    6    6    0    0 -0.33300996882E+02 -0.27639944794E+02 -0.36496963057E+02  0.56640171106E+02  0.17770000000E+01 0. -1.
        -16    1    6    6    0    0  0.51441814518E+02 -0.88075026412E+02 -0.10492062249E+03  0.14632774030E+03  0.00000000000E+00 0.  1.
<mgrwt>
<rscale>  2 0.28823038E+03</rscale>
<asrwt>0</asrwt>
<pdfrwt beam="1">  1       21 0.17284203E-01 0.28826612E+03</pdfrwt>
<pdfrwt beam="2">  1       21 0.11440585E+00 0.28826612E+03</pdfrwt>
<totfact> 0.17049457E+04</totfact>
</mgrwt>
</event>
<event>
12    2  0.4097182E-002  0.2337760E+03  0.7546771E-02  0.1124147E+00
         21   -1    0    0  501  502  0.00000000000E+00  0.00000000000E+00  0.31749167972E+03  0.31749167972E+03  0.00000000000E+00 0. -1.
         21   -1    0    0  502  503 -0.00000000000E+00 -0.00000000000E+00 -0.18140570504E+03  0.18140570504E+03  0.00000000000E+00 0. -1.
         -6    2    1    2    0  503 -0.15309211364E+03  0.30750768048E+02  0.97881849827E+01  0.23318634244E+03  0.17290823214E+03 0.  0.
        -24    2    3    3    0    0 -0.16483134912E+03 -0.14844548911E+02  0.18318341893E+02  0.18510728094E+03  0.80866615625E+02 0.  0.
          6    2    1    2  501    0  0.15309211364E+03 -0.30750768048E+02  0.12629778971E+03  0.26571104232E+03  0.17397822085E+03 0.  0.
         24    2    5    5    0    0  0.17359141980E+03  0.51642992316E+01  0.93165814474E+02  0.21251394283E+03  0.79508841626E+02 0.  0.
          5    1    5    5  501    0 -0.20499306158E+02 -0.35915067280E+02  0.33131975232E+02  0.53197099483E+02  0.47000000000E+01 0. -1.
        -15    1    6    6    0    0  0.10638810427E+03 -0.11081608324E+02  0.95402249096E+02  0.14333868157E+03  0.17770000000E+01 0.  1.
         16    1    6    6    0    0  0.67203315533E+02  0.16245907555E+02 -0.22364346221E+01  0.69175261262E+02  0.00000000000E+00 0. -1.
         -5    1    3    3    0  503  0.11739235475E+02  0.45595316959E+02 -0.85301569105E+01  0.48079061504E+02  0.47000000000E+01 0.  1.
         15    1    4    4    0    0 -0.78068742674E+02 -0.63446032562E+01  0.49324043702E+02  0.92579703982E+02  0.17770000000E+01 0. -1.
        -16    1    4    4    0    0 -0.86762606445E+02 -0.84999456548E+01 -0.31005701808E+02  0.92527576959E+02  0.00000000000E+00 0.  1.
<mgrwt>
<rscale>  2 0.23357696E+03</rscale>
<asrwt>0</asrwt>
<pdfrwt beam="1">  1       21 0.48844874E-01 0.23377602E+03</pdfrwt>
<pdfrwt beam="2">  1       21 0.27908570E-01 0.23377602E+03</pdfrwt>
<totfact> 0.48119079E+04</totfact>
</mgrwt>
</event>
<event>
12    2  0.4097182E-002  0.2892512E+03  0.7546771E-02  0.1090743E+00
         21   -1    0    0  503  502  0.00000000000E+00  0.00000000000E+00  0.31328955214E+03  0.31328955214E+03  0.00000000000E+00 0.  1.
         21   -1    0    0  501  503 -0.00000000000E+00 -0.00000000000E+00 -0.36084171864E+03  0.36084171864E+03  0.00000000000E+00 0. -1.
          6    2    1    2  501    0 -0.41709603320E+02 -0.22807160562E+03 -0.19562826880E+03  0.34919432483E+03  0.17294481385E+03 0.  0.
         24    2    3    3    0    0 -0.19215447752E+02 -0.45406994744E+02 -0.25137785157E+02  0.98273137767E+02  0.81207590532E+02 0.  0.
         -6    2    1    2    0  502  0.41709603320E+02  0.22807160562E+03  0.14807610230E+03  0.32493694596E+03  0.17291945661E+03 0.  0.
        -24    2    5    5    0    0 -0.38035224969E+02  0.77437654754E+02  0.72944170947E+02  0.13861270732E+03  0.80307918936E+02 0.  0.
          5    1    3    3  501    0 -0.22494155567E+02 -0.18266461088E+03 -0.17049048364E+03  0.25092118706E+03  0.47000000000E+01 0. -1.
        -15    1    4    4    0    0  0.57656557013E+00  0.23306171325E+02 -0.83022234674E+01  0.24811180810E+02  0.17770000000E+01 0.  1.
         16    1    4    4    0    0 -0.19792013322E+02 -0.68713166069E+02 -0.16835561689E+02  0.73461956957E+02  0.00000000000E+00 0. -1.
         -5    1    5    5    0  502  0.79744828289E+02  0.15063395087E+03  0.75131931351E+02  0.18632423863E+03  0.47000000000E+01 0.  1.
         15    1    6    6    0    0 -0.33246385879E+02  0.17477114535E+02  0.68692891717E+02  0.78311192099E+02  0.17770000000E+01 0. -1.
        -16    1    6    6    0    0 -0.47888390907E+01  0.59960540218E+02  0.42512792298E+01  0.60301515223E+02  0.00000000000E+00 0.  1.
<mgrwt>
<rscale>  2 0.28924741E+03</rscale>
<asrwt>0</asrwt>
<pdfrwt beam="1">  1       21 0.48198393E-01 0.28925120E+03</pdfrwt>
<pdfrwt beam="2">  1       21 0.55514110E-01 0.28925120E+03</pdfrwt>
<totfact> 0.11920049E+04</totfact>
</mgrwt>
</event>
<event>
12    2  0.4097182E-002  0.2096046E+03  0.7546771E-02  0.1142667E+00
         21   -1    0    0  501  502  0.00000000000E+00  0.00000000000E+00  0.11275725629E+03  0.11275725629E+03  0.00000000000E+00 0. -1.
         21   -1    0    0  502  503 -0.00000000000E+00 -0.00000000000E+00 -0.20995756816E+04  0.20995756816E+04  0.00000000000E+00 0. -1.
         -6    2    1    2    0  503  0.93768082276E+02 -0.73415640514E+02 -0.19954932559E+04  0.20064713808E+04  0.17248697946E+03 0.  0.
        -24    2    3    3    0    0  0.37290082570E+02  0.71743352071E+01 -0.14167323988E+04  0.14193847361E+04  0.77976393838E+02 0.  0.
          6    2    1    2  501    0 -0.93768082276E+02  0.73415640514E+02  0.86748305689E+01  0.20586155711E+03  0.16769441995E+03 0.  0.
         24    2    5    5    0    0 -0.93684098990E+02  0.69266981917E+00 -0.23590210752E+02  0.12616362482E+03  0.81139213633E+02 0.  0.
          5    1    5    5  501    0 -0.83983286408E-01  0.72722970694E+02  0.32265041321E+02  0.79697932290E+02  0.47000000000E+01 0. -1.
        -15    1    6    6    0    0  0.94172704188E+01  0.97578446200E+01 -0.17874489943E+02  0.22506790830E+02  0.17770000000E+01 0.  1.
         16    1    6    6    0    0 -0.10310136941E+03 -0.90651748008E+01 -0.57157208091E+01  0.10365683399E+03  0.00000000000E+00 0. -1.
         -5    1    3    3    0  503  0.56477999706E+02 -0.80589975721E+02 -0.57876085707E+03  0.58708664464E+03  0.47000000000E+01 0.  1.
         15    1    4    4    0    0  0.39784126960E+02 -0.24569909181E+02 -0.52416039628E+03  0.52624493913E+03  0.17770000000E+01 0. -1.
        -16    1    4    4    0    0 -0.24940443904E+01  0.31744244388E+02 -0.89257200252E+03  0.89313979700E+03  0.00000000000E+00 0.  1.
<mgrwt>
<rscale>  2 0.20861612E+03</rscale>
<asrwt>0</asrwt>
<pdfrwt beam="1">  1       21 0.17347270E-01 0.20960455E+03</pdfrwt>
<pdfrwt beam="2">  1       21 0.32301165E+00 0.20960455E+03</pdfrwt>
<totfact> 0.73816962E+02</totfact>
</mgrwt>
</event>
<event>
12    2  0.4097182E-002  0.2815745E+03  0.7546771E-02  0.1095334E+00
         21   -1    0    0  503  502  0.00000000000E+00  0.00000000000E+00  0.24657879269E+03  0.24657879269E+03  0.00000000000E+00 0.  1.
         21   -1    0    0  501  503 -0.00000000000E+00 -0.00000000000E+00 -0.31825469494E+03  0.31825469494E+03  0.00000000000E+00 0. -1.
          6    2    1    2  501    0 -0.81510313577E+02  0.20272764404E+03 -0.50648677400E+02  0.28247498002E+03  0.17171021209E+03 0.  0.
         24    2    3    3    0    0 -0.76282893046E+02  0.93193559998E+02 -0.84272602860E+02  0.16768081703E+03  0.80689933765E+02 0.  0.
         -6    2    1    2    0  502  0.81510313577E+02 -0.20272764404E+03 -0.21027224846E+02  0.28235850761E+03  0.17759998242E+03 0.  0.
        -24    2    5    5    0    0  0.43660196526E+02 -0.38918936736E+02  0.33536771791E+02  0.10553870193E+03  0.81196096867E+02 0.  0.
          5    1    3    3  501    0 -0.52274205317E+01  0.10953408405E+03  0.33623925460E+02  0.11479416299E+03  0.47000000000E+01 0. -1.
        -15    1    4    4    0    0  0.48650489241E+01 -0.11395720018E+02 -0.58483936920E+01  0.13816387862E+02  0.17770000000E+01 0.  1.
         16    1    4    4    0    0 -0.81147941970E+02  0.10458928002E+03 -0.78424209168E+02  0.15386442917E+03  0.00000000000E+00 0. -1.
         -5    1    5    5    0  502  0.37850117052E+02 -0.16380870731E+03 -0.54563996637E+02  0.17681980568E+03  0.47000000000E+01 0.  1.
         15    1    6    6    0    0  0.32961414059E+02 -0.47899476720E+02 -0.10701041470E+02  0.59147989859E+02  0.17770000000E+01 0. -1.
        -16    1    6    6    0    0  0.10698782467E+02  0.89805399843E+01  0.44237813261E+02  0.46390712075E+02  0.00000000000E+00 0.  1.
<mgrwt>
<rscale>  2 0.28065060E+03</rscale>
<asrwt>0</asrwt>
<pdfrwt beam="1">  1       21 0.37935199E-01 0.28157447E+03</pdfrwt>
<pdfrwt beam="2">  1       21 0.48962261E-01 0.28157447E+03</pdfrwt>
<totfact> 0.25547781E+04</totfact>
</mgrwt>
</event>
<event>
12    2  0.4097182E-002  0.3051566E+03  0.7546771E-02  0.1082750E+00
         21   -1    0    0  503  502  0.00000000000E+00  0.00000000000E+00  0.85522163011E+03  0.85522163011E+03  0.00000000000E+00 0.  1.
         21   -1    0    0  501  503 -0.00000000000E+00 -0.00000000000E+00 -0.15185043886E+03  0.15185043886E+03  0.00000000000E+00 0. -1.
          6    2    1    2  501    0  0.10017333868E+03 -0.23129820266E+03  0.62026325295E+03  0.69126480804E+03  0.17200864959E+03 0.  0.
         24    2    3    3    0    0  0.40019644459E+02 -0.20246046089E+03  0.36114223044E+03  0.42365337969E+03  0.80415578989E+02 0.  0.
         -6    2    1    2    0  502 -0.10017333868E+03  0.23129820266E+03  0.83107938307E+02  0.31580726093E+03  0.17115414196E+03 0.  0.
        -24    2    5    5    0    0 -0.70925104658E+02  0.23233280371E+03  0.10717238543E+03  0.27762719797E+03  0.81129764572E+02 0.  0.
          5    1    3    3  501    0  0.60153694221E+02 -0.28837741776E+02  0.25912102251E+03  0.26761142835E+03  0.47000000000E+01 0. -1.
        -15    1    4    4    0    0  0.50488592261E+02 -0.66291184409E+02  0.16195089873E+03  0.18213970025E+03  0.17770000000E+01 0.  1.
         16    1    4    4    0    0 -0.10468947802E+02 -0.13616927648E+03  0.19919133172E+03  0.24151367944E+03  0.00000000000E+00 0. -1.
         -5    1    5    5    0  502 -0.29248234021E+02 -0.10346010490E+01 -0.24064447124E+02  0.38180062966E+02  0.47000000000E+01 0.  1.
         15    1    6    6    0    0 -0.27631732698E+01  0.14604110108E+03  0.58063182273E+02  0.15719455842E+03  0.17770000000E+01 0. -1.
        -16    1    6    6    0    0 -0.68161931388E+02  0.86291702633E+02  0.49109203158E+02  0.12043263955E+03  0.00000000000E+00 0.  1.
<mgrwt>
<rscale>  2 0.30503629E+03</rscale>
<asrwt>0</asrwt>
<pdfrwt beam="1">  1       21 0.13157256E+00 0.30515657E+03</pdfrwt>
<pdfrwt beam="2">  1       21 0.23361607E-01 0.30515657E+03</pdfrwt>
<totfact> 0.67309953E+03</totfact>
</mgrwt>
</event>
<event>
12    2  0.4097182E-002  0.2332567E+03  0.7546771E-02  0.1124817E+00
         21   -1    0    0  503  502  0.00000000000E+00  0.00000000000E+00  0.86432108617E+03  0.86432108617E+03  0.00000000000E+00 0. -1.
         21   -1    0    0  501  503 -0.00000000000E+00 -0.00000000000E+00 -0.73361960589E+02  0.73361960589E+02  0.00000000000E+00 0. -1.
          6    2    1    2  501    0  0.11553420497E+03 -0.99312549875E+02  0.57604112105E+03  0.62051048014E+03  0.17320146577E+03 0.  0.
         24    2    3    3    0    0 -0.39418669266E+01 -0.68040311995E+02  0.29443990958E+03  0.31298191738E+03  0.81349848665E+02 0.  0.
         -6    2    1    2    0  502 -0.11553420497E+03  0.99312549875E+02  0.21491800454E+03  0.31717256662E+03  0.17662829123E+03 0.  0.
        -24    2    5    5    0    0 -0.51501078202E+02 -0.18528120759E+02  0.10473214451E+03  0.14353593820E+03  0.81474481573E+02 0.  0.
          5    1    3    3  501    0  0.11947607189E+03 -0.31272237880E+02  0.28160121146E+03  0.30752856276E+03  0.47000000000E+01 0. -1.
        -15    1    4    4    0    0 -0.27235387520E+02 -0.12811820899E+02  0.19152942500E+03  0.19388807972E+03  0.17770000000E+01 0.  1.
         16    1    4    4    0    0  0.23293520593E+02 -0.55228491096E+02  0.10291048459E+03  0.11909383766E+03  0.00000000000E+00 0. -1.
         -5    1    5    5    0  502 -0.64033126764E+02  0.11784067063E+03  0.11018586003E+03  0.17363662842E+03  0.47000000000E+01 0.  1.
         15    1    6    6    0    0 -0.82448168306E+01 -0.30863461651E+02  0.27964129017E+01  0.32117097063E+02  0.17770000000E+01 0. -1.
        -16    1    6    6    0    0 -0.43256261372E+02  0.12335340892E+02  0.10193573160E+03  0.11141884114E+03  0.00000000000E+00 0.  1.
<mgrwt>
<rscale>  2 0.23260799E+03</rscale>
<asrwt>0</asrwt>
<pdfrwt beam="1">  1       21 0.13297247E+00 0.23325670E+03</pdfrwt>
<pdfrwt beam="2">  1       21 0.11286456E-01 0.23325670E+03</pdfrwt>
<totfact> 0.26097104E+04</totfact>
</mgrwt>
</event>
<event>
12    2  0.4097182E-002  0.2255951E+03  0.7546771E-02  0.1130160E+00
         21   -1    0    0  501  502  0.00000000000E+00  0.00000000000E+00  0.19653697275E+04  0.19653697275E+04  0.00000000000E+00 0.  1.
         21   -1    0    0  502  503 -0.00000000000E+00 -0.00000000000E+00 -0.32985574816E+02  0.32985574816E+02  0.00000000000E+00 0.  1.
         -6    2    1    2    0  503  0.13768835383E+03  0.36941391556E+02  0.49866402026E+03  0.54731980832E+03  0.17484398268E+03 0.  0.
        -24    2    3    3    0    0  0.91048117457E+02  0.89257482989E+02  0.38803790562E+03  0.41627587556E+03  0.80346315482E+02 0.  0.
          6    2    1    2  501    0 -0.13768835383E+03 -0.36941391556E+02  0.14337201325E+04  0.14510354940E+04  0.17212738756E+03 0.  0.
         24    2    5    5    0    0 -0.14780765864E+02 -0.60740042252E+02  0.70537154147E+03  0.71199123897E+03  0.73991141903E+02 0.  0.
          5    1    5    5  501    0 -0.12290758796E+03  0.23798650695E+02  0.72834859099E+03  0.73904425507E+03  0.47000000000E+01 0. -1.
        -15    1    6    6    0    0 -0.33092619730E+02 -0.37879882082E+02  0.61355771752E+03  0.61561858110E+03  0.17770000000E+01 0.  1.
         16    1    6    6    0    0  0.18311853866E+02 -0.22860160170E+02  0.91813823958E+02  0.96372657869E+02  0.00000000000E+00 0. -1.
         -5    1    3    3    0  503  0.46640236371E+02 -0.52316091433E+02  0.11062611464E+03  0.13104393275E+03  0.47000000000E+01 0.  1.
         15    1    4    4    0    0  0.54128691618E+02  0.27464919269E+02  0.27962420232E+03  0.28614172940E+03  0.17770000000E+01 0. -1.
        -16    1    4    4    0    0  0.36919425839E+02  0.61792563720E+02  0.10841370330E+03  0.13013414617E+03  0.00000000000E+00 0.  1.
<mgrwt>
<rscale>  2 0.22506858E+03</rscale>
<asrwt>0</asrwt>
<pdfrwt beam="1">  1       21 0.30236448E+00 0.22559514E+03</pdfrwt>
<pdfrwt beam="2">  1       21 0.50747054E-02 0.22559514E+03</pdfrwt>
<totfact> 0.83870349E+03</totfact>
</mgrwt>
</event>
<event>
12    2  0.4097182E-002  0.1985560E+03  0.7546771E-02  0.1151013E+00
         21   -1    0    0  501  502  0.00000000000E+00  0.00000000000E+00  0.10278586836E+03  0.10278586836E+03  0.00000000000E+00 0. -1.
         21   -1    0    0  502  503 -0.00000000000E+00 -0.00000000000E+00 -0.38330049849E+03  0.38330049849E+03  0.00000000000E+00 0.  1.
         -6    2    1    2    0  503  0.30480129410E+02  0.91303849015E+02 -0.13482367930E+03  0.24000398524E+03  0.17366363263E+03 0.  0.
        -24    2    3    3    0    0  0.86822164912E+02  0.64732932367E+02 -0.10354711715E+03  0.17014160684E+03  0.80608436618E+02 0.  0.
          6    2    1    2  501    0 -0.30480129410E+02 -0.91303849015E+02 -0.14569095083E+03  0.24608238161E+03  0.17339335123E+03 0.  0.
         24    2    5    5    0    0 -0.62171528410E+02 -0.11624093329E+03 -0.13122049303E+03  0.20298148728E+03  0.81273691133E+02 0.  0.
          5    1    5    5  501    0  0.31691399000E+02  0.24937084279E+02 -0.14470457797E+02  0.43100894327E+02  0.47000000000E+01 0. -1.
        -15    1    6    6    0    0 -0.26357844165E+00 -0.80732813964E+02 -0.88495949753E+02  0.11980211841E+03  0.17770000000E+01 0.  1.
         16    1    6    6    0    0 -0.61907949968E+02 -0.35508119330E+02 -0.42724543281E+02  0.83179368873E+02  0.00000000000E+00 0. -1.
         -5    1    3    3    0  503 -0.56342035502E+02  0.26570916648E+02 -0.31276562147E+02  0.69862378400E+02  0.47000000000E+01 0.  1.
         15    1    4    4    0    0  0.17789661594E+02  0.46491655763E+02 -0.73633191083E+01  0.50351984196E+02  0.17770000000E+01 0. -1.
        -16    1    4    4    0    0  0.69032503318E+02  0.18241276605E+02 -0.96183798045E+02  0.11978962264E+03  0.00000000000E+00 0.  1.
<mgrwt>
<rscale>  2 0.19849689E+03</rscale>
<asrwt>0</asrwt>
<pdfrwt beam="1">  1       21 0.15813211E-01 0.19855601E+03</pdfrwt>
<pdfrwt beam="2">  1       21 0.58969306E-01 0.19855601E+03</pdfrwt>
<totfact> 0.95574021E+04</totfact>
</mgrwt>
</event>
<event>
12    2  0.4097182E-002  0.2964161E+03  0.7546771E-02  0.1087065E+00
         21   -1    0    0  501  502  0.00000000000E+00  0.00000000000E+00  0.70031460738E+03  0.70031460738E+03  0.00000000000E+00 0. -1.
         21   -1    0    0  502  503 -0.00000000000E+00 -0.00000000000E+00 -0.12539821679E+03  0.12539821679E+03  0.00000000000E+00 0. -1.
         -6    2    1    2    0  503 -0.15334163904E+03 -0.18403850491E+03  0.28854396435E+03  0.41355794193E+03  0.17432361406E+03 0.  0.
        -24    2    3    3    0    0 -0.10449857936E+03 -0.70650431316E+02  0.22632454568E+03  0.27522556766E+03  0.92816359449E+02 0.  0.
          6    2    1    2  501    0  0.15334163904E+03  0.18403850491E+03  0.28637242624E+03  0.41215488225E+03  0.17458135897E+03 0.  0.
         24    2    5    5    0    0  0.39445038102E+02  0.54672797183E+02  0.18011175217E+03  0.20961761927E+03  0.83392309345E+02 0.  0.
          5    1    5    5  501    0  0.11389660093E+03  0.12936570773E+03  0.10626067407E+03  0.20253726298E+03  0.47000000000E+01 0. -1.
        -15    1    6    6    0    0  0.35386068545E+02  0.38881120362E+02  0.18520914978E+03  0.19253441837E+03  0.17770000000E+01 0.  1.
         16    1    6    6    0    0  0.40589695569E+01  0.15791676820E+02 -0.50973976085E+01  0.17083200901E+02  0.00000000000E+00 0. -1.
         -5    1    3    3    0  503 -0.48843059672E+02 -0.11338807359E+03  0.62219418665E+02  0.13833237427E+03  0.47000000000E+01 0.  1.
         15    1    4    4    0    0 -0.72136308992E+02 -0.73560459891E+02  0.95728765858E+02  0.14064829425E+03  0.17770000000E+01 0. -1.
        -16    1    4    4    0    0 -0.32362270372E+02  0.29100285748E+01  0.13059577983E+03  0.13457727341E+03  0.00000000000E+00 0.  1.
<mgrwt>
<rscale>  2 0.29637812E+03</rscale>
<asrwt>0</asrwt>
<pdfrwt beam="1">  1       21 0.10774071E+00 0.29641606E+03</pdfrwt>
<pdfrwt beam="2">  1       21 0.19292034E-01 0.29641606E+03</pdfrwt>
<totfact> 0.16029545E+04</totfact>
</mgrwt>
</event>
<event>
12    2  0.4097182E-002  0.1783974E+03  0.7546771E-02  0.1169439E+00
         21   -1    0    0  503  502  0.00000000000E+00  0.00000000000E+00  0.25668780055E+03  0.25668780055E+03  0.00000000000E+00 0. -1.
         21   -1    0    0  501  503 -0.00000000000E+00 -0.00000000000E+00 -0.17105234291E+03  0.17105234291E+03  0.00000000000E+00 0. -1.
          6    2    1    2  501    0  0.43510850740E+02  0.14168282955E+02 -0.69650731158E+02  0.19122492588E+03  0.17210988801E+03 0.  0.
         24    2    3    3    0    0 -0.41541377071E+02  0.15419689968E+02 -0.17119799446E+02  0.91139780816E+02  0.77781226953E+02 0.  0.
         -6    2    1    2    0  502 -0.43510850740E+02 -0.14168282955E+02  0.15528618880E+03  0.23651521759E+03  0.17242886459E+03 0.  0.
        -24    2    5    5    0    0 -0.85060304528E+02 -0.48455819063E+02  0.97199790862E+02  0.15715457326E+03  0.75276415591E+02 0.  0.
          5    1    3    3  501    0  0.85052227811E+02 -0.12514070129E+01 -0.52530931712E+02  0.10008514506E+03  0.47000000000E+01 0. -1.
        -15    1    4    4    0    0 -0.33471724963E+02 -0.20235245093E+02 -0.33074312896E+02  0.51253189350E+02  0.17770000000E+01 0.  1.
         16    1    4    4    0    0 -0.80696521080E+01  0.35654935061E+02  0.15954513450E+02  0.39886591466E+02  0.00000000000E+00 0. -1.
         -5    1    5    5    0  502  0.41549453789E+02  0.34287536108E+02  0.58086397942E+02  0.79360644329E+02  0.47000000000E+01 0.  1.
         15    1    6    6    0    0 -0.23716281763E+02 -0.25930454950E+02  0.83184238661E+02  0.90319575979E+02  0.17770000000E+01 0. -1.
        -16    1    6    6    0    0 -0.61344022765E+02 -0.22525364113E+02  0.14015552201E+02  0.66834997277E+02  0.00000000000E+00 0.  1.
<mgrwt>
<rscale>  2 0.17832032E+03</rscale>
<asrwt>0</asrwt>
<pdfrwt beam="1">  1       21 0.39490431E-01 0.17839744E+03</pdfrwt>
<pdfrwt beam="2">  1       21 0.26315745E-01 0.17839744E+03</pdfrwt>
<totfact> 0.85356641E+04</totfact>
</mgrwt>
</event>
<event>
12    2  0.4097182E-002  0.1740322E+03  0.7546771E-02  0.1173938E+00
         21   -1    0    0  501  502  0.00000000000E+00  0.00000000000E+00  0.38276080357E+03  0.38276080357E+03  0.00000000000E+00 0.  1.
         21   -1    0    0  502  503 -0.00000000000E+00 -0.00000000000E+00 -0.11188266170E+03  0.11188266170E+03  0.00000000000E+00 0.  1.
         -6    2    1    2    0  503 -0.81695389545E+01  0.29580032028E+01  0.10281108684E+01  0.17403519857E+03  0.17381513795E+03 0.  0.
        -24    2    3    3    0    0 -0.59887592097E+02  0.17750711885E+02  0.35036378545E+02  0.11022114431E+03  0.83782703296E+02 0.  0.
          6    2    1    2  501    0  0.81695389545E+01 -0.29580032028E+01  0.26985003099E+03  0.32060826670E+03  0.17290208298E+03 0.  0.
         24    2    5    5    0    0  0.25294468804E+02 -0.66435220527E+02  0.17527279275E+03  0.20532789398E+03  0.79909595719E+02 0.  0.
          5    1    5    5  501    0 -0.17124929850E+02  0.63477217325E+02  0.94577238239E+02  0.11528037272E+03  0.47000000000E+01 0. -1.
        -15    1    6    6    0    0  0.47981338861E+02 -0.67029884925E+02  0.15135647236E+03  0.17235763344E+03  0.17770000000E+01 0.  1.
         16    1    6    6    0    0 -0.22686870056E+02  0.59466439798E+00  0.23916320398E+02  0.32970260540E+02  0.00000000000E+00 0. -1.
         -5    1    3    3    0  503  0.51718053143E+02 -0.14792708682E+02 -0.34008267677E+02  0.63814054262E+02  0.47000000000E+01 0.  1.
         15    1    4    4    0    0  0.10671682616E+02  0.23077953269E+02  0.29879130112E+02  0.39273360974E+02  0.17770000000E+01 0. -1.
        -16    1    4    4    0    0 -0.70559274713E+02 -0.53272413839E+01  0.51572484328E+01  0.70947783335E+02  0.00000000000E+00 0.  1.
<mgrwt>
<rscale>  2 0.17380373E+03</rscale>
<asrwt>0</asrwt>
<pdfrwt beam="1">  1       21 0.58886277E-01 0.17403216E+03</pdfrwt>
<pdfrwt beam="2">  1       21 0.17212717E-01 0.17403216E+03</pdfrwt>
<totfact> 0.82880042E+04</totfact>
</mgrwt>
</event>
<event>
12    2  0.4097182E-002  0.1789248E+03  0.7546771E-02  0.1169965E+00
         21   -1    0    0  503  502  0.00000000000E+00  0.00000000000E+00  0.98266096755E+02  0.98266096755E+02  0.00000000000E+00 0.  1.
         21   -1    0    0  501  503 -0.00000000000E+00 -0.00000000000E+00 -0.78115901564E+03  0.78115901564E+03  0.00000000000E+00 0.  1.
          6    2    1    2  501    0  0.41136224470E+02  0.35986475188E+02 -0.68193669716E+03  0.70501897510E+03  0.17037277059E+03 0.  0.
         24    2    3    3    0    0  0.49600733307E+02 -0.37731342490E+02 -0.45669071498E+03  0.46781904457E+03  0.80027260147E+02 0.  0.
         -6    2    1    2    0  502 -0.41136224470E+02 -0.35986475188E+02 -0.95622172262E+00  0.17440613729E+03  0.16561814818E+03 0.  0.
        -24    2    5    5    0    0 -0.29626494531E+02  0.26232785846E+02 -0.41765900877E+02  0.98965894454E+02  0.80523099528E+02 0.  0.
          5    1    3    3  501    0 -0.84645088367E+01  0.73717817678E+02 -0.22524598218E+03  0.23719993053E+03  0.47000000000E+01 0. -1.
        -15    1    4    4    0    0 -0.14458155796E+02 -0.26477416444E+02 -0.23018739647E+03  0.23216263066E+03  0.17770000000E+01 0.  1.
         16    1    4    4    0    0  0.64058889103E+02 -0.11253926046E+02 -0.22650331851E+03  0.23565641392E+03  0.00000000000E+00 0. -1.
         -5    1    5    5    0  502 -0.11509729939E+02 -0.62219261034E+02  0.40809679155E+02  0.75440242839E+02  0.47000000000E+01 0.  1.
         15    1    6    6    0    0  0.77224573991E+01  0.32000759910E+02 -0.50377177982E+02  0.60205504512E+02  0.17770000000E+01 0. -1.
        -16    1    6    6    0    0 -0.37348951930E+02 -0.57679740640E+01  0.86112771046E+01  0.38760389942E+02  0.00000000000E+00 0.  1.
<mgrwt>
<rscale>  2 0.17778363E+03</rscale>
<asrwt>0</asrwt>
<pdfrwt beam="1">  1       21 0.15117861E-01 0.17892483E+03</pdfrwt>
<pdfrwt beam="2">  1       21 0.12017831E+00 0.17892483E+03</pdfrwt>
<totfact> 0.20526640E+04</totfact>
</mgrwt>
</event>
<event>
12    2  0.4097182E-002  0.2562996E+03  0.7546771E-02  0.1109696E+00
         21   -1    0    0  501  502  0.00000000000E+00  0.00000000000E+00  0.46371959617E+02  0.46371959617E+02  0.00000000000E+00 0. -1.
         21   -1    0    0  502  503 -0.00000000000E+00 -0.00000000000E+00 -0.14290354020E+04  0.14290354020E+04  0.00000000000E+00 0.  1.
         -6    2    1    2    0  503 -0.19298631870E+03  0.21264394671E+02 -0.78334312774E+03  0.82358349831E+03  0.16421762759E+03 0.  0.
        -24    2    3    3    0    0 -0.14656987872E+03 -0.17961003689E+01 -0.35304820015E+03  0.39015289596E+03  0.78040343899E+02 0.  0.
          6    2    1    2  501    0  0.19298631870E+03 -0.21264394671E+02 -0.59932031466E+03  0.65182386333E+03  0.16731292705E+03 0.  0.
         24    2    5    5    0    0  0.38530677752E+02 -0.39982992215E+02 -0.18171123645E+03  0.20614868664E+03  0.79969086259E+02 0.  0.
          5    1    5    5  501    0  0.15445564095E+03  0.18718597545E+02 -0.41760907822E+03  0.44567517670E+03  0.47000000000E+01 0. -1.
        -15    1    6    6    0    0 -0.68835248427E+01 -0.25660563297E+02 -0.14102041304E+03  0.14351223657E+03  0.17770000000E+01 0.  1.
         16    1    6    6    0    0  0.45414202594E+02 -0.14322428918E+02 -0.40690823408E+02  0.62636450067E+02  0.00000000000E+00 0. -1.
         -5    1    3    3    0  503 -0.46416439977E+02  0.23060495040E+02 -0.43029492760E+03  0.43343060234E+03  0.47000000000E+01 0.  1.
         15    1    4    4    0    0 -0.52049681370E+02  0.30612170956E+02 -0.18531005518E+03  0.19490830824E+03  0.17770000000E+01 0. -1.
        -16    1    4    4    0    0 -0.94520197353E+02 -0.32408271325E+02 -0.16773814497E+03  0.19524458772E+03  0.00000000000E+00 0.  1.
<mgrwt>
<rscale>  2 0.25579571E+03</rscale>
<asrwt>0</asrwt>
<pdfrwt beam="1">  1       21 0.71341489E-02 0.25629965E+03</pdfrwt>
<pdfrwt beam="2">  1       21 0.21985156E+00 0.25629965E+03</pdfrwt>
<totfact> 0.14071697E+04</totfact>
</mgrwt>
</event>
<event>
12    2  0.4097182E-002  0.2022196E+03  0.7546771E-02  0.1147919E+00
         21   -1    0    0  503  502  0.00000000000E+00  0.00000000000E+00  0.34159916058E+03  0.34159916058E+03  0.00000000000E+00 0. -1.
         21   -1    0    0  501  503 -0.00000000000E+00 -0.00000000000E+00 -0.18304184514E+03  0.18304184514E+03  0.00000000000E+00 0. -1.
          6    2    1    2  501    0 -0.64023388283E+02  0.81928263342E+02 -0.75134882862E+02  0.21572667686E+03  0.17344023150E+03 0.  0.
         24    2    3    3    0    0 -0.66701276356E+02  0.42742299034E+02 -0.11412193134E+03  0.16018578352E+03  0.79747762568E+02 0.  0.
         -6    2    1    2    0  502  0.64023388283E+02 -0.81928263342E+02  0.23369219829E+03  0.30891432886E+03  0.17321889173E+03 0.  0.
        -24    2    5    5    0    0  0.91427344128E+01 -0.80695255269E+02  0.22704995652E+03  0.25342004218E+03  0.77940497866E+02 0.  0.
          5    1    3    3  501    0  0.26778880731E+01  0.39185964308E+02  0.38987048482E+02  0.55540893336E+02  0.47000000000E+01 0. -1.
        -15    1    4    4    0    0 -0.48213696654E+02  0.23705997333E+02 -0.12545552893E+02  0.55200393848E+02  0.17770000000E+01 0.  1.
         16    1    4    4    0    0 -0.18487579702E+02  0.19036301701E+02 -0.10157637845E+03  0.10498538967E+03  0.00000000000E+00 0. -1.
         -5    1    5    5    0  502  0.54880653871E+02 -0.12330080728E+01  0.66422417701E+01  0.55494286678E+02  0.47000000000E+01 0.  1.
         15    1    6    6    0    0  0.41975140685E+02 -0.50742767532E+02  0.11001564639E+03  0.12823159156E+03  0.17770000000E+01 0. -1.
        -16    1    6    6    0    0 -0.32832406272E+02 -0.29952487737E+02  0.11703431013E+03  0.12518845063E+03  0.00000000000E+00 0.  1.
<mgrwt>
<rscale>  2 0.20217209E+03</rscale>
<asrwt>0</asrwt>
<pdfrwt beam="1">  1       21 0.52553717E-01 0.20221956E+03</pdfrwt>
<pdfrwt beam="2">  1       21 0.28160284E-01 0.20221956E+03</pdfrwt>
<totfact> 0.41166218E+04</totfact>
</mgrwt>
</event>
<event>
12    2  0.4097182E-002  0.1823580E+03  0.7546771E-02  0.1165671E+00
         21   -1    0    0  503  502  0.00000000000E+00  0.00000000000E+00  0.77478004503E+03  0.77478004503E+03  0.00000000000E+00 0.  1.
         21   -1    0    0  501  503 -0.00000000000E+00 -0.00000000000E+00 -0.53948196850E+02  0.53948196850E+02  0.00000000000E+00 0.  1.
          6    2    1    2  501    0  0.28454291580E+02  0.52601034289E+02  0.17155630301E+03  0.24997262515E+03  0.17169226163E+03 0.  0.
         24    2    3    3    0    0 -0.26218613127E+02 -0.91530598054E+01  0.55011193670E+02  0.10711763869E+03  0.87617138225E+02 0.  0.
         -6    2    1    2    0  502 -0.28454291580E+02 -0.52601034289E+02  0.54927554517E+03  0.57875561673E+03  0.17227281810E+03 0.  0.
        -24    2    5    5    0    0  0.30994389744E+02 -0.18922925434E+02  0.44706335752E+03  0.45571992259E+03  0.80599459729E+02 0.  0.
          5    1    3    3  501    0  0.54672904707E+02  0.61754094095E+02  0.11654510934E+03  0.14285498647E+03  0.47000000000E+01 0. -1.
        -15    1    4    4    0    0 -0.24033260966E+02  0.26508400254E+02 -0.60880366404E+01  0.36338888753E+02  0.17770000000E+01 0.  1.
         16    1    4    4    0    0 -0.21853521610E+01 -0.35661460059E+02  0.61099230310E+02  0.70778749933E+02  0.00000000000E+00 0. -1.
         -5    1    5    5    0  502 -0.59448681324E+02 -0.33678108855E+02  0.10221218765E+03  0.12303569413E+03  0.47000000000E+01 0.  1.
         15    1    6    6    0    0  0.25674607938E+02 -0.36262314067E+02  0.11710152998E+03  0.12525999747E+03  0.17770000000E+01 0. -1.
        -16    1    6    6    0    0  0.53197818063E+01  0.17339388633E+02  0.32996182755E+03  0.33045992513E+03  0.00000000000E+00 0.  1.
<mgrwt>
<rscale>  2 0.18222076E+03</rscale>
<asrwt>0</asrwt>
<pdfrwt beam="1">  1       21 0.11919692E+00 0.18235800E+03</pdfrwt>
<pdfrwt beam="2">  1       21 0.82997231E-02 0.18235800E+03</pdfrwt>
<totfact> 0.60743150E+04</totfact>
</mgrwt>
</event>
<event>
12    2  0.4097182E-002  0.1988385E+03  0.7546771E-02  0.1150963E+00
         21   -1    0    0  503  502  0.00000000000E+00  0.00000000000E+00  0.10094020456E+03  0.10094020456E+03  0.00000000000E+00 0.  1.
         21   -1    0    0  501  503 -0.00000000000E+00 -0.00000000000E+00 -0.39231263399E+03  0.39231263399E+03  0.00000000000E+00 0.  1.
          6    2    1    2  501    0  0.72529215582E+02  0.63843180299E+02 -0.16626623038E+03  0.25833089899E+03  0.17249334835E+03 0.  0.
         24    2    3    3    0    0  0.68937300319E+01  0.85873826422E+02 -0.14310164195E+03  0.18517316195E+03  0.79932361407E+02 0.  0.
         -6    2    1    2    0  502 -0.72529215582E+02 -0.63843180299E+02 -0.12510619905E+03  0.23492193955E+03  0.17378238651E+03 0.  0.
        -24    2    5    5    0    0 -0.68215820283E+02  0.25094135128E+02 -0.61243895303E+02  0.12524543663E+03  0.81562803592E+02 0.  0.
          5    1    3    3  501    0  0.65635485550E+02 -0.22030646123E+02 -0.23164588432E+02  0.73157737043E+02  0.47000000000E+01 0. -1.
        -15    1    4    4    0    0 -0.21799607949E+02  0.24118216131E+02 -0.74666602715E+01  0.33403891999E+02  0.17770000000E+01 0.  1.
         16    1    4    4    0    0  0.28693337981E+02  0.61755610291E+02 -0.13563498168E+03  0.15176926995E+03  0.00000000000E+00 0. -1.
         -5    1    5    5    0  502 -0.43133952984E+01 -0.88937315427E+02 -0.63862303744E+02  0.10967650292E+03  0.47000000000E+01 0.  1.
         15    1    6    6    0    0 -0.82596680564E+02  0.21981505291E+02 -0.67824487354E+02  0.10912706827E+03  0.17770000000E+01 0. -1.
        -16    1    6    6    0    0  0.14380860280E+02  0.31126298363E+01  0.65805920507E+01  0.16118368361E+02  0.00000000000E+00 0.  1.
<mgrwt>
<rscale>  2 0.19855652E+03</rscale>
<asrwt>0</asrwt>
<pdfrwt beam="1">  1       21 0.15529262E-01 0.19883852E+03</pdfrwt>
<pdfrwt beam="2">  1       21 0.60355790E-01 0.19883852E+03</pdfrwt>
<totfact> 0.93974397E+04</totfact>
</mgrwt>
</event>
<event>
12    2  0.4097182E-002  0.2936306E+03  0.7546771E-02  0.1088722E+00
         21   -1    0    0  501  502  0.00000000000E+00  0.00000000000E+00  0.22029813588E+03  0.22029813588E+03  0.00000000000E+00 0. -1.
         21   -1    0    0  502  503 -0.00000000000E+00 -0.00000000000E+00 -0.65055551228E+03  0.65055551228E+03  0.00000000000E+00 0.  1.
         -6    2    1    2    0  503  0.19515950777E+02 -0.23353813826E+03 -0.49091438331E+03  0.57102338549E+03  0.17363709477E+03 0.  0.
        -24    2    3    3    0    0  0.80268118375E+02 -0.14306337482E+03 -0.31530340249E+03  0.36429212208E+03  0.79890015299E+02 0.  0.
          6    2    1    2  501    0 -0.19515950777E+02  0.23353813826E+03  0.60657006910E+02  0.29983026267E+03  0.17691234997E+03 0.  0.
         24    2    5    5    0    0  0.26815169799E+02  0.62564077032E+02 -0.18940031125E+02  0.10557146413E+03  0.78442923161E+02 0.  0.
          5    1    5    5  501    0 -0.46331120576E+02  0.17097406123E+03  0.79597038035E+02  0.19425879854E+03  0.47000000000E+01 0. -1.
        -15    1    6    6    0    0  0.36073997889E+02  0.52150353170E+02 -0.43789117690E+02  0.77082016168E+02  0.17770000000E+01 0.  1.
         16    1    6    6    0    0 -0.92588280902E+01  0.10413723862E+02  0.24849086565E+02  0.28489447966E+02  0.00000000000E+00 0. -1.
         -5    1    3    3    0  503 -0.60752167598E+02 -0.90474763443E+02 -0.17561098082E+03  0.20673126341E+03  0.47000000000E+01 0.  1.
         15    1    4    4    0    0 -0.13457386958E+02 -0.34756353852E+01 -0.18983359460E+02  0.23594638595E+02  0.17770000000E+01 0. -1.
        -16    1    4    4    0    0  0.93725505333E+02 -0.13958773943E+03 -0.29632004303E+03  0.34069748348E+03  0.00000000000E+00 0.  1.
<mgrwt>
<rscale>  2 0.29313893E+03</rscale>
<asrwt>0</asrwt>
<pdfrwt beam="1">  1       21 0.33892021E-01 0.29363057E+03</pdfrwt>
<pdfrwt beam="2">  1       21 0.10008546E+00 0.29363057E+03</pdfrwt>
<totfact> 0.64505507E+03</totfact>
</mgrwt>
</event>
<event>
12    2  0.4097182E-002  0.2661511E+03  0.7546771E-02  0.1103728E+00
         21   -1    0    0  501  502  0.00000000000E+00  0.00000000000E+00  0.13549953154E+03  0.13549953154E+03  0.00000000000E+00 0.  1.
         21   -1    0    0  502  503 -0.00000000000E+00 -0.00000000000E+00 -0.59705534809E+03  0.59705534809E+03  0.00000000000E+00 0. -1.
         -6    2    1    2    0  503 -0.10393512661E+03 -0.17265285676E+03 -0.36314579164E+03  0.45023470244E+03  0.17385310408E+03 0.  0.
        -24    2    3    3    0    0 -0.47398739731E+02 -0.14239568058E+03 -0.34313346322E+03  0.38289642921E+03  0.79661355385E+02 0.  0.
          6    2    1    2  501    0  0.10393512661E+03  0.17265285676E+03 -0.98410024908E+02  0.28232017720E+03  0.17148944562E+03 0.  0.
         24    2    5    5    0    0  0.34989423716E+02  0.16922335996E+02 -0.48696178767E+02  0.10484042753E+03  0.84318279098E+02 0.  0.
          5    1    5    5  501    0  0.68945702898E+02  0.15573052077E+03 -0.49713846140E+02  0.17747974968E+03  0.47000000000E+01 0. -1.
        -15    1    6    6    0    0  0.63029919005E+02  0.90206467205E+01 -0.32521479701E+02  0.71518858547E+02  0.17770000000E+01 0.  1.
         16    1    6    6    0    0 -0.28040495288E+02  0.79016892760E+01 -0.16174699066E+02  0.33321568980E+02  0.00000000000E+00 0. -1.
         -5    1    3    3    0  503 -0.56536386883E+02 -0.30257176179E+02 -0.20012328418E+02  0.67338273224E+02  0.47000000000E+01 0.  1.
         15    1    4    4    0    0 -0.56246074074E+01 -0.16088642599E+02 -0.13361906917E+03  0.13471337723E+03  0.17770000000E+01 0. -1.
        -16    1    4    4    0    0 -0.41774132324E+02 -0.12630703799E+03 -0.20951439405E+03  0.24818305198E+03  0.00000000000E+00 0.  1.
<mgrwt>
<rscale>  2 0.26576581E+03</rscale>
<asrwt>0</asrwt>
<pdfrwt beam="1">  1       21 0.20846082E-01 0.26615112E+03</pdfrwt>
<pdfrwt beam="2">  1       21 0.91854667E-01 0.26615112E+03</pdfrwt>
<totfact> 0.20575598E+04</totfact>
</mgrwt>
</event>
<event>
12    2  0.4097182E-002  0.1752766E+03  0.7546771E-02  0.1172925E+00
         21   -1    0    0  501  502  0.00000000000E+00  0.00000000000E+00  0.36596198618E+02  0.36596198618E+02  0.00000000000E+00 0. -1.
         21   -1    0    0  502  503 -0.00000000000E+00 -0.00000000000E+00 -0.84049614721E+03  0.84049614721E+03  0.00000000000E+00 0. -1.
         -6    2    1    2    0  503 -0.20516057926E+02 -0.22919826485E+02 -0.35214292081E+03  0.39252417856E+03  0.17065862710E+03 0.  0.
        -24    2    3    3    0    0 -0.26679745811E+02  0.18362163725E+02 -0.33675588904E+03  0.34779114255E+03  0.80654647364E+02 0.  0.
          6    2    1    2  501    0  0.20516057926E+02  0.22919826485E+02 -0.45175702778E+03  0.48456816726E+03  0.17255627921E+03 0.  0.
         24    2    5    5    0    0  0.51922573295E+02  0.35089891425E+02 -0.15288477759E+03  0.18376725034E+03  0.80432536822E+02 0.  0.
          5    1    5    5  501    0 -0.31406515369E+02 -0.12170064940E+02 -0.29887225019E+03  0.30080091692E+03  0.47000000000E+01 0. -1.
        -15    1    6    6    0    0 -0.16333356908E+02  0.28963570067E+02 -0.45635110003E+02  0.56492370573E+02  0.17770000000E+01 0.  1.
         16    1    6    6    0    0  0.68255930203E+02  0.61263213577E+01 -0.10724966759E+03  0.12727487977E+03  0.00000000000E+00 0. -1.
         -5    1    3    3    0  503  0.61636878846E+01 -0.41281990210E+02 -0.15387031764E+02  0.44733036009E+02  0.47000000000E+01 0.  1.
         15    1    4    4    0    0 -0.25591047034E+02  0.25784258659E+02 -0.55018744055E+02  0.65954147780E+02  0.17770000000E+01 0. -1.
        -16    1    4    4    0    0 -0.10886987763E+01 -0.74220949339E+01 -0.28173714499E+03  0.28183699478E+03  0.00000000000E+00 0.  1.
<mgrwt>
<rscale>  2 0.17480778E+03</rscale>
<asrwt>0</asrwt>
<pdfrwt beam="1">  1       21 0.56301847E-02 0.17527663E+03</pdfrwt>
<pdfrwt beam="2">  1       21 0.12930709E+00 0.17527663E+03</pdfrwt>
<totfact> 0.97068088E+04</totfact>
</mgrwt>
</event>
<event>
12    2  0.4097182E-002  0.1961125E+03  0.7546771E-02  0.1153082E+00
         21   -1    0    0  503  502  0.00000000000E+00  0.00000000000E+00  0.41596564352E+02  0.41596564352E+02  0.00000000000E+00 0. -1.
         21   -1    0    0  501  503 -0.00000000000E+00 -0.00000000000E+00 -0.96203216015E+03  0.96203216015E+03  0.00000000000E+00 0. -1.
          6    2    1    2  501    0 -0.25898765347E+02 -0.86906570967E+02 -0.55992383844E+03  0.59327464070E+03  0.17388673416E+03 0.  0.
         24    2    3    3    0    0 -0.46104187709E+02  0.13778859501E+02 -0.28092008076E+03  0.29593476480E+03  0.79660781739E+02 0.  0.
         -6    2    1    2    0  502  0.25898765347E+02  0.86906570967E+02 -0.36051175736E+03  0.41035408381E+03  0.17377643332E+03 0.  0.
        -24    2    5    5    0    0  0.61314393523E+02  0.90819110293E+02 -0.17284687167E+03  0.21927877404E+03  0.78737373903E+02 0.  0.
          5    1    3    3  501    0  0.20205422362E+02 -0.10068543047E+03 -0.27900375768E+03  0.29733987590E+03  0.47000000000E+01 0. -1.
        -15    1    4    4    0    0  0.20555372070E+02  0.10475769594E+02 -0.42997050370E+02  0.48827954484E+02  0.17770000000E+01 0.  1.
         16    1    4    4    0    0 -0.66659559779E+02  0.33030899064E+01 -0.23792303039E+03  0.24710681032E+03  0.00000000000E+00 0. -1.
         -5    1    5    5    0  502 -0.35415628176E+02 -0.39125393257E+01 -0.18766488569E+03  0.19107530977E+03  0.47000000000E+01 0.  1.
         15    1    6    6    0    0  0.38808776573E+02  0.79153188408E+02 -0.67827567064E+02  0.11124335916E+03  0.17770000000E+01 0. -1.
        -16    1    6    6    0    0  0.22505616950E+02  0.11665921886E+02 -0.10501930461E+03  0.10803541488E+03  0.00000000000E+00 0.  1.
<mgrwt>
<rscale>  2 0.19608800E+03</rscale>
<asrwt>0</asrwt>
<pdfrwt beam="1">  1       21 0.63994726E-02 0.19611245E+03</pdfrwt>
<pdfrwt beam="2">  1       21 0.14800492E+00 0.19611245E+03</pdfrwt>
<totfact> 0.54553952E+04</totfact>
</mgrwt>
</event>
<event>
12    2  0.4097182E-002  0.3791854E+03  0.7546771E-02  0.1051309E+00
         21   -1    0    0  501  502  0.00000000000E+00  0.00000000000E+00  0.12067927944E+04  0.12067927944E+04  0.00000000000E+00 0. -1.
         21   -1    0    0  502  503 -0.00000000000E+00 -0.00000000000E+00 -0.28711472229E+03  0.28711472229E+03  0.00000000000E+00 0. -1.
         -6    2    1    2    0  503  0.36763488044E+02  0.33577013946E+03 -0.11171194665E+03  0.39529876155E+03  0.17230325374E+03 0.  0.
        -24    2    3    3    0    0  0.35099699957E+02  0.20941408504E+03  0.17122087637E+01  0.22542895932E+03  0.75690396268E+02 0.  0.
          6    2    1    2  501    0 -0.36763488044E+02 -0.33577013946E+03  0.10313900188E+04  0.10986087552E+04  0.17053646378E+03 0.  0.
         24    2    5    5    0    0 -0.26765913883E+02 -0.13204931990E+03  0.29051499625E+03  0.33015575542E+03  0.80314523948E+02 0.  0.
          5    1    5    5  501    0 -0.99975741611E+01 -0.20372081956E+03  0.74087502253E+03  0.76845299975E+03  0.47000000000E+01 0. -1.
        -15    1    6    6    0    0 -0.25990397948E+02 -0.34054067218E+01  0.32028818134E+02  0.41425843390E+02  0.17770000000E+01 0.  1.
         16    1    6    6    0    0 -0.77551593490E+00 -0.12864391318E+03  0.25848617812E+03  0.28872991203E+03  0.00000000000E+00 0. -1.
         -5    1    3    3    0  503  0.16637880871E+01  0.12635605442E+03 -0.11342415541E+03  0.16986980223E+03  0.47000000000E+01 0.  1.
         15    1    4    4    0    0 -0.51836762528E+01 -0.47968808126E+01  0.16310379468E+01  0.74631480495E+01  0.17770000000E+01 0. -1.
        -16    1    4    4    0    0  0.40283376210E+02  0.21421096586E+03  0.81170816855E-01  0.21796581127E+03  0.00000000000E+00 0.  1.
<mgrwt>
<rscale>  2 0.37898533E+03</rscale>
<asrwt>0</asrwt>
<pdfrwt beam="1">  1       21 0.18566043E+00 0.37918538E+03</pdfrwt>
<pdfrwt beam="2">  1       21 0.44171496E-01 0.37918538E+03</pdfrwt>
<totfact> 0.70745331E+02</totfact>
</mgrwt>
</event>
<event>
12    2  0.4097182E-002  0.2145450E+03  0.7546771E-02  0.1138130E+00
         21   -1    0    0  503  502  0.00000000000E+00  0.00000000000E+00  0.29826618243E+03  0.29826618243E+03  0.00000000000E+00 0. -1.
         21   -1    0    0  501  503 -0.00000000000E+00 -0.00000000000E+00 -0.21667764290E+03  0.21667764290E+03  0.00000000000E+00 0.  1.
          6    2    1    2  501    0 -0.39603233646E+02 -0.12178082769E+03 -0.97751923868E+02  0.23576465861E+03  0.17213526519E+03 0.  0.
         24    2    3    3    0    0 -0.17343594880E+02 -0.67468621640E+02  0.16042005463E+02  0.10763794166E+03  0.80472140248E+02 0.  0.
         -6    2    1    2    0  502  0.39603233646E+02  0.12178082769E+03  0.17934046340E+03  0.27917916672E+03  0.17140308985E+03 0.  0.
        -24    2    5    5    0    0  0.55671161743E+02  0.18698866041E+02  0.44286585584E+02  0.10845802262E+03  0.79705176536E+02 0.  0.
          5    1    3    3  501    0 -0.22259638766E+02 -0.54312206049E+02 -0.11379392933E+03  0.12812671695E+03  0.47000000000E+01 0. -1.
        -15    1    4    4    0    0  0.25629408017E+02 -0.42401036342E+02 -0.11330021952E+02  0.50855103624E+02  0.17770000000E+01 0.  1.
         16    1    4    4    0    0 -0.42973002897E+02 -0.25067585298E+02  0.27372027414E+02  0.56782838036E+02  0.00000000000E+00 0. -1.
         -5    1    5    5    0  502 -0.16067928097E+02  0.10308196165E+03  0.13505387782E+03  0.17072114411E+03  0.47000000000E+01 0.  1.
         15    1    6    6    0    0  0.45466030100E+02  0.45204732497E+02  0.47587048938E+02  0.79864339281E+02  0.17770000000E+01 0. -1.
        -16    1    6    6    0    0  0.10205131643E+02 -0.26505866456E+02 -0.33004633540E+01  0.28593683338E+02  0.00000000000E+00 0.  1.
<mgrwt>
<rscale>  2 0.21439805E+03</rscale>
<asrwt>0</asrwt>
<pdfrwt beam="1">  1       21 0.45887105E-01 0.21454495E+03</pdfrwt>
<pdfrwt beam="2">  1       21 0.33335022E-01 0.21454495E+03</pdfrwt>
<totfact> 0.39013580E+04</totfact>
</mgrwt>
</event>
<event>
12    2  0.4097182E-002  0.1832389E+03  0.7546771E-02  0.1165914E+00
         21   -1    0    0  503  502  0.00000000000E+00  0.00000000000E+00  0.72135586627E+02  0.72135586627E+02  0.00000000000E+00 0. -1.
         21   -1    0    0  501  503 -0.00000000000E+00 -0.00000000000E+00 -0.68033012131E+03  0.68033012131E+03  0.00000000000E+00 0. -1.
          6    2    1    2  501    0 -0.28983505552E+02  0.40814853551E+02 -0.52450516292E+03  0.55559170900E+03  0.17626850347E+03 0.  0.
         24    2    3    3    0    0  0.44624262175E+02 -0.74431124551E+01 -0.23861111830E+03  0.25641879996E+03  0.82271565564E+02 0.  0.
         -6    2    1    2    0  502  0.28983505552E+02 -0.40814853551E+02 -0.83689371759E+02  0.19687399893E+03  0.17102504099E+03 0.  0.
        -24    2    5    5    0    0  0.50548772229E+02  0.25653057084E+02 -0.77414328850E+02  0.12655678884E+03  0.82525055466E+02 0.  0.
          5    1    3    3  501    0 -0.73607767726E+02  0.48257966007E+02 -0.28589404462E+03  0.29917290904E+03  0.47000000000E+01 0. -1.
        -15    1    4    4    0    0  0.48910176493E+02  0.14913439409E+01 -0.24124614661E+03  0.24616516905E+03  0.17770000000E+01 0.  1.
         16    1    4    4    0    0 -0.42859143186E+01 -0.89344563960E+01  0.26350283108E+01  0.10253630910E+02  0.00000000000E+00 0. -1.
         -5    1    5    5    0  502 -0.21565266678E+02 -0.66467910635E+02 -0.62750429093E+01  0.70317210089E+02  0.47000000000E+01 0.  1.
         15    1    6    6    0    0  0.35877418342E+02 -0.20696011477E+02 -0.86614288327E+01  0.42352002507E+02  0.17770000000E+01 0. -1.
        -16    1    6    6    0    0  0.14671353887E+02  0.46349068561E+02 -0.68752900017E+02  0.84204786337E+02  0.00000000000E+00 0.  1.
<mgrwt>
<rscale>  2 0.18196610E+03</rscale>
<asrwt>0</asrwt>
<pdfrwt beam="1">  1       21 0.11097783E-01 0.18323886E+03</pdfrwt>
<pdfrwt beam="2">  1       21 0.10466617E+00 0.18323886E+03</pdfrwt>
<totfact> 0.49902584E+04</totfact>
</mgrwt>
</event>
<event>
12    2  0.4097182E-002  0.2084915E+03  0.7546771E-02  0.1143895E+00
         21   -1    0    0  503  502  0.00000000000E+00  0.00000000000E+00  0.38660101371E+03  0.38660101371E+03  0.00000000000E+00 0. -1.
         21   -1    0    0  501  503 -0.00000000000E+00 -0.00000000000E+00 -0.19233760619E+03  0.19233760619E+03  0.00000000000E+00 0. -1.
          6    2    1    2  501    0  0.55173004877E+02 -0.10178905310E+03 -0.93626737983E+02  0.22348195960E+03  0.16665277796E+03 0.  0.
         24    2    3    3    0    0  0.24782811515E+02 -0.11240662480E+03 -0.18653113760E+02  0.14175417356E+03  0.80603163851E+02 0.  0.
         -6    2    1    2    0  502 -0.55173004877E+02  0.10178905310E+03  0.28789014551E+03  0.35545666030E+03  0.17338866651E+03 0.  0.
        -24    2    5    5    0    0 -0.69333827756E+02  0.51389796266E+02  0.27917261799E+03  0.30217721511E+03  0.76978099902E+02 0.  0.
          5    1    3    3  501    0  0.30390193362E+02  0.10617571705E+02 -0.74973624223E+02  0.81727786038E+02  0.47000000000E+01 0. -1.
        -15    1    4    4    0    0  0.46034216065E+02 -0.64879490742E+02 -0.35363672779E+02  0.87076084254E+02  0.17770000000E+01 0.  1.
         16    1    4    4    0    0 -0.21251404550E+02 -0.47527134062E+02  0.16710559019E+02  0.54678089307E+02  0.00000000000E+00 0. -1.
         -5    1    5    5    0  502  0.14160822879E+02  0.50399256833E+02  0.87175275186E+01  0.53279445192E+02  0.47000000000E+01 0.  1.
         15    1    6    6    0    0  0.20949783558E+00  0.12652748290E+02  0.14932533546E+03  0.14987110952E+03  0.17770000000E+01 0. -1.
        -16    1    6    6    0    0 -0.69543325591E+02  0.38737047976E+02  0.12984728253E+03  0.15230610559E+03  0.00000000000E+00 0.  1.
<mgrwt>
<rscale>  2 0.20708550E+03</rscale>
<asrwt>0</asrwt>
<pdfrwt beam="1">  1       21 0.59477079E-01 0.20849149E+03</pdfrwt>
<pdfrwt beam="2">  1       21 0.29590401E-01 0.20849149E+03</pdfrwt>
<totfact> 0.28646857E+04</totfact>
</mgrwt>
</event>
<event>
12    2  0.4097182E-002  0.3634338E+03  0.7546771E-02  0.1057733E+00
         21   -1    0    0  501  502  0.00000000000E+00  0.00000000000E+00  0.58138118616E+03  0.58138118616E+03  0.00000000000E+00 0.  1.
         21   -1    0    0  502  503 -0.00000000000E+00 -0.00000000000E+00 -0.22411192285E+03  0.22411192285E+03  0.00000000000E+00 0.  1.
         -6    2    1    2    0  503  0.15064172862E+03 -0.27505963974E+03  0.16958547125E+03  0.39645846675E+03  0.17340515559E+03 0.  0.
        -24    2    3    3    0    0  0.82961831018E+02 -0.12916663875E+03  0.15964622775E+03  0.23525606343E+03  0.79320939053E+02 0.  0.
          6    2    1    2  501    0 -0.15064172862E+03  0.27505963974E+03  0.18768379206E+03  0.40903464226E+03  0.18366653738E+03 0.  0.
         24    2    5    5    0    0 -0.15610743981E+03  0.29042648664E+03  0.19278962568E+03  0.39130970166E+03  0.85078586848E+02 0.  0.
          5    1    5    5  501    0  0.54657111904E+01 -0.15366846894E+02 -0.51058336235E+01  0.17724940600E+02  0.47000000000E+01 0. -1.
        -15    1    6    6    0    0 -0.66991699084E+02  0.19826208164E+03  0.14446843330E+03  0.25430302143E+03  0.17770000000E+01 0.  1.
         16    1    6    6    0    0 -0.89115740724E+02  0.92164405001E+02  0.48321192383E+02  0.13700668023E+03  0.00000000000E+00 0. -1.
         -5    1    3    3    0  503  0.67679897599E+02 -0.14589300099E+03  0.99392434983E+01  0.16120240333E+03  0.47000000000E+01 0.  1.
         15    1    4    4    0    0  0.52190127287E+02 -0.15080944555E+02  0.44185885988E+02  0.70048515505E+02  0.17770000000E+01 0. -1.
        -16    1    4    4    0    0  0.30771703731E+02 -0.11408569420E+03  0.11546034176E+03  0.16520754792E+03  0.00000000000E+00 0.  1.
<mgrwt>
<rscale>  2 0.36215802E+03</rscale>
<asrwt>0</asrwt>
<pdfrwt beam="1">  1       21 0.89443259E-01 0.36343381E+03</pdfrwt>
<pdfrwt beam="2">  1       21 0.34478758E-01 0.36343381E+03</pdfrwt>
<totfact> 0.78917600E+03</totfact>
</mgrwt>
</event>
<event>
12    2  0.4097182E-002  0.2117195E+03  0.7546771E-02  0.1140255E+00
         21   -1    0    0  501  502  0.00000000000E+00  0.00000000000E+00  0.11655909812E+03  0.11655909812E+03  0.00000000000E+00 0.  1.
         21   -1    0    0  502  503 -0.00000000000E+00 -0.00000000000E+00 -0.56254876295E+03  0.56254876295E+03  0.00000000000E+00 0. -1.
         -6    2    1    2    0  503  0.33444955319E+02  0.11749530825E+03 -0.41428280420E+03  0.46524767631E+03  0.17292034569E+03 0.  0.
        -24    2    3    3    0    0 -0.30679421159E+02  0.18440101103E+02 -0.22959264641E+03  0.24602994411E+03  0.80849773681E+02 0.  0.
          6    2    1    2  501    0 -0.33444955319E+02 -0.11749530825E+03 -0.31706860629E+02  0.21386018477E+03  0.17264744748E+03 0.  0.
         24    2    5    5    0    0 -0.72916187709E+02 -0.33206073352E+02 -0.40784074878E+02  0.12022718244E+03  0.79823686317E+02 0.  0.
          5    1    5    5  501    0  0.39471232390E+02 -0.84289234894E+02  0.90772142487E+01  0.93633002323E+02  0.47000000000E+01 0. -1.
        -15    1    6    6    0    0 -0.11077668463E+02 -0.47866825876E+02 -0.22700471386E+02  0.54151794875E+02  0.17770000000E+01 0.  1.
         16    1    6    6    0    0 -0.61838519246E+02  0.14660752524E+02 -0.18083603493E+02  0.66075387569E+02  0.00000000000E+00 0. -1.
         -5    1    3    3    0  503  0.64124376478E+02  0.99055207143E+02 -0.18469015780E+03  0.21921773219E+03  0.47000000000E+01 0.  1.
         15    1    4    4    0    0 -0.32265816894E+02  0.16186360622E+02 -0.23615902762E+03  0.23890861279E+03  0.17770000000E+01 0. -1.
        -16    1    4    4    0    0  0.15863957343E+01  0.22537404813E+01  0.65663812121E+01  0.71213313225E+01  0.00000000000E+00 0.  1.
<mgrwt>
<rscale>  2 0.21166380E+03</rscale>
<asrwt>0</asrwt>
<pdfrwt beam="1">  1       21 0.17932169E-01 0.21171953E+03</pdfrwt>
<pdfrwt beam="2">  1       21 0.86545962E-01 0.21171953E+03</pdfrwt>
<totfact> 0.32168573E+04</totfact>
</mgrwt>
</event>
<event>
12    2  0.4097182E-002  0.1987516E+03  0.7546771E-02  0.1151000E+00
         21   -1    0    0  503  502  0.00000000000E+00  0.00000000000E+00  0.10018653184E+03  0.10018653184E+03  0.00000000000E+00 0. -1.
         21   -1    0    0  501  503 -0.00000000000E+00 -0.00000000000E+00 -0.55597457051E+03  0.55597457051E+03  0.00000000000E+00 0. -1.
          6    2    1    2  501    0 -0.74427411638E+02 -0.60226173676E+02 -0.40624141414E+03  0.45225466447E+03  0.17417107501E+03 0.  0.
         24    2    3    3    0    0  0.22566643351E+02 -0.37200694069E+02 -0.22080859937E+03  0.24167109862E+03  0.88064393020E+02 0.  0.
         -6    2    1    2    0  502  0.74427411638E+02  0.60226173676E+02 -0.49546624528E+02  0.20390643788E+03  0.17307898719E+03 0.  0.
        -24    2    5    5    0    0  0.54547914091E+02 -0.32597938013E+02 -0.31234742965E+02  0.10711322975E+03  0.80371228214E+02 0.  0.
          5    1    3    3  501    0 -0.96994054988E+02 -0.23025479607E+02 -0.18543281477E+03  0.21058356585E+03  0.47000000000E+01 0. -1.
        -15    1    4    4    0    0  0.14143220271E+02  0.17156817960E+02 -0.11189378109E+02  0.24954899191E+02  0.17770000000E+01 0.  1.
         16    1    4    4    0    0  0.84234230794E+01 -0.54357512028E+02 -0.20961922127E+03  0.21671619943E+03  0.00000000000E+00 0. -1.
         -5    1    5    5    0  502  0.19879497547E+02  0.92824111689E+02 -0.18311881563E+02  0.96793208129E+02  0.47000000000E+01 0.  1.
         15    1    6    6    0    0  0.33347338022E+02  0.14801916714E+01  0.22315914573E+02  0.40191960549E+02  0.17770000000E+01 0. -1.
        -16    1    6    6    0    0  0.21200576069E+02 -0.34078129685E+02 -0.53550657538E+02  0.66921269199E+02  0.00000000000E+00 0.  1.
<mgrwt>
<rscale>  2 0.19851208E+03</rscale>
<asrwt>0</asrwt>
<pdfrwt beam="1">  1       21 0.15413313E-01 0.19875159E+03</pdfrwt>
<pdfrwt beam="2">  1       21 0.85534549E-01 0.19875159E+03</pdfrwt>
<totfact> 0.43956725E+04</totfact>
</mgrwt>
</event>
<event>
12    2  0.4097182E-002  0.1905639E+03  0.7546771E-02  0.1161877E+00
         21   -1    0    0  503  502  0.00000000000E+00  0.00000000000E+00  0.77456020974E+02  0.77456020974E+02  0.00000000000E+00 0.  1.
         21   -1    0    0  501  503 -0.00000000000E+00 -0.00000000000E+00 -0.44342185453E+03  0.44342185453E+03  0.00000000000E+00 0. -1.
          6    2    1    2  501    0  0.40233371091E+02 -0.66336584112E+02 -0.22213428320E+03  0.28212675228E+03  0.15566823067E+03 0.  0.
         24    2    3    3    0    0  0.61455188033E+02 -0.41376000583E+02 -0.22354971985E+03  0.24899837011E+03  0.80851700740E+02 0.  0.
         -6    2    1    2    0  502 -0.40233371091E+02  0.66336584112E+02 -0.14383155036E+03  0.23875112322E+03  0.17405550098E+03 0.  0.
        -24    2    5    5    0    0 -0.93775105499E+02  0.38063473431E+02 -0.10127086397E+03  0.16459191519E+03  0.81191823689E+02 0.  0.
          5    1    3    3  501    0 -0.21221816942E+02 -0.24960583529E+02  0.14154366496E+01  0.33128382173E+02  0.47000000000E+01 0. -1.
        -15    1    4    4    0    0  0.29240160360E+01  0.55614497224E+01  0.51437836653E+01  0.83123902813E+01  0.17770000000E+01 0.  1.
         16    1    4    4    0    0  0.58531171997E+02 -0.46937450305E+02 -0.22869350351E+03  0.24068597983E+03  0.00000000000E+00 0. -1.
         -5    1    5    5    0  502  0.53541734409E+02  0.28273110681E+02 -0.42560686384E+02  0.74159208037E+02  0.47000000000E+01 0.  1.
         15    1    6    6    0    0 -0.20716198961E+02 -0.25404976022E+02 -0.22351210010E+02  0.39715337390E+02  0.17770000000E+01 0. -1.
        -16    1    6    6    0    0 -0.73058906538E+02  0.63468449453E+02 -0.78919653964E+02  0.12487657780E+03  0.00000000000E+00 0.  1.
<mgrwt>
<rscale>  2 0.18626207E+03</rscale>
<asrwt>0</asrwt>
<pdfrwt beam="1">  1       21 0.11916311E-01 0.19056386E+03</pdfrwt>
<pdfrwt beam="2">  1       21 0.68218746E-01 0.19056386E+03</pdfrwt>
<totfact> 0.11661830E+05</totfact>
</mgrwt>
</event>
<event>
12    2  0.4097182E-002  0.1845486E+03  0.7546771E-02  0.1163700E+00
         21   -1    0    0  501  502  0.00000000000E+00  0.00000000000E+00  0.15498424316E+04  0.15498424316E+04  0.00000000000E+00 0. -1.
         21   -1    0    0  502  503 -0.00000000000E+00 -0.00000000000E+00 -0.31759858057E+02  0.31759858057E+02  0.00000000000E+00 0. -1.
         -6    2    1    2    0  503 -0.50390002455E+02 -0.33859230579E+02  0.31890199743E+03  0.36845174169E+03  0.17427737129E+03 0.  0.
        -24    2    3    3    0    0 -0.21880007690E+01 -0.76213811834E+02  0.17738725142E+03  0.21299802878E+03  0.89936593406E+02 0.  0.
          6    2    1    2  501    0  0.50390002455E+02  0.33859230579E+02  0.11991805761E+04  0.12131505480E+04  0.17324721664E+03 0.  0.
         24    2    5    5    0    0  0.83409345149E+02  0.64020810234E+02  0.10138672507E+04  0.10224593934E+04  0.80253510735E+02 0.  0.
          5    1    5    5  501    0 -0.33019342693E+02 -0.30161579655E+02  0.18531332543E+03  0.19069115465E+03  0.47000000000E+01 0. -1.
        -15    1    6    6    0    0  0.25713469504E+02  0.26111494020E+02  0.10995815778E+03  0.11591784515E+03  0.17770000000E+01 0.  1.
         16    1    6    6    0    0  0.57695875645E+02  0.37909316214E+02  0.90390909293E+03  0.90654154820E+03  0.00000000000E+00 0. -1.
         -5    1    3    3    0  503 -0.48202001686E+02  0.42354581255E+02  0.14151474601E+03  0.15545371291E+03  0.47000000000E+01 0.  1.
         15    1    4    4    0    0 -0.19881860628E+02 -0.93035937033E+01 -0.59702940335E+00  0.22030874039E+02  0.17770000000E+01 0. -1.
        -16    1    4    4    0    0  0.17693859859E+02 -0.66910218131E+02  0.17798428083E+03  0.19096715474E+03  0.00000000000E+00 0.  1.
<mgrwt>
<rscale>  2 0.18430504E+03</rscale>
<asrwt>0</asrwt>
<pdfrwt beam="1">  1       21 0.23843724E+00 0.18454864E+03</pdfrwt>
<pdfrwt beam="2">  1       21 0.48861332E-02 0.18454864E+03</pdfrwt>
<totfact> 0.21920603E+04</totfact>
</mgrwt>
</event>
<event>
12    2  0.4097182E-002  0.2022684E+03  0.7546771E-02  0.1147925E+00
         21   -1    0    0  503  502  0.00000000000E+00  0.00000000000E+00  0.15272723409E+03  0.15272723409E+03  0.00000000000E+00 0. -1.
         21   -1    0    0  501  503 -0.00000000000E+00 -0.00000000000E+00 -0.41068617188E+03  0.41068617188E+03  0.00000000000E+00 0. -1.
          6    2    1    2  501    0 -0.74717833324E+02 -0.73697755423E+02 -0.29550055813E+03  0.35809647275E+03  0.17291150966E+03 0.  0.
         24    2    3    3    0    0 -0.78404152303E+01  0.23593841748E+02 -0.10897582209E+03  0.13729834983E+03  0.79730581250E+02 0.  0.
         -6    2    1    2    0  502  0.74717833324E+02  0.73697755423E+02  0.37541620338E+02  0.20531693322E+03  0.17242840844E+03 0.  0.
        -24    2    5    5    0    0  0.42122674128E+02  0.49598606937E+02  0.91446829351E+02  0.13770720818E+03  0.79789793209E+02 0.  0.
          5    1    3    3  501    0 -0.66877418094E+02 -0.97291597171E+02 -0.18652473604E+03  0.22079812292E+03  0.47000000000E+01 0. -1.
        -15    1    4    4    0    0  0.58514435786E+01  0.45470313429E+02 -0.99916507228E+02  0.10994660041E+03  0.17770000000E+01 0.  1.
         16    1    4    4    0    0 -0.13691858809E+02 -0.21876471681E+02 -0.90593148640E+01  0.27351749426E+02  0.00000000000E+00 0. -1.
         -5    1    5    5    0  502  0.32595159196E+02  0.24099148486E+02 -0.53905209013E+02  0.67609725037E+02  0.47000000000E+01 0.  1.
         15    1    6    6    0    0  0.21706091571E+02 -0.20209525863E+02  0.20455356196E+02  0.36071577079E+02  0.17770000000E+01 0. -1.
        -16    1    6    6    0    0  0.20416582558E+02  0.69808132800E+02  0.70991473155E+02  0.10163563110E+03  0.00000000000E+00 0.  1.
<mgrwt>
<rscale>  2 0.20216511E+03</rscale>
<asrwt>0</asrwt>
<pdfrwt beam="1">  1       21 0.23496497E-01 0.20226840E+03</pdfrwt>
<pdfrwt beam="2">  1       21 0.63182488E-01 0.20226840E+03</pdfrwt>
<totfact> 0.39309830E+04</totfact>
</mgrwt>
</event>
<event>
12    2  0.4097182E-002  0.3161205E+03  0.7546771E-02  0.1077695E+00
         21   -1    0    0  501  502  0.00000000000E+00  0.00000000000E+00  0.19552493417E+03  0.19552493417E+03  0.00000000000E+00 0. -1.
         21   -1    0    0  502  503 -0.00000000000E+00 -0.00000000000E+00 -0.79246165887E+03  0.79246165887E+03  0.00000000000E+00 0. -1.
         -6    2    1    2    0  503 -0.18778069755E+03 -0.18285546911E+03 -0.59395036522E+03  0.67185197066E+03  0.17294600653E+03 0.  0.
        -24    2    3    3    0    0 -0.15103727922E+03 -0.20634990560E+03 -0.50096531947E+03  0.56903963643E+03  0.86297817224E+02 0.  0.
          6    2    1    2  501    0  0.18778069755E+03  0.18285546911E+03 -0.29863594763E+01  0.31613462239E+03  0.17673275920E+03 0.  0.
         24    2    5    5    0    0  0.20181610715E+03  0.19387132206E+03  0.60105562017E+01  0.29560717173E+03  0.95034954478E+02 0.  0.
          5    1    5    5  501    0 -0.14035409600E+02 -0.11015852946E+02 -0.89969156780E+01  0.20527450657E+02  0.47000000000E+01 0. -1.
        -15    1    6    6    0    0  0.81632925498E+02  0.13295510083E+03  0.29625289431E+02  0.15881375528E+03  0.17770000000E+01 0.  1.
         16    1    6    6    0    0  0.12018318165E+03  0.60916221228E+02 -0.23614733229E+02  0.13679341645E+03  0.00000000000E+00 0. -1.
         -5    1    3    3    0  503 -0.36743418327E+02  0.23494436489E+02 -0.92985045753E+02  0.10281233423E+03  0.47000000000E+01 0.  1.
         15    1    4    4    0    0 -0.93905984502E+02 -0.93783710412E+02 -0.17615499012E+03  0.22056168420E+03  0.17770000000E+01 0. -1.
        -16    1    4    4    0    0 -0.57131294718E+02 -0.11256619519E+03 -0.32481032936E+03  0.34847795223E+03  0.00000000000E+00 0.  1.
<mgrwt>
<rscale>  2 0.31559386E+03</rscale>
<asrwt>0</asrwt>
<pdfrwt beam="1">  1       21 0.30080760E-01 0.31612052E+03</pdfrwt>
<pdfrwt beam="2">  1       21 0.12191718E+00 0.31612052E+03</pdfrwt>
<totfact> 0.49743213E+03</totfact>
</mgrwt>
</event>
<event>
12    2  0.4097182E-002  0.1756657E+03  0.7546771E-02  0.1172463E+00
         21   -1    0    0  501  502  0.00000000000E+00  0.00000000000E+00  0.49503078497E+03  0.49503078497E+03  0.00000000000E+00 0. -1.
         21   -1    0    0  502  503 -0.00000000000E+00 -0.00000000000E+00 -0.10194661064E+03  0.10194661064E+03  0.00000000000E+00 0. -1.
         -6    2    1    2    0  503 -0.85768515474E+01  0.15959523453E+02  0.97131444139E+01  0.17593398552E+03  0.17472879933E+03 0.  0.
        -24    2    3    3    0    0 -0.69273252869E+02 -0.33435833850E+01  0.26795056315E+02  0.10982388961E+03  0.80829131957E+02 0.  0.
          6    2    1    2  501    0  0.85768515474E+01 -0.15959523453E+02  0.38337102991E+03  0.42104341009E+03  0.17313560534E+03 0.  0.
         24    2    5    5    0    0 -0.26428851138E+02  0.38841255054E+02  0.13540942982E+03  0.16465392188E+03  0.81043648985E+02 0.  0.
          5    1    5    5  501    0  0.35005702685E+02 -0.54800778507E+02  0.24796160009E+03  0.25638948821E+03  0.47000000000E+01 0. -1.
        -15    1    6    6    0    0  0.20261549162E+02 -0.28942819971E+01  0.68560245346E+01  0.21658024937E+02  0.17770000000E+01 0.  1.
         16    1    6    6    0    0 -0.46690400300E+02  0.41735537051E+02  0.12855340529E+03  0.14299589695E+03  0.00000000000E+00 0. -1.
         -5    1    3    3    0  503  0.60696401322E+02  0.19303106838E+02 -0.17081911901E+02  0.66110095910E+02  0.47000000000E+01 0.  1.
         15    1    4    4    0    0 -0.33488072989E+02  0.56285328505E+01 -0.27807165871E+02  0.43926388621E+02  0.17770000000E+01 0. -1.
        -16    1    4    4    0    0 -0.35785179880E+02 -0.89721162354E+01  0.54602222185E+02  0.65897500987E+02  0.00000000000E+00 0.  1.
<mgrwt>
<rscale>  2 0.17526815E+03</rscale>
<asrwt>0</asrwt>
<pdfrwt beam="1">  1       21 0.76158581E-01 0.17566565E+03</pdfrwt>
<pdfrwt beam="2">  1       21 0.15684094E-01 0.17566565E+03</pdfrwt>
<totfact> 0.56006025E+04</totfact>
</mgrwt>
</event>
<event>
12    2  0.4097182E-002  0.1962033E+03  0.7546771E-02  0.1157345E+00
         21   -1    0    0  503  502  0.00000000000E+00  0.00000000000E+00  0.81726518165E+02  0.81726518165E+02  0.00000000000E+00 0. -1.
         21   -1    0    0  501  503 -0.00000000000E+00 -0.00000000000E+00 -0.14847840863E+04  0.14847840863E+04  0.00000000000E+00 0. -1.
          6    2    1    2  501    0 -0.37823208963E+02 -0.12007496024E+01 -0.13523008154E+04  0.13638483565E+04  0.17301100298E+03 0.  0.
         24    2    3    3    0    0 -0.13593739303E+02 -0.57372093064E+02 -0.55813829083E+03  0.56731932845E+03  0.82804117861E+02 0.  0.
         -6    2    1    2    0  502  0.37823208963E+02  0.12007496024E+01 -0.50756752741E+02  0.20266224801E+03  0.19251935457E+03 0.  0.
        -24    2    5    5    0    0  0.20501462045E+02 -0.36654700509E+02 -0.96914390578E+02  0.14032690049E+03  0.92387027692E+02 0.  0.
          5    1    3    3  501    0 -0.24229469659E+02  0.56171343462E+02 -0.79416252461E+03  0.79652902805E+03  0.47000000000E+01 0. -1.
        -15    1    4    4    0    0 -0.44689585915E+02 -0.29373910764E+02 -0.21145651975E+03  0.21812153309E+03  0.17770000000E+01 0.  1.
         16    1    4    4    0    0  0.31095846612E+02 -0.27998182300E+02 -0.34668177107E+03  0.34919779536E+03  0.00000000000E+00 0. -1.
         -5    1    5    5    0  502  0.17321746918E+02  0.37855450112E+02  0.46157637836E+02  0.62335347517E+02  0.47000000000E+01 0.  1.
         15    1    6    6    0    0 -0.28454387429E+02  0.13355931155E+02 -0.31304676184E+02  0.44397900186E+02  0.17770000000E+01 0. -1.
        -16    1    6    6    0    0  0.48955849474E+02 -0.50010631665E+02 -0.65609714394E+02  0.95929000307E+02  0.00000000000E+00 0.  1.
<mgrwt>
<rscale>  2 0.19124282E+03</rscale>
<asrwt>0</asrwt>
<pdfrwt beam="1">  1       21 0.12573312E-01 0.19620331E+03</pdfrwt>
<pdfrwt beam="2">  1       21 0.22842830E+00 0.19620331E+03</pdfrwt>
<totfact> 0.48077082E+03</totfact>
</mgrwt>
</event>
<event>
12    2  0.4097182E-002  0.1776030E+03  0.7546771E-02  0.1170681E+00
         21   -1    0    0  503  502  0.00000000000E+00  0.00000000000E+00  0.30741253752E+03  0.30741253752E+03  0.00000000000E+00 0. -1.
         21   -1    0    0  501  503 -0.00000000000E+00 -0.00000000000E+00 -0.56124720549E+03  0.56124720549E+03  0.00000000000E+00 0. -1.
          6    2    1    2  501    0 -0.16755833680E+02 -0.26564393239E+02 -0.51993517903E+03  0.54873429628E+03  0.17259870385E+03 0.  0.
         24    2    3    3    0    0 -0.60505367788E+02  0.11794538682E+02 -0.20477773515E+03  0.22821638129E+03  0.79679264587E+02 0.  0.
         -6    2    1    2    0  502  0.16755833680E+02  0.26564393239E+02  0.26610051106E+03  0.31992544673E+03  0.17480384586E+03 0.  0.
        -24    2    5    5    0    0 -0.56196229355E+02  0.28283504572E+02  0.18366718519E+03  0.20973333241E+03  0.79350255089E+02 0.  0.
          5    1    3    3  501    0  0.43749534108E+02 -0.38358931921E+02 -0.31515744388E+03  0.32051791499E+03  0.47000000000E+01 0. -1.
        -15    1    4    4    0    0 -0.12161265744E+02  0.20423215771E+02 -0.76046452537E+01  0.25019841833E+02  0.17770000000E+01 0.  1.
         16    1    4    4    0    0 -0.48344102044E+02 -0.86286770892E+01 -0.19717308989E+03  0.20319653946E+03  0.00000000000E+00 0. -1.
         -5    1    5    5    0  502  0.72952063036E+02 -0.17191113322E+01  0.82433325871E+02  0.11019211432E+03  0.47000000000E+01 0.  1.
         15    1    6    6    0    0 -0.14070659844E+02 -0.15256745248E+02  0.12020460641E+03  0.12199613467E+03  0.17770000000E+01 0. -1.
        -16    1    6    6    0    0 -0.42125569511E+02  0.43540249820E+02  0.63462578783E+02  0.87737197738E+02  0.00000000000E+00 0.  1.
<mgrwt>
<rscale>  2 0.17705796E+03</rscale>
<asrwt>0</asrwt>
<pdfrwt beam="1">  1       21 0.47294237E-01 0.17760295E+03</pdfrwt>
<pdfrwt beam="2">  1       21 0.86345724E-01 0.17760295E+03</pdfrwt>
<totfact> 0.50039242E+03</totfact>
</mgrwt>
</event>
<event>
12    2  0.4097182E-002  0.2949057E+03  0.7546771E-02  0.1088062E+00
         21   -1    0    0  503  502  0.00000000000E+00  0.00000000000E+00  0.17230842475E+04  0.17230842475E+04  0.00000000000E+00 0. -1.
         21   -1    0    0  501  503 -0.00000000000E+00 -0.00000000000E+00 -0.15627320923E+03  0.15627320923E+03  0.00000000000E+00 0. -1.
          6    2    1    2  501    0 -0.64817403164E+02 -0.22743935414E+03  0.82024636224E+01  0.29309454219E+03  0.17293690955E+03 0.  0.
         24    2    3    3    0    0  0.16602912034E+02 -0.62459854787E+02 -0.26362706279E+02  0.10583978549E+03  0.79562414261E+02 0.  0.
         -6    2    1    2    0  502  0.64817403164E+02  0.22743935414E+03  0.15586085747E+04  0.15862629146E+04  0.17617999181E+03 0.  0.
        -24    2    5    5    0    0  0.65930738867E+02  0.20010592948E+03  0.15302208035E+04  0.15465601291E+04  0.76702543730E+02 0.  0.
          5    1    3    3  501    0 -0.81420315197E+02 -0.16497949935E+03  0.34565169902E+02  0.18725475669E+03  0.47000000000E+01 0. -1.
        -15    1    4    4    0    0 -0.13638963166E+02  0.10759671179E+02 -0.19723050959E+02  0.26342898630E+02  0.17770000000E+01 0.  1.
         16    1    4    4    0    0  0.30241875200E+02 -0.73219525966E+02 -0.66396553205E+01  0.79496886864E+02  0.00000000000E+00 0. -1.
         -5    1    5    5    0  502 -0.11133357028E+01  0.27333424656E+02  0.28387771216E+02  0.39702785474E+02  0.47000000000E+01 0.  1.
         15    1    6    6    0    0  0.67933930411E+02  0.15083612534E+03  0.95446822819E+03  0.96869980488E+03  0.17770000000E+01 0. -1.
        -16    1    6    6    0    0 -0.20031915446E+01  0.49269804149E+02  0.57575257529E+03  0.57786032424E+03  0.00000000000E+00 0.  1.
<mgrwt>
<rscale>  2 0.29442299E+03</rscale>
<asrwt>0</asrwt>
<pdfrwt beam="1">  1       21 0.26508987E+00 0.29490565E+03</pdfrwt>
<pdfrwt beam="2">  1       21 0.24042033E-01 0.29490565E+03</pdfrwt>
<totfact> 0.79640304E+02</totfact>
</mgrwt>
</event>
<event>
12    2  0.4097182E-002  0.2435482E+03  0.7546771E-02  0.1117720E+00
         21   -1    0    0  503  502  0.00000000000E+00  0.00000000000E+00  0.15140156881E+04  0.15140156881E+04  0.00000000000E+00 0. -1.
         21   -1    0    0  501  503 -0.00000000000E+00 -0.00000000000E+00 -0.70585543123E+02  0.70585543123E+02  0.00000000000E+00 0. -1.
          6    2    1    2  501    0 -0.12404132712E+03  0.11556037035E+03  0.19234381446E+03  0.31034152609E+03  0.17485785607E+03 0.  0.
         24    2    3    3    0    0 -0.91238279572E+02  0.15088531432E+03  0.16077585597E+03  0.25252701582E+03  0.82645121573E+02 0.  0.
         -6    2    1    2    0  502  0.12404132712E+03 -0.11556037035E+03  0.12510863305E+04  0.12742597051E+04  0.17256981101E+03 0.  0.
        -24    2    5    5    0    0  0.65962844101E+02 -0.14304639104E+03  0.95448870735E+03  0.97074556775E+03  0.80528864657E+02 0.  0.
          5    1    3    3  501    0 -0.32803047552E+02 -0.35324943969E+02  0.31567958486E+02  0.57814510273E+02  0.47000000000E+01 0. -1.
        -15    1    4    4    0    0 -0.19771124608E+02 -0.10658929174E+01  0.43148424457E+02  0.47507659994E+02  0.17770000000E+01 0.  1.
         16    1    4    4    0    0 -0.71467154964E+02  0.15195120723E+03  0.11762743151E+03  0.20501935583E+03  0.00000000000E+00 0. -1.
         -5    1    5    5    0  502  0.58078483023E+02  0.27486020689E+02  0.29659762317E+03  0.30351413739E+03  0.47000000000E+01 0.  1.
         15    1    6    6    0    0  0.51552821408E+02 -0.34235006857E+02  0.23908376965E+03  0.24696950364E+03  0.17770000000E+01 0. -1.
        -16    1    6    6    0    0  0.14410022693E+02 -0.10881138418E+03  0.71540493770E+03  0.72377606410E+03  0.00000000000E+00 0.  1.
<mgrwt>
<rscale>  2 0.24313778E+03</rscale>
<asrwt>0</asrwt>
<pdfrwt beam="1">  1       21 0.23292547E+00 0.24354819E+03</pdfrwt>
<pdfrwt beam="2">  1       21 0.10859315E-01 0.24354819E+03</pdfrwt>
<totfact> 0.56278269E+03</totfact>
</mgrwt>
</event>
<event>
12    2  0.4097182E-002  0.2292929E+03  0.7546771E-02  0.1127145E+00
         21   -1    0    0  503  502  0.00000000000E+00  0.00000000000E+00  0.16150508262E+04  0.16150508262E+04  0.00000000000E+00 0.  1.
         21   -1    0    0  501  503 -0.00000000000E+00 -0.00000000000E+00 -0.37141559489E+02  0.37141559489E+02  0.00000000000E+00 0.  1.
          6    2    1    2  501    0 -0.47340732091E+02  0.13952226638E+03  0.49849080137E+03  0.54869691169E+03  0.17569181575E+03 0.  0.
         24    2    3    3    0    0  0.33354969871E+02  0.10804095271E+03  0.25672315909E+03  0.29183789924E+03  0.80480914147E+02 0.  0.
         -6    2    1    2    0  502  0.47340732091E+02 -0.13952226638E+03  0.10794184654E+04  0.11034954740E+04  0.17564290500E+03 0.  0.
        -24    2    5    5    0    0  0.94503317660E+02 -0.79263597510E+02  0.81673470605E+03  0.82985288950E+03  0.79916476491E+02 0.  0.
          5    1    3    3  501    0 -0.80695701962E+02  0.31481313667E+02  0.24176764228E+03  0.25685901245E+03  0.47000000000E+01 0. -1.
        -15    1    4    4    0    0  0.29275700397E+02  0.37692765818E+02  0.18587646287E+03  0.19191411726E+03  0.17770000000E+01 0.  1.
         16    1    4    4    0    0  0.40792694741E+01  0.70348186891E+02  0.70846696223E+02  0.99923781974E+02  0.00000000000E+00 0. -1.
         -5    1    5    5    0  502 -0.47162585569E+02 -0.60258668866E+02  0.26268375932E+03  0.27364258452E+03  0.47000000000E+01 0.  1.
         15    1    6    6    0    0  0.55339392481E+02 -0.30028849156E+02  0.19446980416E+03  0.20441585702E+03  0.17770000000E+01 0. -1.
        -16    1    6    6    0    0  0.39163925179E+02 -0.49234748354E+02  0.62226490189E+03  0.62543703249E+03  0.00000000000E+00 0.  1.
<mgrwt>
<rscale>  2 0.22928350E+03</rscale>
<asrwt>0</asrwt>
<pdfrwt beam="1">  1       21 0.24846930E+00 0.22929287E+03</pdfrwt>
<pdfrwt beam="2">  1       21 0.57140873E-02 0.22929287E+03</pdfrwt>
<totfact> 0.14101825E+04</totfact>
</mgrwt>
</event>
<event>
12    2  0.4097182E-002  0.1733581E+03  0.7546771E-02  0.1174454E+00
         21   -1    0    0  501  502  0.00000000000E+00  0.00000000000E+00  0.19470241252E+04  0.19470241252E+04  0.00000000000E+00 0. -1.
         21   -1    0    0  502  503 -0.00000000000E+00 -0.00000000000E+00 -0.17767446680E+02  0.17767446680E+02  0.00000000000E+00 0. -1.
         -6    2    1    2    0  503 -0.18815246495E+01 -0.87193059292E+00  0.60763087076E+03  0.63187680678E+03  0.17334567616E+03 0.  0.
        -24    2    3    3    0    0  0.38035460305E+02 -0.48498002653E+02  0.27179665782E+03  0.29030936540E+03  0.81285619478E+02 0.  0.
          6    2    1    2  501    0  0.18815246495E+01  0.87193059292E+00  0.13216258077E+04  0.13329147651E+04  0.17309735670E+03 0.  0.
         24    2    5    5    0    0  0.42910270992E+02 -0.54026579613E+02  0.59720673424E+03  0.60524568611E+03  0.70044946055E+02 0.  0.
          5    1    5    5  501    0 -0.41028746343E+02  0.54898510206E+02  0.72441907348E+03  0.72766907895E+03  0.47000000000E+01 0. -1.
        -15    1    6    6    0    0  0.45488533510E+02 -0.40693341771E+02  0.58056070909E+03  0.58376283662E+03  0.17770000000E+01 0.  1.
         16    1    6    6    0    0 -0.25782625173E+01 -0.13333237842E+02  0.16646025150E+02  0.21482849491E+02  0.00000000000E+00 0. -1.
         -5    1    3    3    0  503 -0.39916984954E+02  0.47626072060E+02  0.33583421294E+03  0.34156744138E+03  0.47000000000E+01 0.  1.
         15    1    4    4    0    0  0.36008690761E+02 -0.70734253877E+02  0.20264137424E+03  0.21763879425E+03  0.17770000000E+01 0. -1.
        -16    1    4    4    0    0  0.20267695441E+01  0.22236251224E+02  0.69155283586E+02  0.72670571149E+02  0.00000000000E+00 0.  1.
<mgrwt>
<rscale>  2 0.17329597E+03</rscale>
<asrwt>0</asrwt>
<pdfrwt beam="1">  1       21 0.29954200E+00 0.17335808E+03</pdfrwt>
<pdfrwt beam="2">  1       21 0.27334549E-02 0.17335808E+03</pdfrwt>
<totfact> 0.25839798E+04</totfact>
</mgrwt>
</event>
<event>
12    2  0.4097182E-002  0.2780579E+03  0.7546771E-02  0.1097348E+00
         21   -1    0    0  501  502  0.00000000000E+00  0.00000000000E+00  0.62824205282E+02  0.62824205282E+02  0.00000000000E+00 0. -1.
         21   -1    0    0  502  503 -0.00000000000E+00 -0.00000000000E+00 -0.12691523319E+04  0.12691523319E+04  0.00000000000E+00 0.  1.
         -6    2    1    2    0  503 -0.10440043954E+02  0.22070971389E+03 -0.46611247326E+03  0.54274949792E+03  0.16880286562E+03 0.  0.
        -24    2    3    3    0    0 -0.71292993855E+02  0.15518785917E+03 -0.30792596811E+03  0.36097696048E+03  0.79498437423E+02 0.  0.
          6    2    1    2  501    0  0.10440043954E+02 -0.22070971389E+03 -0.74021565335E+03  0.78922703925E+03  0.16167354050E+03 0.  0.
         24    2    5    5    0    0  0.54951934577E+02 -0.15324560304E+03 -0.39985001865E+03  0.43936482360E+03  0.81593387188E+02 0.  0.
          5    1    5    5  501    0 -0.44511890623E+02 -0.67464110846E+02 -0.34036563470E+03  0.34986221565E+03  0.47000000000E+01 0. -1.
        -15    1    6    6    0    0 -0.18306789803E+01 -0.11095003574E+03 -0.23126668679E+03  0.25651647114E+03  0.17770000000E+01 0.  1.
         16    1    6    6    0    0  0.56782613558E+02 -0.42295567300E+02 -0.16858333186E+03  0.18284835246E+03  0.00000000000E+00 0. -1.
         -5    1    3    3    0  503  0.60852949901E+02  0.65521854723E+02 -0.15818650515E+03  0.18177253744E+03  0.47000000000E+01 0.  1.
         15    1    4    4    0    0 -0.72528142184E+02  0.13449889716E+03 -0.30347282221E+03  0.33977815747E+03  0.17770000000E+01 0. -1.
        -16    1    4    4    0    0  0.12351483297E+01  0.20688962010E+02 -0.44531459000E+01  0.21198803005E+02  0.00000000000E+00 0.  1.
<mgrwt>
<rscale>  2 0.27698431E+03</rscale>
<asrwt>0</asrwt>
<pdfrwt beam="1">  1       21 0.96652629E-02 0.27805787E+03</pdfrwt>
<pdfrwt beam="2">  1       21 0.19525419E+00 0.27805787E+03</pdfrwt>
<totfact> 0.11704130E+04</totfact>
</mgrwt>
</event>
<event>
12    2  0.4097182E-002  0.2520925E+03  0.7546771E-02  0.1112131E+00
         21   -1    0    0  501  502  0.00000000000E+00  0.00000000000E+00  0.66739713802E+03  0.66739713802E+03  0.00000000000E+00 0. -1.
         21   -1    0    0  502  503 -0.00000000000E+00 -0.00000000000E+00 -0.96048181545E+02  0.96048181545E+02  0.00000000000E+00 0. -1.
         -6    2    1    2    0  503  0.17870393713E+03  0.37237295004E+02  0.24308726669E+03  0.34955357146E+03  0.17255308402E+03 0.  0.
        -24    2    3    3    0    0  0.58088074572E+02 -0.48751353535E+01  0.29737628587E+02  0.10083324424E+03  0.76713918149E+02 0.  0.
          6    2    1    2  501    0 -0.17870393713E+03 -0.37237295004E+02  0.32826168979E+03  0.41389174811E+03  0.17386468556E+03 0.  0.
         24    2    5    5    0    0 -0.16378285870E+03  0.16342396701E+02  0.18328645779E+03  0.25854269006E+03  0.78476099804E+02 0.  0.
          5    1    5    5  501    0 -0.14921078434E+02 -0.53579691705E+02  0.14497523200E+03  0.15534905805E+03  0.47000000000E+01 0. -1.
        -15    1    6    6    0    0 -0.13290662150E+02  0.63098704358E+01  0.65549692335E+02  0.67203988420E+02  0.17770000000E+01 0.  1.
         16    1    6    6    0    0 -0.15049219655E+03  0.10032526265E+02  0.11773676545E+03  0.19133870164E+03  0.00000000000E+00 0. -1.
         -5    1    3    3    0  503  0.12061586256E+03  0.42112430358E+02  0.21334963811E+03  0.24872032722E+03  0.47000000000E+01 0.  1.
         15    1    4    4    0    0  0.20431129461E+02  0.30406380838E+02  0.32712228893E+02  0.49144955945E+02  0.17770000000E+01 0. -1.
        -16    1    4    4    0    0  0.37656945111E+02 -0.35281516191E+02 -0.29746003063E+01  0.51688288295E+02  0.00000000000E+00 0.  1.
<mgrwt>
<rscale>  2 0.25186652E+03</rscale>
<asrwt>0</asrwt>
<pdfrwt beam="1">  1       21 0.10267648E+00 0.25209253E+03</pdfrwt>
<pdfrwt beam="2">  1       21 0.14776644E-01 0.25209253E+03</pdfrwt>
<totfact> 0.30130106E+04</totfact>
</mgrwt>
</event>
<event>
12    2  0.4097182E-002  0.2058711E+03  0.7546771E-02  0.1145016E+00
         21   -1    0    0  503  502  0.00000000000E+00  0.00000000000E+00  0.25657234588E+03  0.25657234588E+03  0.00000000000E+00 0. -1.
         21   -1    0    0  501  503 -0.00000000000E+00 -0.00000000000E+00 -0.40119410655E+03  0.40119410655E+03  0.00000000000E+00 0.  1.
          6    2    1    2  501    0  0.25280331447E+02  0.10794440041E+03 -0.32479916739E+03  0.38418503345E+03  0.17266311723E+03 0.  0.
         24    2    3    3    0    0 -0.48546610570E+02  0.33064107180E+02 -0.17852702405E+03  0.20397652755E+03  0.79274944926E+02 0.  0.
         -6    2    1    2    0  502 -0.25280331447E+02 -0.10794440041E+03  0.18017740672E+03  0.27358141898E+03  0.17346989993E+03 0.  0.
        -24    2    5    5    0    0  0.27505033647E+02 -0.12367010880E+03  0.14158495099E+03  0.20616435652E+03  0.80041369708E+02 0.  0.
          5    1    3    3  501    0  0.73826942017E+02  0.74880293229E+02 -0.14627214334E+03  0.18020850590E+03  0.47000000000E+01 0. -1.
        -15    1    4    4    0    0 -0.35943629940E+01  0.45586944213E+02 -0.12418397293E+03  0.13234767014E+03  0.17770000000E+01 0.  1.
         16    1    4    4    0    0 -0.44952247576E+02 -0.12522837032E+02 -0.54343051118E+02  0.71628857413E+02  0.00000000000E+00 0. -1.
         -5    1    5    5    0  502 -0.52785365094E+02  0.15725708387E+02  0.38592455731E+02  0.67417062468E+02  0.47000000000E+01 0.  1.
         15    1    6    6    0    0  0.95232908339E+01 -0.13015299749E+03  0.11951415518E+03  0.17696690888E+03  0.17770000000E+01 0. -1.
        -16    1    6    6    0    0  0.17981742813E+02  0.64828886903E+01  0.22070795817E+02  0.29197447635E+02  0.00000000000E+00 0.  1.
<mgrwt>
<rscale>  2 0.20570102E+03</rscale>
<asrwt>0</asrwt>
<pdfrwt beam="1">  1       21 0.39472669E-01 0.20587106E+03</pdfrwt>
<pdfrwt beam="2">  1       21 0.61722170E-01 0.20587106E+03</pdfrwt>
<totfact> 0.14958395E+04</totfact>
</mgrwt>
</event>
<event>
12    2  0.4097182E-002  0.2524436E+03  0.7546771E-02  0.1111803E+00
         21   -1    0    0  501  502  0.00000000000E+00  0.00000000000E+00  0.22492274159E+03  0.22492274159E+03  0.00000000000E+00 0. -1.
         21   -1    0    0  502  503 -0.00000000000E+00 -0.00000000000E+00 -0.35874666977E+03  0.35874666977E+03  0.00000000000E+00 0. -1.
         -6    2    1    2    0  503  0.15390284032E+03 -0.10223818295E+03  0.67121772380E+02  0.26101331687E+03  0.17170873287E+03 0.  0.
        -24    2    3    3    0    0  0.15492143874E+03 -0.59062856014E+02  0.41277425619E+01  0.18449218128E+03  0.80816171362E+02 0.  0.
          6    2    1    2  501    0 -0.15390284032E+03  0.10223818295E+03 -0.20094570056E+03  0.32265609449E+03  0.17201468085E+03 0.  0.
         24    2    5    5    0    0 -0.11167752422E+03  0.10097634796E+03 -0.71212560317E+02  0.18613742462E+03  0.83113295156E+02 0.  0.
          5    1    5    5  501    0 -0.42225316097E+02  0.12618349920E+01 -0.12973314025E+03  0.13651866988E+03  0.47000000000E+01 0. -1.
        -15    1    6    6    0    0 -0.10244599630E+02  0.54026815089E+02 -0.45623924377E+02  0.71474112620E+02  0.17770000000E+01 0.  1.
         16    1    6    6    0    0 -0.10143292459E+03  0.46949532869E+02 -0.25588635939E+02  0.11466331200E+03  0.00000000000E+00 0. -1.
         -5    1    3    3    0  503 -0.10185984211E+01 -0.43175326936E+02  0.62994029818E+02  0.76521135587E+02  0.47000000000E+01 0.  1.
         15    1    4    4    0    0  0.36550403221E+02  0.29012242831E+01  0.31190847967E+02  0.48170279259E+02  0.17770000000E+01 0. -1.
        -16    1    4    4    0    0  0.11837103552E+03 -0.61964080297E+02 -0.27063105405E+02  0.13632190202E+03  0.00000000000E+00 0.  1.
<mgrwt>
<rscale>  2 0.25239151E+03</rscale>
<asrwt>0</asrwt>
<pdfrwt beam="1">  1       21 0.34603499E-01 0.25244362E+03</pdfrwt>
<pdfrwt beam="2">  1       21 0.55191795E-01 0.25244362E+03</pdfrwt>
<totfact> 0.24156970E+04</totfact>
</mgrwt>
</event>
<event>
12    2  0.4097182E-002  0.4543442E+03  0.7546771E-02  0.1026451E+00
         21   -1    0    0  503  502  0.00000000000E+00  0.00000000000E+00  0.33875015097E+03  0.33875015097E+03  0.00000000000E+00 0.  1.
         21   -1    0    0  501  503 -0.00000000000E+00 -0.00000000000E+00 -0.62119986886E+03  0.62119986886E+03  0.00000000000E+00 0. -1.
          6    2    1    2  501    0  0.28901316550E+03  0.30500919457E+03 -0.20820883513E+03  0.49958024260E+03  0.17225063474E+03 0.  0.
         24    2    3    3    0    0  0.12037338783E+03  0.13653035644E+03 -0.28767598635E+02  0.20117491278E+03  0.80706134056E+02 0.  0.
         -6    2    1    2    0  502 -0.28901316550E+03 -0.30500919457E+03 -0.74240882772E+02  0.46036977723E+03  0.17282767287E+03 0.  0.
        -24    2    5    5    0    0 -0.19119348038E+03 -0.11062011811E+03 -0.48452042324E+02  0.24118273808E+03  0.83843635835E+02 0.  0.
          5    1    3    3  501    0  0.16863977767E+03  0.16847883812E+03 -0.17944123649E+03  0.29840532981E+03  0.47000000000E+01 0. -1.
        -15    1    4    4    0    0  0.11602346355E+03  0.88702454917E+02 -0.17420740062E+01  0.14606766293E+03  0.17770000000E+01 0.  1.
         16    1    4    4    0    0  0.43499242850E+01  0.47827901524E+02 -0.27025524629E+02  0.55107249858E+02  0.00000000000E+00 0. -1.
         -5    1    5    5    0  502 -0.97819685123E+02 -0.19438907645E+03 -0.25788840448E+02  0.21918703915E+03  0.47000000000E+01 0.  1.
         15    1    6    6    0    0 -0.10779860750E+03 -0.79070508011E+02 -0.67853447944E+02  0.14993309555E+03  0.17770000000E+01 0. -1.
        -16    1    6    6    0    0 -0.83394872883E+02 -0.31549610102E+02  0.19401405619E+02  0.91249642523E+02  0.00000000000E+00 0.  1.
<mgrwt>
<rscale>  2 0.45428936E+03</rscale>
<asrwt>0</asrwt>
<pdfrwt beam="1">  1       21 0.52115408E-01 0.45434417E+03</pdfrwt>
<pdfrwt beam="2">  1       21 0.95569210E-01 0.45434417E+03</pdfrwt>
<totfact> 0.27676213E+03</totfact>
</mgrwt>
</event>
<event>
12    2  0.4097182E-002  0.1859055E+03  0.7546771E-02  0.1162298E+00
         21   -1    0    0  503  502  0.00000000000E+00  0.00000000000E+00  0.30156531223E+03  0.30156531223E+03  0.00000000000E+00 0.  1.
         21   -1    0    0  501  503 -0.00000000000E+00 -0.00000000000E+00 -0.44612341395E+03  0.44612341395E+03  0.00000000000E+00 0.  1.
          6    2    1    2  501    0  0.69615646633E+02  0.10033021089E+02 -0.39464469703E+03  0.43607332323E+03  0.17166393495E+03 0.  0.
         24    2    3    3    0    0 -0.15992010087E+02  0.42864283694E+02 -0.23176333130E+03  0.24910008451E+03  0.79015942463E+02 0.  0.
         -6    2    1    2    0  502 -0.69615646633E+02 -0.10033021089E+02  0.25008659531E+03  0.31161540295E+03  0.17208676426E+03 0.  0.
        -24    2    5    5    0    0 -0.89112992518E+02  0.20852208002E+02  0.24621489029E+03  0.27458671175E+03  0.80000937823E+02 0.  0.
          5    1    3    3  501    0  0.85607656720E+02 -0.32831262605E+02 -0.16288136574E+03  0.18697323872E+03  0.47000000000E+01 0. -1.
        -15    1    4    4    0    0 -0.39933004286E+01  0.18079228600E+02 -0.21711387111E+03  0.21790914554E+03  0.17770000000E+01 0.  1.
         16    1    4    4    0    0 -0.11998709658E+02  0.24785055095E+02 -0.14649460190E+02  0.31190938963E+02  0.00000000000E+00 0. -1.
         -5    1    5    5    0  502  0.19497345885E+02 -0.30885229091E+02  0.38717050215E+01  0.37028691205E+02  0.47000000000E+01 0.  1.
         15    1    6    6    0    0  0.11199157526E+02 -0.88525331518E+01  0.14886979985E+02  0.20701893019E+02  0.17770000000E+01 0. -1.
        -16    1    6    6    0    0 -0.10031215004E+03  0.29704741154E+02  0.23132791030E+03  0.25388481873E+03  0.00000000000E+00 0.  1.
<mgrwt>
<rscale>  2 0.18580759E+03</rscale>
<asrwt>0</asrwt>
<pdfrwt beam="1">  1       21 0.46394664E-01 0.18590550E+03</pdfrwt>
<pdfrwt beam="2">  1       21 0.68634371E-01 0.18590550E+03</pdfrwt>
<totfact> 0.86524298E+03</totfact>
</mgrwt>
</event>
<event>
12    2  0.4097182E-002  0.2026975E+03  0.7546771E-02  0.1148200E+00
         21   -1    0    0  501  502  0.00000000000E+00  0.00000000000E+00  0.23509964353E+04  0.23509964353E+04  0.00000000000E+00 0.  1.
         21   -1    0    0  502  503 -0.00000000000E+00 -0.00000000000E+00 -0.19441717219E+02  0.19441717219E+02  0.00000000000E+00 0.  1.
         -6    2    1    2    0  503  0.81202002858E+02  0.50895382146E+02  0.77048890180E+03  0.79670535822E+03  0.17861179925E+03 0.  0.
        -24    2    3    3    0    0  0.33679513793E+02  0.98084185356E+02  0.58251190351E+03  0.59709921602E+03  0.80327697500E+02 0.  0.
          6    2    1    2  501    0 -0.81202002858E+02 -0.50895382146E+02  0.15610658163E+04  0.15737327943E+04  0.17471210574E+03 0.  0.
         24    2    5    5    0    0 -0.66464863698E+02  0.36188333818E+02  0.81708061354E+03  0.82450864309E+03  0.80415172027E+02 0.  0.
          5    1    5    5  501    0 -0.14737139160E+02 -0.87083715965E+02  0.74398520278E+03  0.74922415125E+03  0.47000000000E+01 0. -1.
        -15    1    6    6    0    0 -0.18062855345E+02  0.18633431274E+02  0.62814094208E+03  0.62867930804E+03  0.17770000000E+01 0.  1.
         16    1    6    6    0    0 -0.48402008353E+02  0.17554902544E+02  0.18893967146E+03  0.19582933505E+03  0.00000000000E+00 0. -1.
         -5    1    3    3    0  503  0.47522489065E+02 -0.47188803209E+02  0.18797699829E+03  0.19960614219E+03  0.47000000000E+01 0.  1.
         15    1    4    4    0    0  0.39444574307E+02  0.96435764386E+01  0.23342473301E+03  0.23693698892E+03  0.17770000000E+01 0. -1.
        -16    1    4    4    0    0 -0.57650605147E+01  0.88440608917E+02  0.34908717050E+03  0.36016222710E+03  0.00000000000E+00 0.  1.
<mgrwt>
<rscale>  2 0.20183508E+03</rscale>
<asrwt>0</asrwt>
<pdfrwt beam="1">  1       21 0.36169153E+00 0.20269751E+03</pdfrwt>
<pdfrwt beam="2">  1       21 0.29910353E-02 0.20269751E+03</pdfrwt>
<totfact> 0.93653530E+03</totfact>
</mgrwt>
</event>
<event>
12    2  0.4097182E-002  0.1977467E+03  0.7546771E-02  0.1151707E+00
         21   -1    0    0  501  502  0.00000000000E+00  0.00000000000E+00  0.10538775117E+03  0.10538775117E+03  0.00000000000E+00 0. -1.
         21   -1    0    0  502  503 -0.00000000000E+00 -0.00000000000E+00 -0.20924477896E+04  0.20924477896E+04  0.00000000000E+00 0.  1.
         -6    2    1    2    0  503  0.77782301549E+02  0.54334649301E+02 -0.19905083887E+04  0.20003068281E+04  0.17349760977E+03 0.  0.
        -24    2    3    3    0    0  0.12227840754E+02  0.19751477006E+02 -0.43859273651E+03  0.44661520343E+03  0.81005620047E+02 0.  0.
          6    2    1    2  501    0 -0.77782301549E+02 -0.54334649301E+02  0.34483502259E+01  0.19752871270E+03  0.17321478191E+03 0.  0.
         24    2    5    5    0    0 -0.46683191177E+02  0.24459543817E+02 -0.14412641356E+02  0.11082932080E+03  0.96425227489E+02 0.  0.
          5    1    5    5  501    0 -0.31099110371E+02 -0.78794193118E+02  0.17860991581E+02  0.86699391896E+02  0.47000000000E+01 0. -1.
        -15    1    6    6    0    0 -0.95209538611E+01 -0.36827484205E+02 -0.23951391458E+01  0.38155033427E+02  0.17770000000E+01 0.  1.
         16    1    6    6    0    0 -0.37162237316E+02  0.61287028021E+02 -0.12017502210E+02  0.72674287375E+02  0.00000000000E+00 0. -1.
         -5    1    3    3    0  503  0.65554460795E+02  0.34583172295E+02 -0.15519156522E+04  0.15536916247E+04  0.47000000000E+01 0.  1.
         15    1    4    4    0    0  0.12762851727E+02 -0.26431872492E+02 -0.27685037240E+03  0.27840765201E+03  0.17770000000E+01 0. -1.
        -16    1    4    4    0    0 -0.53501097292E+00  0.46183349498E+02 -0.16174236411E+03  0.16820755142E+03  0.00000000000E+00 0.  1.
<mgrwt>
<rscale>  2 0.19768466E+03</rscale>
<asrwt>0</asrwt>
<pdfrwt beam="1">  1       21 0.16213501E-01 0.19774671E+03</pdfrwt>
<pdfrwt beam="2">  1       21 0.32191504E+00 0.19774671E+03</pdfrwt>
<totfact> 0.86207334E+02</totfact>
</mgrwt>
</event>
<event>
12    2  0.4097182E-002  0.2423581E+03  0.7546771E-02  0.1118380E+00
         21   -1    0    0  503  502  0.00000000000E+00  0.00000000000E+00  0.10539394976E+03  0.10539394976E+03  0.00000000000E+00 0.  1.
         21   -1    0    0  501  503 -0.00000000000E+00 -0.00000000000E+00 -0.55554534808E+03  0.55554534808E+03  0.00000000000E+00 0. -1.
          6    2    1    2  501    0  0.11660055207E+03  0.12050157923E+03 -0.23308954899E+03  0.33625609849E+03  0.17498887560E+03 0.  0.
         24    2    3    3    0    0  0.17374177947E+01  0.18425556483E+02 -0.48120049697E+02  0.95738199566E+02  0.80670588946E+02 0.  0.
         -6    2    1    2    0  502 -0.11660055207E+03 -0.12050157923E+03 -0.21706184933E+03  0.32468319935E+03  0.17374410542E+03 0.  0.
        -24    2    5    5    0    0 -0.67092521103E+02 -0.76973630328E+02 -0.22290852860E+03  0.25833562122E+03  0.81380187498E+02 0.  0.
          5    1    3    3  501    0  0.11486313427E+03  0.10207602274E+03 -0.18496949929E+03  0.24051789892E+03  0.47000000000E+01 0. -1.
        -15    1    4    4    0    0  0.23075478808E+02  0.40594745211E+02 -0.11914475720E+02  0.48223682166E+02  0.17770000000E+01 0.  1.
         16    1    4    4    0    0 -0.21338061013E+02 -0.22169188729E+02 -0.36205573978E+02  0.47514517400E+02  0.00000000000E+00 0. -1.
         -5    1    5    5    0  502 -0.49508030965E+02 -0.43527948899E+02  0.58466792636E+01  0.66347578130E+02  0.47000000000E+01 0.  1.
         15    1    6    6    0    0 -0.18531947446E+02 -0.74232866309E+02 -0.98356972522E+02  0.12462424840E+03  0.17770000000E+01 0. -1.
        -16    1    6    6    0    0 -0.48560573658E+02 -0.27407640190E+01 -0.12455155607E+03  0.13371137282E+03  0.00000000000E+00 0.  1.
<mgrwt>
<rscale>  2 0.24213344E+03</rscale>
<asrwt>0</asrwt>
<pdfrwt beam="1">  1       21 0.16214454E-01 0.24235805E+03</pdfrwt>
<pdfrwt beam="2">  1       21 0.85468514E-01 0.24235805E+03</pdfrwt>
<totfact> 0.39292701E+04</totfact>
</mgrwt>
</event>
<event>
12    2  0.4097182E-002  0.1972556E+03  0.7546771E-02  0.1152181E+00
         21   -1    0    0  501  502  0.00000000000E+00  0.00000000000E+00  0.31545156607E+03  0.31545156607E+03  0.00000000000E+00 0.  1.
         21   -1    0    0  502  503 -0.00000000000E+00 -0.00000000000E+00 -0.13922202023E+03  0.13922202023E+03  0.00000000000E+00 0.  1.
         -6    2    1    2    0  503  0.35346558493E+01  0.95132269141E+02  0.10513922362E+02  0.19704701495E+03  0.17220435857E+03 0.  0.
        -24    2    3    3    0    0  0.44060900004E+01  0.13310052777E+03  0.22860515834E+02  0.15683661292E+03  0.79623839687E+02 0.  0.
          6    2    1    2  501    0 -0.35346558493E+01 -0.95132269141E+02  0.16571562347E+03  0.25762657135E+03  0.17276324835E+03 0.  0.
         24    2    5    5    0    0  0.62443087254E+02 -0.69389544973E+02  0.12352948761E+03  0.17505835415E+03  0.81681362332E+02 0.  0.
          5    1    5    5  501    0 -0.65977743103E+02 -0.25742724168E+02  0.42186135867E+02  0.82568217202E+02  0.47000000000E+01 0. -1.
        -15    1    6    6    0    0  0.51224420645E+02 -0.83817812060E+02  0.12210951018E+03  0.15672669554E+03  0.17770000000E+01 0.  1.
         16    1    6    6    0    0  0.11218666609E+02  0.14428267086E+02  0.14199774259E+01  0.18331658613E+02  0.00000000000E+00 0. -1.
         -5    1    3    3    0  503 -0.87143415105E+00 -0.37968258628E+02 -0.12346593472E+02  0.40210402026E+02  0.47000000000E+01 0.  1.
         15    1    4    4    0    0 -0.10223534389E+02 -0.78565562478E+01  0.52415593295E+01  0.14031315145E+02  0.17770000000E+01 0. -1.
        -16    1    4    4    0    0  0.14629624390E+02  0.14095708402E+03  0.17618956504E+02  0.14280529778E+03  0.00000000000E+00 0.  1.
<mgrwt>
<rscale>  2 0.19713319E+03</rscale>
<asrwt>0</asrwt>
<pdfrwt beam="1">  1       21 0.48531010E-01 0.19725563E+03</pdfrwt>
<pdfrwt beam="2">  1       21 0.21418772E-01 0.19725563E+03</pdfrwt>
<totfact> 0.82146071E+04</totfact>
</mgrwt>
</event>
<event>
12    2  0.4097182E-002  0.2466552E+03  0.7546771E-02  0.1115512E+00
         21   -1    0    0  503  502  0.00000000000E+00  0.00000000000E+00  0.94698001358E+03  0.94698001358E+03  0.00000000000E+00 0. -1.
         21   -1    0    0  501  503 -0.00000000000E+00 -0.00000000000E+00 -0.76622894776E+02  0.76622894776E+02  0.00000000000E+00 0. -1.
          6    2    1    2  501    0  0.70930789613E+02  0.16036633267E+03  0.22813352876E+03  0.33564222390E+03  0.17280699624E+03 0.  0.
         24    2    3    3    0    0  0.48973800432E+02  0.89148010265E+02  0.39703298968E+02  0.13295477900E+03  0.75860532864E+02 0.  0.
         -6    2    1    2    0  502 -0.70930789613E+02 -0.16036633267E+03  0.64222359004E+03  0.68796068445E+03  0.17346534578E+03 0.  0.
        -24    2    5    5    0    0 -0.53444673740E+02 -0.18060268391E+03  0.61979360921E+03  0.65274040336E+03  0.80325920993E+02 0.  0.
          5    1    3    3  501    0  0.21956989181E+02  0.71218322403E+02  0.18843022979E+03  0.20268744490E+03  0.47000000000E+01 0. -1.
        -15    1    4    4    0    0  0.83279818590E+01  0.15798339407E+02 -0.22328042234E+02  0.28646849894E+02  0.17770000000E+01 0.  1.
         16    1    4    4    0    0  0.40645818573E+02  0.73349670858E+02  0.62031341202E+02  0.10430792910E+03  0.00000000000E+00 0. -1.
         -5    1    5    5    0  502 -0.17486115874E+02  0.20236351244E+02  0.22429980830E+02  0.35220281090E+02  0.47000000000E+01 0.  1.
         15    1    6    6    0    0 -0.12782857033E+02 -0.15439681732E+03  0.43694756299E+03  0.46360339641E+03  0.17770000000E+01 0. -1.
        -16    1    6    6    0    0 -0.40661816707E+02 -0.26205866589E+02  0.18284604622E+03  0.18913700695E+03  0.00000000000E+00 0.  1.
<mgrwt>
<rscale>  2 0.24653943E+03</rscale>
<asrwt>0</asrwt>
<pdfrwt beam="1">  1       21 0.14568922E+00 0.24665515E+03</pdfrwt>
<pdfrwt beam="2">  1       21 0.11788138E-01 0.24665515E+03</pdfrwt>
<totfact> 0.18906497E+04</totfact>
</mgrwt>
</event>
<event>
12    2  0.4097182E-002  0.2397379E+03  0.7546771E-02  0.1121031E+00
         21   -1    0    0  501  502  0.00000000000E+00  0.00000000000E+00  0.15796928992E+04  0.15796928992E+04  0.00000000000E+00 0.  1.
         21   -1    0    0  502  503 -0.00000000000E+00 -0.00000000000E+00 -0.67919811150E+02  0.67919811150E+02  0.00000000000E+00 0.  1.
         -6    2    1    2    0  503 -0.11981168863E+03  0.10074139720E+03  0.18094667730E+03  0.29536524504E+03  0.17319139156E+03 0.  0.
        -24    2    3    3    0    0 -0.38627900288E+02  0.91775590369E+02  0.17176681752E+03  0.21303934992E+03  0.77246691477E+02 0.  0.
          6    2    1    2  501    0  0.11981168863E+03 -0.10074139720E+03  0.13308264108E+04  0.13522474653E+04  0.18157808799E+03 0.  0.
         24    2    5    5    0    0  0.12916560664E+03 -0.12653648921E+03  0.12693994722E+04  0.12848068149E+04  0.81598372818E+02 0.  0.
          5    1    5    5  501    0 -0.93539180058E+01  0.25795092001E+02  0.61426938549E+02  0.67440650448E+02  0.47000000000E+01 0. -1.
        -15    1    6    6    0    0  0.39890683661E+02 -0.42463747694E+02  0.69622476943E+03  0.69866052114E+03  0.17770000000E+01 0.  1.
         16    1    6    6    0    0  0.89274922975E+02 -0.84072741511E+02  0.57317470279E+03  0.58614629373E+03  0.00000000000E+00 0. -1.
         -5    1    3    3    0  503 -0.81183788342E+02  0.89658068351E+01  0.91798597736E+01  0.82325895119E+02  0.47000000000E+01 0.  1.
         15    1    4    4    0    0 -0.72032954335E+01  0.49931771164E+02  0.23257420196E+02  0.55579983446E+02  0.17770000000E+01 0. -1.
        -16    1    4    4    0    0 -0.31424604855E+02  0.41843819205E+02  0.14850939733E+03  0.15745936648E+03  0.00000000000E+00 0.  1.
<mgrwt>
<rscale>  2 0.23815025E+03</rscale>
<asrwt>0</asrwt>
<pdfrwt beam="1">  1       21 0.24302965E+00 0.23973792E+03</pdfrwt>
<pdfrwt beam="2">  1       21 0.10449203E-01 0.23973792E+03</pdfrwt>
<totfact> 0.52538402E+03</totfact>
</mgrwt>
</event>
<event>
12    2  0.4097182E-002  0.2300285E+03  0.7546771E-02  0.1126724E+00
         21   -1    0    0  501  502  0.00000000000E+00  0.00000000000E+00  0.59078837077E+03  0.59078837077E+03  0.00000000000E+00 0. -1.
         21   -1    0    0  502  503 -0.00000000000E+00 -0.00000000000E+00 -0.97223506694E+02  0.97223506694E+02  0.00000000000E+00 0.  1.
         -6    2    1    2    0  503 -0.11460188133E+03 -0.97087633753E+02  0.34507316022E+03  0.41471505956E+03  0.17422254415E+03 0.  0.
        -24    2    3    3    0    0 -0.18132769966E+02  0.40056164671E+01  0.10596233341E+03  0.13772731221E+03  0.85999733229E+02 0.  0.
          6    2    1    2  501    0  0.11460188133E+03  0.97087633753E+02  0.14849170386E+03  0.27329681791E+03  0.17344095459E+03 0.  0.
         24    2    5    5    0    0  0.26012371335E+02  0.51787060514E+02  0.14207980927E+03  0.17347975719E+03  0.80932137340E+02 0.  0.
          5    1    5    5  501    0  0.88589509998E+02  0.45300573239E+02  0.64118945907E+01  0.99817060714E+02  0.47000000000E+01 0. -1.
        -15    1    6    6    0    0  0.20194529884E+02  0.22316436740E+01 -0.24856354671E+01  0.20545933500E+02  0.17770000000E+01 0.  1.
         16    1    6    6    0    0  0.58178414515E+01  0.49555416840E+02  0.14456544474E+03  0.15293382369E+03  0.00000000000E+00 0. -1.
         -5    1    3    3    0  503 -0.96469111367E+02 -0.10109325022E+03  0.23911082680E+03  0.27698774735E+03  0.47000000000E+01 0.  1.
         15    1    4    4    0    0 -0.42259590861E+01  0.82037976182E+01  0.11829738724E+03  0.11867009135E+03  0.17770000000E+01 0. -1.
        -16    1    4    4    0    0 -0.13906810880E+02 -0.41981811510E+01 -0.12335053824E+02  0.19057220854E+02  0.00000000000E+00 0.  1.
<mgrwt>
<rscale>  2 0.22988047E+03</rscale>
<asrwt>0</asrwt>
<pdfrwt beam="1">  1       21 0.90890516E-01 0.23002847E+03</pdfrwt>
<pdfrwt beam="2">  1       21 0.14957463E-01 0.23002847E+03</pdfrwt>
<totfact> 0.39731181E+04</totfact>
</mgrwt>
</event>
<event>
12    2  0.4097182E-002  0.1973795E+03  0.7546771E-02  0.1152095E+00
         21   -1    0    0  503  502  0.00000000000E+00  0.00000000000E+00  0.91997926643E+02  0.91997926643E+02  0.00000000000E+00 0.  1.
         21   -1    0    0  501  503 -0.00000000000E+00 -0.00000000000E+00 -0.10683992833E+04  0.10683992833E+04  0.00000000000E+00 0.  1.
          6    2    1    2  501    0  0.40904756286E+02 -0.79447509719E+02 -0.93913279742E+03  0.95953001132E+03  0.17533489544E+03 0.  0.
         24    2    3    3    0    0  0.92726095775E-01 -0.93532766640E+02 -0.86211698549E+03  0.87111314892E+03  0.82728680122E+02 0.  0.
         -6    2    1    2    0  502 -0.40904756286E+02  0.79447509719E+02 -0.37268559265E+02  0.20086719864E+03  0.17599312513E+03 0.  0.
        -24    2    5    5    0    0  0.20283848313E+02 -0.32662439261E+01  0.18414545572E+02  0.83784712597E+02  0.79111817856E+02 0.  0.
          5    1    3    3  501    0  0.40812030191E+02  0.14085256921E+02 -0.77015811923E+02  0.88416862402E+02  0.47000000000E+01 0. -1.
        -15    1    4    4    0    0  0.18863493421E+02 -0.65969309690E+01 -0.46266061457E+02  0.50428732425E+02  0.17770000000E+01 0.  1.
         16    1    4    4    0    0 -0.18770767325E+02 -0.86935835671E+02 -0.81585092404E+03  0.82068441650E+03  0.00000000000E+00 0. -1.
         -5    1    5    5    0  502 -0.61188604600E+02  0.82713753645E+02 -0.55683104836E+02  0.11708248605E+03  0.47000000000E+01 0.  1.
         15    1    6    6    0    0 -0.14312215151E+02  0.20101268590E+01  0.40067591886E+02  0.42631558276E+02  0.17770000000E+01 0. -1.
        -16    1    6    6    0    0  0.34596063464E+02 -0.52763707851E+01 -0.21653046314E+02  0.41153154321E+02  0.00000000000E+00 0.  1.
<mgrwt>
<rscale>  2 0.19723271E+03</rscale>
<asrwt>0</asrwt>
<pdfrwt beam="1">  1       21 0.14153526E-01 0.19737955E+03</pdfrwt>
<pdfrwt beam="2">  1       21 0.16436914E+00 0.19737955E+03</pdfrwt>
<totfact> 0.10162751E+04</totfact>
</mgrwt>
</event>
<event>
12    2  0.4097182E-002  0.2029966E+03  0.7546771E-02  0.1149186E+00
         21   -1    0    0  501  502  0.00000000000E+00  0.00000000000E+00  0.96454732306E+02  0.96454732306E+02  0.00000000000E+00 0.  1.
         21   -1    0    0  502  503 -0.00000000000E+00 -0.00000000000E+00 -0.44424166432E+03  0.44424166432E+03  0.00000000000E+00 0.  1.
         -6    2    1    2    0  503  0.69861846908E+02 -0.53435518371E+02 -0.25470467918E+03  0.32570245080E+03  0.18295239977E+03 0.  0.
        -24    2    3    3    0    0 -0.36180902002E+02 -0.22091533990E+02 -0.13319811836E+03  0.16134477901E+03  0.80581048862E+02 0.  0.
          6    2    1    2  501    0 -0.69861846908E+02  0.53435518371E+02 -0.93082252835E+02  0.21499394583E+03  0.17269064443E+03 0.  0.
         24    2    5    5    0    0 -0.97863766073E+02  0.62277303410E+02 -0.11198672415E+03  0.17975542039E+03  0.79468267518E+02 0.  0.
          5    1    5    5  501    0  0.28001919165E+02 -0.88417850390E+01  0.18904471316E+02  0.35238525442E+02  0.47000000000E+01 0. -1.
        -15    1    6    6    0    0 -0.44393446077E+02  0.44317538622E+02 -0.10580076420E+03  0.12301130728E+03  0.17770000000E+01 0.  1.
         16    1    6    6    0    0 -0.53470319996E+02  0.17959764789E+02 -0.61859599483E+01  0.56744113106E+02  0.00000000000E+00 0. -1.
         -5    1    3    3    0  503  0.10604274891E+03 -0.31343984381E+02 -0.12150656082E+03  0.16435767179E+03  0.47000000000E+01 0.  1.
         15    1    4    4    0    0 -0.71410113091E+01  0.30210601169E+02 -0.41458511177E+02  0.51823164160E+02  0.17770000000E+01 0. -1.
        -16    1    4    4    0    0 -0.29039890693E+02 -0.52302135159E+02 -0.91739607180E+02  0.10952161485E+03  0.00000000000E+00 0.  1.
<mgrwt>
<rscale>  2 0.20065708E+03</rscale>
<asrwt>0</asrwt>
<pdfrwt beam="1">  1       21 0.14839190E-01 0.20299658E+03</pdfrwt>
<pdfrwt beam="2">  1       21 0.68344871E-01 0.20299658E+03</pdfrwt>
<totfact> 0.77777263E+04</totfact>
</mgrwt>
</event>
<event>
12    2  0.4097182E-002  0.1851723E+03  0.7546771E-02  0.1163437E+00
         21   -1    0    0  501  502  0.00000000000E+00  0.00000000000E+00  0.16930450949E+03  0.16930450949E+03  0.00000000000E+00 0.  1.
         21   -1    0    0  502  503 -0.00000000000E+00 -0.00000000000E+00 -0.38386543806E+03  0.38386543806E+03  0.00000000000E+00 0.  1.
         -6    2    1    2    0  503  0.23552833521E+02 -0.53972715151E+02 -0.29835357752E+03  0.34992138879E+03  0.17309630604E+03 0.  0.
        -24    2    3    3    0    0  0.78885970958E+02 -0.22744215313E+02 -0.17354140904E+03  0.20978879907E+03  0.84583827170E+02 0.  0.
          6    2    1    2  501    0 -0.23552833521E+02  0.53972715151E+02  0.83792648945E+02  0.20324855876E+03  0.17555904612E+03 0.  0.
         24    2    5    5    0    0 -0.71780912508E+01 -0.24637318090E+02 -0.41101782375E+01  0.84098793601E+02  0.79982442344E+02 0.  0.
          5    1    5    5  501    0 -0.16374742270E+02  0.78610033241E+02  0.87902827182E+02  0.11914976516E+03  0.47000000000E+01 0. -1.
        -15    1    6    6    0    0  0.35646368329E+02 -0.86515507303E+01 -0.98675544782E+01  0.38026822973E+02  0.17770000000E+01 0.  1.
         16    1    6    6    0    0 -0.42824459580E+02 -0.15985767360E+02  0.57573762407E+01  0.46071970628E+02  0.00000000000E+00 0. -1.
         -5    1    3    3    0  503 -0.55333137437E+02 -0.31228499838E+02 -0.12481216848E+03  0.14013258972E+03  0.47000000000E+01 0.  1.
         15    1    4    4    0    0  0.21240783568E+02 -0.21722436676E+02 -0.39787031424E+01  0.30692392370E+02  0.17770000000E+01 0. -1.
        -16    1    4    4    0    0  0.57645187391E+02 -0.10217786362E+01 -0.16956270590E+03  0.17909640670E+03  0.00000000000E+00 0.  1.
<mgrwt>
<rscale>  2 0.18458619E+03</rscale>
<asrwt>0</asrwt>
<pdfrwt beam="1">  1       21 0.26046848E-01 0.18517227E+03</pdfrwt>
<pdfrwt beam="2">  1       21 0.59056220E-01 0.18517227E+03</pdfrwt>
<totfact> 0.37683706E+04</totfact>
</mgrwt>
</event>
<event>
12    2  0.4097182E-002  0.2141354E+03  0.7546771E-02  0.1138410E+00
         21   -1    0    0  501  502  0.00000000000E+00  0.00000000000E+00  0.31407858161E+03  0.31407858161E+03  0.00000000000E+00 0. -1.
         21   -1    0    0  502  503 -0.00000000000E+00 -0.00000000000E+00 -0.17089644903E+03  0.17089644903E+03  0.00000000000E+00 0. -1.
         -6    2    1    2    0  503 -0.38556301890E+01  0.12596963374E+03 -0.21420011774E+02  0.21520402457E+03  0.17312059605E+03 0.  0.
        -24    2    3    3    0    0 -0.37270525387E+02  0.14534615132E+03 -0.35959107334E+02  0.17366512768E+03  0.79698954868E+02 0.  0.
          6    2    1    2  501    0  0.38556301890E+01 -0.12596963374E+03  0.16460214435E+03  0.26977100608E+03  0.17262478178E+03 0.  0.
         24    2    5    5    0    0  0.10721636127E+02 -0.56759833788E+02  0.17217657851E+03  0.19965253134E+03  0.82944118946E+02 0.  0.
          5    1    5    5  501    0 -0.68660059378E+01 -0.69209799952E+02 -0.75744341596E+01  0.70118474739E+02  0.47000000000E+01 0. -1.
        -15    1    6    6    0    0 -0.21235354101E+02 -0.41967997903E+02  0.15188356929E+03  0.15900952632E+03  0.17770000000E+01 0.  1.
         16    1    6    6    0    0  0.31956990228E+02 -0.14791835885E+02  0.20293009222E+02  0.40643005014E+02  0.00000000000E+00 0. -1.
         -5    1    3    3    0  503  0.33414895198E+02 -0.19376517578E+02  0.14539095560E+02  0.41538896883E+02  0.47000000000E+01 0.  1.
         15    1    4    4    0    0 -0.94269137460E+01  0.12000586480E+03 -0.53967441411E+02  0.13193148506E+03  0.17770000000E+01 0. -1.
        -16    1    4    4    0    0 -0.27843611641E+02  0.25340286515E+02  0.18008334078E+02  0.41733642618E+02  0.00000000000E+00 0.  1.
<mgrwt>
<rscale>  2 0.21403513E+03</rscale>
<asrwt>0</asrwt>
<pdfrwt beam="1">  1       21 0.48319782E-01 0.21413537E+03</pdfrwt>
<pdfrwt beam="2">  1       21 0.26291761E-01 0.21413537E+03</pdfrwt>
<totfact> 0.55709619E+04</totfact>
</mgrwt>
</event>
<event>
12    2  0.4097182E-002  0.2517046E+03  0.7546771E-02  0.1112332E+00
         21   -1    0    0  501  502  0.00000000000E+00  0.00000000000E+00  0.12306165007E+04  0.12306165007E+04  0.00000000000E+00 0.  1.
         21   -1    0    0  502  503 -0.00000000000E+00 -0.00000000000E+00 -0.55402972870E+02  0.55402972870E+02  0.00000000000E+00 0. -1.
         -6    2    1    2    0  503  0.17923099744E+03  0.33338955912E+02  0.76078712040E+03  0.80114374332E+03  0.17262392210E+03 0.  0.
        -24    2    3    3    0    0  0.14529429298E+03 -0.34831159017E+02  0.53736579488E+03  0.56505468560E+03  0.90560250696E+02 0.  0.
          6    2    1    2  501    0 -0.17923099744E+03 -0.33338955912E+02  0.41442640740E+03  0.48487573022E+03  0.17355111690E+03 0.  0.
         24    2    5    5    0    0 -0.49849692522E+02 -0.63926965481E+02  0.14821890480E+03  0.18727923690E+03  0.80827099876E+02 0.  0.
          5    1    5    5  501    0 -0.12938130492E+03  0.30588009568E+02  0.26620750261E+03  0.29759649332E+03  0.47000000000E+01 0. -1.
        -15    1    6    6    0    0  0.33628101111E+01  0.19416925239E+01  0.75620542564E+02  0.75741024870E+02  0.17770000000E+01 0.  1.
         16    1    6    6    0    0 -0.53212502633E+02 -0.65868658004E+02  0.72598362233E+02  0.11153821203E+03  0.00000000000E+00 0. -1.
         -5    1    3    3    0  503  0.33936704460E+02  0.68170114929E+02  0.22342132552E+03  0.23608905772E+03  0.47000000000E+01 0.  1.
         15    1    4    4    0    0 -0.48499185353E+01 -0.76692243499E+01  0.36229958271E+01  0.99308881623E+01  0.17770000000E+01 0. -1.
        -16    1    4    4    0    0  0.15014421151E+03 -0.27161934667E+02  0.53374279905E+03  0.55512379744E+03  0.00000000000E+00 0.  1.
<mgrwt>
<rscale>  2 0.25154489E+03</rscale>
<asrwt>0</asrwt>
<pdfrwt beam="1">  1       21 0.18932559E+00 0.25170464E+03</pdfrwt>
<pdfrwt beam="2">  1       21 0.85235352E-02 0.25170464E+03</pdfrwt>
<totfact> 0.16257603E+04</totfact>
</mgrwt>
</event>
<event>
12    2  0.4097182E-002  0.1900868E+03  0.7546771E-02  0.1158669E+00
         21   -1    0    0  503  502  0.00000000000E+00  0.00000000000E+00  0.12651460645E+03  0.12651460645E+03  0.00000000000E+00 0.  1.
         21   -1    0    0  501  503 -0.00000000000E+00 -0.00000000000E+00 -0.32692999738E+03  0.32692999738E+03  0.00000000000E+00 0.  1.
          6    2    1    2  501    0 -0.73458052879E+02 -0.28149860094E+02 -0.18293543545E+03  0.26381499091E+03  0.17304472176E+03 0.  0.
         24    2    3    3    0    0 -0.11090881026E+03  0.87524440591E+01 -0.13478361001E+03  0.19236551525E+03  0.80377238434E+02 0.  0.
         -6    2    1    2    0  502  0.73458052879E+02  0.28149860094E+02 -0.17479955477E+02  0.18962961291E+03  0.17165471474E+03 0.  0.
        -24    2    5    5    0    0  0.59507985596E+02  0.81815618594E+02 -0.27920679680E+02  0.13301056369E+03  0.81714441219E+02 0.  0.
          5    1    3    3  501    0  0.37450757377E+02 -0.36902304154E+02 -0.48151825438E+02  0.71449475666E+02  0.47000000000E+01 0. -1.
        -15    1    4    4    0    0 -0.52846435674E+02 -0.35221109263E+02 -0.73723843906E+02  0.97322326269E+02  0.17770000000E+01 0.  1.
         16    1    4    4    0    0 -0.58062374582E+02  0.43973553322E+02 -0.61059766107E+02  0.95043188977E+02  0.00000000000E+00 0. -1.
         -5    1    5    5    0  502  0.13950067284E+02 -0.53665758500E+02  0.10440724203E+02  0.56619049219E+02  0.47000000000E+01 0.  1.
         15    1    6    6    0    0  0.17297205263E+02 -0.11107192186E+02 -0.22903164915E+02  0.30826542464E+02  0.17770000000E+01 0. -1.
        -16    1    6    6    0    0  0.42210780332E+02  0.92922810780E+02 -0.50175147657E+01  0.10218402123E+03  0.00000000000E+00 0.  1.
<mgrwt>
<rscale>  2 0.18976984E+03</rscale>
<asrwt>0</asrwt>
<pdfrwt beam="1">  1       21 0.19463786E-01 0.19008676E+03</pdfrwt>
<pdfrwt beam="2">  1       21 0.50296923E-01 0.19008676E+03</pdfrwt>
<totfact> 0.91488646E+04</totfact>
</mgrwt>
</event>
<event>
12    2  0.4097182E-002  0.3270539E+03  0.7546771E-02  0.1072450E+00
         21   -1    0    0  503  502  0.00000000000E+00  0.00000000000E+00  0.82588100647E+03  0.82588100647E+03  0.00000000000E+00 0.  1.
         21   -1    0    0  501  503 -0.00000000000E+00 -0.00000000000E+00 -0.31087467773E+03  0.31087467773E+03  0.00000000000E+00 0.  1.
          6    2    1    2  501    0  0.24315670295E+03 -0.13349935378E+03  0.69163872559E+03  0.76506755260E+03  0.17325407257E+03 0.  0.
         24    2    3    3    0    0  0.79806461953E+02 -0.73822288162E+02  0.18239575619E+03  0.22692710135E+03  0.80055579764E+02 0.  0.
         -6    2    1    2    0  502 -0.24315670295E+03  0.13349935378E+03 -0.17663239685E+03  0.37168813161E+03  0.17322183440E+03 0.  0.
        -24    2    5    5    0    0 -0.39997600868E+02  0.42574620351E+02 -0.18431690075E+02  0.98575551286E+02  0.77233449613E+02 0.  0.
          5    1    3    3  501    0  0.16335024099E+03 -0.59677065617E+02  0.50924296940E+03  0.53814045125E+03  0.47000000000E+01 0. -1.
        -15    1    4    4    0    0  0.59288784748E+02 -0.26232131386E+01  0.98353615036E+02  0.11488530177E+03  0.17770000000E+01 0.  1.
         16    1    4    4    0    0  0.20517677205E+02 -0.71199075024E+02  0.84042141151E+02  0.11204179957E+03  0.00000000000E+00 0. -1.
         -5    1    5    5    0  502 -0.20315910208E+03  0.90924733429E+02 -0.15820070677E+03  0.27311258032E+03  0.47000000000E+01 0.  1.
         15    1    6    6    0    0 -0.23618863544E+02  0.25561048239E+02 -0.48887411276E+02  0.60036277470E+02  0.17770000000E+01 0. -1.
        -16    1    6    6    0    0 -0.16378737324E+02  0.17013572112E+02  0.30455721202E+02  0.38539273816E+02  0.00000000000E+00 0.  1.
<mgrwt>
<rscale>  2 0.32704960E+03</rscale>
<asrwt>0</asrwt>
<pdfrwt beam="1">  1       21 0.12705862E+00 0.32705387E+03</pdfrwt>
<pdfrwt beam="2">  1       21 0.47826874E-01 0.32705387E+03</pdfrwt>
<totfact> 0.17354064E+03</totfact>
</mgrwt>
</event>
<event>
12    2  0.4097182E-002  0.1753693E+03  0.7546771E-02  0.1172516E+00
         21   -1    0    0  501  502  0.00000000000E+00  0.00000000000E+00  0.20775407179E+04  0.20775407179E+04  0.00000000000E+00 0. -1.
         21   -1    0    0  502  503 -0.00000000000E+00 -0.00000000000E+00 -0.14759695258E+02  0.14759695258E+02  0.00000000000E+00 0. -1.
         -6    2    1    2    0  503  0.16957704480E+02  0.95601923765E+01  0.10045491780E+04  0.10196359680E+04  0.17366489308E+03 0.  0.
        -24    2    3    3    0    0 -0.18826657227E+02  0.67188857860E+02  0.57352864799E+03  0.58328476660E+03  0.80107572901E+02 0.  0.
          6    2    1    2  501    0 -0.16957704480E+02 -0.95601923765E+01  0.10582318446E+04  0.10726644452E+04  0.17428543825E+03 0.  0.
         24    2    5    5    0    0 -0.27660671743E+02 -0.33371035245E+02  0.10292730882E+04  0.10333934722E+04  0.81364854388E+02 0.  0.
          5    1    5    5  501    0  0.10702967262E+02  0.23810842869E+02  0.28958756413E+02  0.39270972987E+02  0.47000000000E+01 0. -1.
        -15    1    6    6    0    0 -0.10581061168E+02 -0.99486229471E+01  0.27071049260E+02  0.30772282837E+02  0.17770000000E+01 0.  1.
         16    1    6    6    0    0 -0.17079610575E+02 -0.23422412298E+02  0.10022020389E+04  0.10026211893E+04  0.00000000000E+00 0. -1.
         -5    1    3    3    0  503  0.35784361708E+02 -0.57628665484E+02  0.43102053004E+03  0.43635120138E+03  0.47000000000E+01 0.  1.
         15    1    4    4    0    0 -0.16603873383E+02 -0.48926619397E+01  0.29693360032E+03  0.29744301552E+03  0.17770000000E+01 0. -1.
        -16    1    4    4    0    0 -0.22227838444E+01  0.72081519800E+02  0.27659504767E+03  0.28584175108E+03  0.00000000000E+00 0.  1.
<mgrwt>
<rscale>  2 0.17521488E+03</rscale>
<asrwt>0</asrwt>
<pdfrwt beam="1">  1       21 0.31962142E+00 0.17536925E+03</pdfrwt>
<pdfrwt beam="2">  1       21 0.22707240E-02 0.17536925E+03</pdfrwt>
<totfact> 0.26804731E+04</totfact>
</mgrwt>
</event>
<event>
12    2  0.4097182E-002  0.1920489E+03  0.7546771E-02  0.1157062E+00
         21   -1    0    0  503  502  0.00000000000E+00  0.00000000000E+00  0.24453891119E+03  0.24453891119E+03  0.00000000000E+00 0.  1.
         21   -1    0    0  501  503 -0.00000000000E+00 -0.00000000000E+00 -0.24589074253E+03  0.24589074253E+03  0.00000000000E+00 0. -1.
          6    2    1    2  501    0 -0.18071608011E+02 -0.77622339389E+02 -0.15436141530E+03  0.24487979937E+03  0.17258869898E+03 0.  0.
         24    2    3    3    0    0  0.92836745072E+01 -0.16284336900E+02 -0.15745848179E+03  0.17748288659E+03  0.79722238453E+02 0.  0.
         -6    2    1    2    0  502  0.18071608011E+02  0.77622339389E+02  0.15300958396E+03  0.24554985435E+03  0.17473118668E+03 0.  0.
        -24    2    5    5    0    0  0.32214676668E+02  0.86215660033E+02  0.17667112104E+03  0.21629528397E+03  0.84261731720E+02 0.  0.
          5    1    3    3  501    0 -0.27355282519E+02 -0.61338002489E+02  0.30970664903E+01  0.67396912777E+02  0.47000000000E+01 0. -1.
        -15    1    4    4    0    0 -0.25184042857E+02 -0.32844649485E+02 -0.61157216165E+02  0.73867244652E+02  0.17770000000E+01 0.  1.
         16    1    4    4    0    0  0.34467717364E+02  0.16560312585E+02 -0.96301265623E+02  0.10361564194E+03  0.00000000000E+00 0. -1.
         -5    1    5    5    0  502 -0.14143068657E+02 -0.85933206443E+01 -0.23661537082E+02  0.29254570375E+02  0.47000000000E+01 0.  1.
         15    1    6    6    0    0  0.40837805376E+02  0.12941400092E+02  0.30687053259E+02  0.52726266234E+02  0.17770000000E+01 0. -1.
        -16    1    6    6    0    0 -0.86231287082E+01  0.73274259942E+02  0.14598406778E+03  0.16356901774E+03  0.00000000000E+00 0.  1.
<mgrwt>
<rscale>  2 0.19156028E+03</rscale>
<asrwt>0</asrwt>
<pdfrwt beam="1">  1       21 0.37621371E-01 0.19204895E+03</pdfrwt>
<pdfrwt beam="2">  1       21 0.37829345E-01 0.19204895E+03</pdfrwt>
<totfact> 0.45936247E+04</totfact>
</mgrwt>
</event>
<event>
12    2  0.4097182E-002  0.1768064E+03  0.7546771E-02  0.1171849E+00
         21   -1    0    0  503  502  0.00000000000E+00  0.00000000000E+00  0.98062004668E+03  0.98062004668E+03  0.00000000000E+00 0.  1.
         21   -1    0    0  501  503 -0.00000000000E+00 -0.00000000000E+00 -0.68234536690E+02  0.68234536690E+02  0.00000000000E+00 0.  1.
          6    2    1    2  501    0  0.83879200560E+01  0.87145064561E+01  0.67767237510E+02  0.18592901014E+03  0.17271623695E+03 0.  0.
         24    2    3    3    0    0 -0.57990539633E+01  0.20275812955E+01 -0.30423196397E+02  0.86382857470E+02  0.80614434643E+02 0.  0.
         -6    2    1    2    0  502 -0.83879200560E+01 -0.87145064561E+01  0.84461827248E+03  0.86292557323E+03  0.17639223029E+03 0.  0.
        -24    2    5    5    0    0  0.27554937142E+02 -0.12073576152E+02  0.80344825058E+03  0.80796892636E+03  0.79872703684E+02 0.  0.
          5    1    3    3  501    0  0.14186974019E+02  0.66869251606E+01  0.98190433907E+02  0.99546152667E+02  0.47000000000E+01 0. -1.
        -15    1    4    4    0    0 -0.37424957430E+02  0.15642968769E+01  0.61817311465E+01  0.38005867867E+02  0.17770000000E+01 0.  1.
         16    1    4    4    0    0  0.31625903467E+02  0.46328441856E+00 -0.36604927544E+02  0.48376989603E+02  0.00000000000E+00 0. -1.
         -5    1    5    5    0  502 -0.35942857198E+02  0.33590696963E+01  0.41170021900E+02  0.54956646878E+02  0.47000000000E+01 0.  1.
         15    1    6    6    0    0  0.32370894388E+02  0.40557811235E+01  0.12159727916E+03  0.12591020686E+03  0.17770000000E+01 0. -1.
        -16    1    6    6    0    0 -0.48159572451E+01 -0.16129357276E+02  0.68185097142E+03  0.68205871949E+03  0.00000000000E+00 0.  1.
<mgrwt>
<rscale>  2 0.17588243E+03</rscale>
<asrwt>0</asrwt>
<pdfrwt beam="1">  1       21 0.15086461E+00 0.17680644E+03</pdfrwt>
<pdfrwt beam="2">  1       21 0.10497622E-01 0.17680644E+03</pdfrwt>
<totfact> 0.22157007E+04</totfact>
</mgrwt>
</event>
<event>
12    2  0.4097182E-002  0.2093662E+03  0.7546771E-02  0.1142437E+00
         21   -1    0    0  501  502  0.00000000000E+00  0.00000000000E+00  0.82722716598E+03  0.82722716598E+03  0.00000000000E+00 0.  1.
         21   -1    0    0  502  503 -0.00000000000E+00 -0.00000000000E+00 -0.57635356862E+02  0.57635356862E+02  0.00000000000E+00 0.  1.
         -6    2    1    2    0  503  0.10006720761E+03 -0.61037119242E+02  0.51500821957E+03  0.55524608074E+03  0.17124768024E+03 0.  0.
        -24    2    3    3    0    0  0.77625443327E+02 -0.73904086599E+02  0.21278661126E+03  0.25188296142E+03  0.81727356833E+02 0.  0.
          6    2    1    2  501    0 -0.10006720761E+03  0.61037119242E+02  0.25458358955E+03  0.32961644211E+03  0.17347973620E+03 0.  0.
         24    2    5    5    0    0 -0.64086226655E+02 -0.27266830851E+02  0.17390591154E+03  0.20462365703E+03  0.82322842726E+02 0.  0.
          5    1    5    5  501    0 -0.35980980958E+02  0.88303950094E+02  0.80677678011E+02  0.12499278508E+03  0.47000000000E+01 0. -1.
        -15    1    6    6    0    0 -0.69401367464E+02 -0.41079817140E+02  0.17163969443E+03  0.18965084660E+03  0.17770000000E+01 0.  1.
         16    1    6    6    0    0  0.53151408084E+01  0.13812986288E+02  0.22662171046E+01  0.14972810424E+02  0.00000000000E+00 0. -1.
         -5    1    3    3    0  503  0.22441764286E+02  0.12866967357E+02  0.30222160831E+03  0.30336311932E+03  0.47000000000E+01 0.  1.
         15    1    4    4    0    0  0.23738559307E+00  0.14995668894E+02  0.39708877680E+02  0.42483869093E+02  0.17770000000E+01 0. -1.
        -16    1    4    4    0    0  0.77388057734E+02 -0.88899755493E+02  0.17307773358E+03  0.20939909233E+03  0.00000000000E+00 0.  1.
<mgrwt>
<rscale>  2 0.20890321E+03</rscale>
<asrwt>0</asrwt>
<pdfrwt beam="1">  1       21 0.12726571E+00 0.20936617E+03</pdfrwt>
<pdfrwt beam="2">  1       21 0.88669786E-02 0.20936617E+03</pdfrwt>
<totfact> 0.45308166E+04</totfact>
</mgrwt>
</event>
<event>
12    2  0.4097182E-002  0.1970338E+03  0.7546771E-02  0.1152568E+00
         21   -1    0    0  503  502  0.00000000000E+00  0.00000000000E+00  0.82159211374E+03  0.82159211374E+03  0.00000000000E+00 0. -1.
         21   -1    0    0  501  503 -0.00000000000E+00 -0.00000000000E+00 -0.51276593383E+02  0.51276593383E+02  0.00000000000E+00 0.  1.
          6    2    1    2  501    0  0.38025152818E+02  0.80179133191E+02  0.51365236718E+03  0.55014639316E+03  0.17591956671E+03 0.  0.
         24    2    3    3    0    0 -0.28382438089E+02 -0.29170109891E+01  0.14611697010E+03  0.16749864991E+03  0.76756478723E+02 0.  0.
         -6    2    1    2    0  502 -0.38025152818E+02 -0.80179133191E+02  0.25666315318E+03  0.32272231396E+03  0.17435341145E+03 0.  0.
        -24    2    5    5    0    0 -0.13896416733E+02 -0.74860944047E+02  0.27139628181E+03  0.29357382996E+03  0.82051084789E+02 0.  0.
          5    1    3    3  501    0  0.66407590907E+02  0.83096144180E+02  0.36753539707E+03  0.38264774324E+03  0.47000000000E+01 0. -1.
        -15    1    4    4    0    0  0.25952154752E+02 -0.38133637525E+01  0.62137910388E+02  0.67470984251E+02  0.17770000000E+01 0.  1.
         16    1    4    4    0    0 -0.54334592841E+02  0.89635276338E+00  0.83979059716E+02  0.10002766566E+03  0.00000000000E+00 0. -1.
         -5    1    5    5    0  502 -0.24128736085E+02 -0.53181891435E+01 -0.14733128627E+02  0.29148484008E+02  0.47000000000E+01 0.  1.
         15    1    6    6    0    0 -0.29215831201E+01  0.11988171442E+02  0.10329735088E+03  0.10404687564E+03  0.17770000000E+01 0. -1.
        -16    1    6    6    0    0 -0.10974833613E+02 -0.86849115489E+02  0.16809893093E+03  0.18952695432E+03  0.00000000000E+00 0.  1.
<mgrwt>
<rscale>  2 0.19668356E+03</rscale>
<asrwt>0</asrwt>
<pdfrwt beam="1">  1       21 0.12639878E+00 0.19703375E+03</pdfrwt>
<pdfrwt beam="2">  1       21 0.78887073E-02 0.19703375E+03</pdfrwt>
<totfact> 0.56913511E+04</totfact>
</mgrwt>
</event>
<event>
12    2  0.4097182E-002  0.1871837E+03  0.7546771E-02  0.1161316E+00
         21   -1    0    0  503  502  0.00000000000E+00  0.00000000000E+00  0.13798834726E+03  0.13798834726E+03  0.00000000000E+00 0.  1.
         21   -1    0    0  501  503 -0.00000000000E+00 -0.00000000000E+00 -0.28106133949E+03  0.28106133949E+03  0.00000000000E+00 0.  1.
          6    2    1    2  501    0  0.18238718241E+02  0.65242222674E+02 -0.13843880530E+03  0.23180860985E+03  0.17314944506E+03 0.  0.
         24    2    3    3    0    0  0.37516743475E+02 -0.11674952677E+01 -0.12818239207E+02  0.88335582700E+02  0.78930341622E+02 0.  0.
         -6    2    1    2    0  502 -0.18238718241E+02 -0.65242222674E+02 -0.46341869237E+01  0.18724107690E+03  0.17449511950E+03 0.  0.
        -24    2    5    5    0    0  0.49343288193E+01 -0.97562893613E+02  0.34773621998E+02  0.13105672602E+03  0.80148579753E+02 0.  0.
          5    1    3    3  501    0 -0.19278025234E+02  0.66409717941E+02 -0.12562056610E+03  0.14347302715E+03  0.47000000000E+01 0. -1.
        -15    1    4    4    0    0  0.24280033697E+01  0.19515632049E+02  0.25609524512E+02  0.32338221493E+02  0.17770000000E+01 0.  1.
         16    1    4    4    0    0  0.35088740105E+02 -0.20683127317E+02 -0.38427763718E+02  0.55997361207E+02  0.00000000000E+00 0. -1.
         -5    1    5    5    0  502 -0.23173047060E+02  0.32320670940E+02 -0.39407808922E+02  0.56184350882E+02  0.47000000000E+01 0.  1.
         15    1    6    6    0    0  0.41394675148E+02 -0.66882295697E+02  0.23080109706E+02  0.81991522740E+02  0.17770000000E+01 0. -1.
        -16    1    6    6    0    0 -0.36460346328E+02 -0.30680597917E+02  0.11693512292E+02  0.49065203277E+02  0.00000000000E+00 0.  1.
<mgrwt>
<rscale>  2 0.18686948E+03</rscale>
<asrwt>0</asrwt>
<pdfrwt beam="1">  1       21 0.21228977E-01 0.18718372E+03</pdfrwt>
<pdfrwt beam="2">  1       21 0.43240206E-01 0.18718372E+03</pdfrwt>
<totfact> 0.10636288E+05</totfact>
</mgrwt>
</event>
<event>
12    2  0.4097182E-002  0.2269333E+03  0.7546771E-02  0.1129047E+00
         21   -1    0    0  501  502  0.00000000000E+00  0.00000000000E+00  0.54472666693E+03  0.54472666693E+03  0.00000000000E+00 0.  1.
         21   -1    0    0  502  503 -0.00000000000E+00 -0.00000000000E+00 -0.95835130295E+02  0.95835130295E+02  0.00000000000E+00 0.  1.
         -6    2    1    2    0  503  0.13358102946E+03  0.62350745405E+02  0.26930571490E+03  0.35217080404E+03  0.17253173694E+03 0.  0.
        -24    2    3    3    0    0  0.56176962763E+02  0.41410271615E+02  0.24691810946E+03  0.26878502671E+03  0.80038591063E+02 0.  0.
          6    2    1    2  501    0 -0.13358102946E+03 -0.62350745405E+02  0.17958582173E+03  0.28839099319E+03  0.17084141975E+03 0.  0.
         24    2    5    5    0    0 -0.16016377943E+03 -0.30971490642E+02  0.12938563554E+03  0.22332603396E+03  0.80760171410E+02 0.  0.
          5    1    5    5  501    0  0.26582749975E+02 -0.31379254763E+02  0.50200186192E+02  0.65064959229E+02  0.47000000000E+01 0. -1.
        -15    1    6    6    0    0 -0.76271039764E+02  0.21124895821E+02  0.81351967691E+02  0.11351137875E+03  0.17770000000E+01 0.  1.
         16    1    6    6    0    0 -0.83892739669E+02 -0.52096386463E+02  0.48033667848E+02  0.10981465521E+03  0.00000000000E+00 0. -1.
         -5    1    3    3    0  503  0.77404066696E+02  0.20940473790E+02  0.22387605440E+02  0.83385777330E+02  0.47000000000E+01 0.  1.
         15    1    4    4    0    0  0.22024781677E+02  0.59633022620E+02  0.11630435613E+03  0.13255583495E+03  0.17770000000E+01 0. -1.
        -16    1    4    4    0    0  0.34152181086E+02 -0.18222751005E+02  0.13061375333E+03  0.13622919176E+03  0.00000000000E+00 0.  1.
<mgrwt>
<rscale>  2 0.22661198E+03</rscale>
<asrwt>0</asrwt>
<pdfrwt beam="1">  1       21 0.83804101E-01 0.22693327E+03</pdfrwt>
<pdfrwt beam="2">  1       21 0.14743866E-01 0.22693327E+03</pdfrwt>
<totfact> 0.49276248E+04</totfact>
</mgrwt>
</event>
<event>
12    2  0.4097182E-002  0.1878292E+03  0.7546771E-02  0.1164413E+00
         21   -1    0    0  501  502  0.00000000000E+00  0.00000000000E+00  0.90274022740E+03  0.90274022740E+03  0.00000000000E+00 0. -1.
         21   -1    0    0  502  503 -0.00000000000E+00 -0.00000000000E+00 -0.44975274012E+02  0.44975274012E+02  0.00000000000E+00 0. -1.
         -6    2    1    2    0  503 -0.29141863106E+02  0.17044548506E+02  0.22972137561E+03  0.29673510962E+03  0.18477026290E+03 0.  0.
        -24    2    3    3    0    0 -0.14743181989E+02  0.51162875678E+02  0.23910009821E+03  0.25824572531E+03  0.81774057116E+02 0.  0.
          6    2    1    2  501    0  0.29141863106E+02 -0.17044548506E+02  0.62804357778E+03  0.65098039179E+03  0.16791953456E+03 0.  0.
         24    2    5    5    0    0  0.61223418241E+02  0.67650752235E+01  0.23577952569E+03  0.25665907494E+03  0.80547022475E+02 0.  0.
          5    1    5    5  501    0 -0.32081555135E+02 -0.23809623730E+02  0.39226405209E+03  0.39432131685E+03  0.47000000000E+01 0. -1.
        -15    1    6    6    0    0  0.47484444557E+02 -0.32607186399E+02  0.16150645711E+03  0.17148030352E+03  0.17770000000E+01 0.  1.
         16    1    6    6    0    0  0.13738973683E+02  0.39372261623E+02  0.74273068582E+02  0.85178771415E+02  0.00000000000E+00 0. -1.
         -5    1    3    3    0  503 -0.14398681117E+02 -0.34118327172E+02 -0.93787225978E+01  0.38489384309E+02  0.47000000000E+01 0.  1.
         15    1    4    4    0    0 -0.94758156919E+00  0.66852628270E+01 -0.57262892099E+01  0.90298818936E+01  0.17770000000E+01 0. -1.
        -16    1    4    4    0    0 -0.13795600420E+02  0.44477612851E+02  0.24482638742E+03  0.24921584342E+03  0.00000000000E+00 0.  1.
<mgrwt>
<rscale>  2 0.18354765E+03</rscale>
<asrwt>0</asrwt>
<pdfrwt beam="1">  1       21 0.13888310E+00 0.18782922E+03</pdfrwt>
<pdfrwt beam="2">  1       21 0.69192736E-02 0.18782922E+03</pdfrwt>
<totfact> 0.56519507E+04</totfact>
</mgrwt>
</event>
<event>
12    2  0.4097182E-002  0.2280625E+03  0.7546771E-02  0.1128425E+00
         21   -1    0    0  501  502  0.00000000000E+00  0.00000000000E+00  0.15238190369E+03  0.15238190369E+03  0.00000000000E+00 0.  1.
         21   -1    0    0  502  503 -0.00000000000E+00 -0.00000000000E+00 -0.37597255618E+03  0.37597255618E+03  0.00000000000E+00 0.  1.
         -6    2    1    2    0  503  0.11139291309E+03  0.97600869795E+02 -0.19537439347E+03  0.29855313931E+03  0.17037755866E+03 0.  0.
        -24    2    3    3    0    0  0.58954944705E+01  0.47318152693E+02 -0.14318624225E+03  0.17047601370E+03  0.79284341774E+02 0.  0.
          6    2    1    2  501    0 -0.11139291309E+03 -0.97600869795E+02 -0.28216259026E+02  0.22980132056E+03  0.17343061664E+03 0.  0.
         24    2    5    5    0    0 -0.72093802281E+02 -0.54061938162E+02 -0.86547022257E+02  0.14694827827E+03  0.77351146981E+02 0.  0.
          5    1    5    5  501    0 -0.39299110810E+02 -0.43538931633E+02  0.58330763231E+02  0.82853042294E+02  0.47000000000E+01 0. -1.
        -15    1    6    6    0    0  0.12838503883E+02 -0.12681302947E+01 -0.28462150094E+02  0.31299952929E+02  0.17770000000E+01 0.  1.
         16    1    6    6    0    0 -0.84932306164E+02 -0.52793807868E+02 -0.58084872163E+02  0.11564832534E+03  0.00000000000E+00 0. -1.
         -5    1    3    3    0  503  0.10549741862E+03  0.50282717103E+02 -0.52188151222E+02  0.12807712560E+03  0.47000000000E+01 0.  1.
         15    1    4    4    0    0 -0.29654515421E+02  0.52095369987E+01 -0.21950324487E+02  0.37302868987E+02  0.17770000000E+01 0. -1.
        -16    1    4    4    0    0  0.35550009891E+02  0.42108615694E+02 -0.12123591776E+03  0.13317314472E+03  0.00000000000E+00 0.  1.
<mgrwt>
<rscale>  2 0.22748201E+03</rscale>
<asrwt>0</asrwt>
<pdfrwt beam="1">  1       21 0.23443370E-01 0.22806247E+03</pdfrwt>
<pdfrwt beam="2">  1       21 0.57841932E-01 0.22806247E+03</pdfrwt>
<totfact> 0.47173798E+04</totfact>
</mgrwt>
</event>
<event>
12    2  0.4097182E-002  0.2122279E+03  0.7546771E-02  0.1139857E+00
         21   -1    0    0  501  502  0.00000000000E+00  0.00000000000E+00  0.17291036439E+03  0.17291036439E+03  0.00000000000E+00 0.  1.
         21   -1    0    0  502  503 -0.00000000000E+00 -0.00000000000E+00 -0.64740799119E+03  0.64740799119E+03  0.00000000000E+00 0.  1.
         -6    2    1    2    0  503  0.32520588470E+02  0.11899487337E+03 -0.55439425079E+03  0.59354940564E+03  0.17242547105E+03 0.  0.
        -24    2    3    3    0    0  0.31521437256E+02  0.11148751781E+03 -0.23594825973E+03  0.27497869464E+03  0.80738055452E+02 0.  0.
          6    2    1    2  501    0 -0.32520588470E+02 -0.11899487337E+03  0.79896623994E+02  0.22676894994E+03  0.17269428933E+03 0.  0.
         24    2    5    5    0    0  0.36313986638E+02 -0.93573614561E+02  0.84029725839E+02  0.15312377589E+03  0.79442865948E+02 0.  0.
          5    1    5    5  501    0 -0.68834575109E+02 -0.25421258813E+02 -0.41331018451E+01  0.73645174050E+02  0.47000000000E+01 0. -1.
        -15    1    6    6    0    0  0.11509006792E+02 -0.10124980578E+03  0.64201961569E+02  0.12045343501E+03  0.17770000000E+01 0.  1.
         16    1    6    6    0    0  0.24804979846E+02  0.76761912226E+01  0.19827764270E+02  0.32670340873E+02  0.00000000000E+00 0. -1.
         -5    1    3    3    0  503  0.99915121488E+00  0.75073555627E+01 -0.31844599106E+03  0.31857071101E+03  0.47000000000E+01 0.  1.
         15    1    4    4    0    0  0.45163176809E+02  0.21637974770E+02 -0.91401309312E+02  0.10423661336E+03  0.17770000000E+01 0. -1.
        -16    1    4    4    0    0 -0.13641739553E+02  0.89849543041E+02 -0.14454695042E+03  0.17074208128E+03  0.00000000000E+00 0.  1.
<mgrwt>
<rscale>  2 0.21217322E+03</rscale>
<asrwt>0</asrwt>
<pdfrwt beam="1">  1       21 0.26601594E-01 0.21222791E+03</pdfrwt>
<pdfrwt beam="2">  1       21 0.99601230E-01 0.21222791E+03</pdfrwt>
<totfact> 0.10997813E+04</totfact>
</mgrwt>
</event>
<event>
12    2  0.4097182E-002  0.1861946E+03  0.7546771E-02  0.1161964E+00
         21   -1    0    0  503  502  0.00000000000E+00  0.00000000000E+00  0.10905608025E+04  0.10905608025E+04  0.00000000000E+00 0.  1.
         21   -1    0    0  501  503 -0.00000000000E+00 -0.00000000000E+00 -0.31781096494E+02  0.31781096494E+02  0.00000000000E+00 0.  1.
          6    2    1    2  501    0  0.67769477862E+02 -0.16643797540E+02  0.53913923388E+03  0.57035035807E+03  0.17250709931E+03 0.  0.
         24    2    3    3    0    0  0.54372923502E+02 -0.53463776720E+02  0.20614986542E+03  0.23503082681E+03  0.83228194183E+02 0.  0.
         -6    2    1    2    0  502 -0.67769477862E+02  0.16643797540E+02  0.51964047209E+03  0.55199154089E+03  0.17262306582E+03 0.  0.
        -24    2    5    5    0    0 -0.45867123202E+02 -0.41747118830E+02  0.43570319800E+03  0.44731695832E+03  0.80053541659E+02 0.  0.
          5    1    3    3  501    0  0.13396554361E+02  0.36819979180E+02  0.33298936846E+03  0.33531953126E+03  0.47000000000E+01 0. -1.
        -15    1    4    4    0    0  0.50752374835E+02 -0.24403262861E+02  0.47478652230E+02  0.73679732195E+02  0.17770000000E+01 0.  1.
         16    1    4    4    0    0  0.36205486666E+01 -0.29060513859E+02  0.15867121319E+03  0.16135109462E+03  0.00000000000E+00 0. -1.
         -5    1    5    5    0  502 -0.21902354661E+02  0.58390916370E+02  0.83937274086E+02  0.10467458257E+03  0.47000000000E+01 0.  1.
         15    1    6    6    0    0 -0.37903403308E+02 -0.34744570730E+02  0.10995839120E+03  0.12139958279E+03  0.17770000000E+01 0. -1.
        -16    1    6    6    0    0 -0.79637198935E+01 -0.70025480996E+01  0.32574480681E+03  0.32591737553E+03  0.00000000000E+00 0.  1.
<mgrwt>
<rscale>  2 0.18616775E+03</rscale>
<asrwt>0</asrwt>
<pdfrwt beam="1">  1       21 0.16777856E+00 0.18619463E+03</pdfrwt>
<pdfrwt beam="2">  1       21 0.48894003E-02 0.18619463E+03</pdfrwt>
<totfact> 0.62031206E+04</totfact>
</mgrwt>
</event>
<event>
12    2  0.4097182E-002  0.1973897E+03  0.7546771E-02  0.1152218E+00
         21   -1    0    0  501  502  0.00000000000E+00  0.00000000000E+00  0.97781132967E+02  0.97781132967E+02  0.00000000000E+00 0. -1.
         21   -1    0    0  502  503 -0.00000000000E+00 -0.00000000000E+00 -0.41120916668E+03  0.41120916668E+03  0.00000000000E+00 0. -1.
         -6    2    1    2    0  503  0.64588704411E+02  0.67758842555E+02 -0.20511321550E+03  0.28383526783E+03  0.17241828967E+03 0.  0.
        -24    2    3    3    0    0  0.85751905112E+02  0.64202707728E+02 -0.22018069496E+03  0.25719608436E+03  0.78707753552E+02 0.  0.
          6    2    1    2  501    0 -0.64588704411E+02 -0.67758842555E+02 -0.10831481821E+03  0.22515503181E+03  0.17378068657E+03 0.  0.
         24    2    5    5    0    0 -0.44647516842E+02 -0.48192554175E+02 -0.14490758522E+03  0.17887748650E+03  0.81749763815E+02 0.  0.
          5    1    5    5  501    0 -0.19941187569E+02 -0.19566288379E+02  0.36592767010E+02  0.46277545312E+02  0.47000000000E+01 0. -1.
        -15    1    6    6    0    0 -0.49292375349E+02  0.59994766747E+01 -0.58233739243E+02  0.76551016343E+02  0.17770000000E+01 0.  1.
         16    1    6    6    0    0  0.46448585063E+01 -0.54192030850E+02 -0.86673845976E+02  0.10232647016E+03  0.00000000000E+00 0. -1.
         -5    1    3    3    0  503 -0.21163200701E+02  0.35561348262E+01  0.15067479457E+02  0.26639183471E+02  0.47000000000E+01 0.  1.
         15    1    4    4    0    0  0.89519328579E+01  0.22160292445E+02 -0.12736732279E+03  0.12960250116E+03  0.17770000000E+01 0. -1.
        -16    1    4    4    0    0  0.76799972255E+02  0.42042415283E+02 -0.92813372165E+02  0.12759358320E+03  0.00000000000E+00 0.  1.
<mgrwt>
<rscale>  2 0.19708941E+03</rscale>
<asrwt>0</asrwt>
<pdfrwt beam="1">  1       21 0.15043251E-01 0.19738969E+03</pdfrwt>
<pdfrwt beam="2">  1       21 0.63262948E-01 0.19738969E+03</pdfrwt>
<totfact> 0.90024515E+04</totfact>
</mgrwt>
</event>
<event>
12    2  0.4097182E-002  0.2048935E+03  0.7546771E-02  0.1145732E+00
         21   -1    0    0  501  502  0.00000000000E+00  0.00000000000E+00  0.26800883115E+04  0.26800883115E+04  0.00000000000E+00 0. -1.
         21   -1    0    0  502  503 -0.00000000000E+00 -0.00000000000E+00 -0.33657179955E+02  0.33657179955E+02  0.00000000000E+00 0.  1.
         -6    2    1    2    0  503 -0.10383779656E+03  0.38881987963E+02  0.33095426056E+03  0.38924551992E+03  0.17229989905E+03 0.  0.
        -24    2    3    3    0    0 -0.98805146472E+02  0.64150705186E+02  0.15554330550E+03  0.21189014562E+03  0.82619271247E+02 0.  0.
          6    2    1    2  501    0  0.10383779656E+03 -0.38881987963E+02  0.23154768710E+04  0.23244999715E+04  0.17196767318E+03 0.  0.
         24    2    5    5    0    0  0.49442023300E+02  0.25223036071E+02  0.70458359638E+03  0.71140741795E+03  0.81128014975E+02 0.  0.
          5    1    5    5  501    0  0.54395773256E+02 -0.64105024034E+02  0.16108932746E+04  0.16130925536E+04  0.47000000000E+01 0. -1.
        -15    1    6    6    0    0  0.18113139410E+02  0.32593356308E+02  0.61648324146E+03  0.61761246541E+03  0.17770000000E+01 0.  1.
         16    1    6    6    0    0  0.31328883890E+02 -0.73703202371E+01  0.88100354918E+02  0.93794952544E+02  0.00000000000E+00 0. -1.
         -5    1    3    3    0  503 -0.50326500845E+01 -0.25268717223E+02  0.17541095506E+03  0.17735537429E+03  0.47000000000E+01 0.  1.
         15    1    4    4    0    0 -0.48502288324E+02  0.52803918697E+02  0.14119188499E+03  0.15836360667E+03  0.17770000000E+01 0. -1.
        -16    1    4    4    0    0 -0.50302858148E+02  0.11346786488E+02  0.14351420512E+02  0.53526538952E+02  0.00000000000E+00 0.  1.
<mgrwt>
<rscale>  2 0.20482365E+03</rscale>
<asrwt>0</asrwt>
<pdfrwt beam="1">  1       21 0.41232111E+00 0.20489351E+03</pdfrwt>
<pdfrwt beam="2">  1       21 0.51780298E-02 0.20489351E+03</pdfrwt>
<totfact> 0.18163589E+03</totfact>
</mgrwt>
</event>
<event>
12    2  0.4097182E-002  0.2118727E+03  0.7546771E-02  0.1140701E+00
         21   -1    0    0  503  502  0.00000000000E+00  0.00000000000E+00  0.26852510904E+03  0.26852510904E+03  0.00000000000E+00 0.  1.
         21   -1    0    0  501  503 -0.00000000000E+00 -0.00000000000E+00 -0.53077041192E+03  0.53077041192E+03  0.00000000000E+00 0.  1.
          6    2    1    2  501    0  0.43989933918E+02 -0.11252976163E+03 -0.46270064162E+03  0.50762378316E+03  0.17027025560E+03 0.  0.
         24    2    3    3    0    0  0.42959197004E+02 -0.13612585546E+03 -0.28984131149E+03  0.33309505752E+03  0.81046840577E+02 0.  0.
         -6    2    1    2    0  502 -0.43989933918E+02  0.11252976163E+03  0.20045533874E+03  0.29167173780E+03  0.17404596594E+03 0.  0.
        -24    2    5    5    0    0 -0.82752458394E+02  0.11957668936E+03  0.12938618392E+03  0.21027697592E+03  0.79555439817E+02 0.  0.
          5    1    3    3  501    0  0.10307369140E+01  0.23596093827E+02 -0.17285933013E+03  0.17452872565E+03  0.47000000000E+01 0. -1.
        -15    1    4    4    0    0 -0.15674737092E+01 -0.41220778170E+02 -0.16494747949E+03  0.17003657914E+03  0.17770000000E+01 0.  1.
         16    1    4    4    0    0  0.44526670713E+02 -0.94905077289E+02 -0.12489383199E+03  0.16305847838E+03  0.00000000000E+00 0. -1.
         -5    1    5    5    0  502  0.38762524476E+02 -0.70469277241E+01  0.71069154820E+02  0.81394761877E+02  0.47000000000E+01 0.  1.
         15    1    6    6    0    0 -0.11280538273E+01 -0.42096288492E+01 -0.72515231996E+01  0.86449868825E+01  0.17770000000E+01 0. -1.
        -16    1    6    6    0    0 -0.81624404567E+02  0.12378631821E+03  0.13663770712E+03  0.20163198904E+03  0.00000000000E+00 0.  1.
<mgrwt>
<rscale>  2 0.21109585E+03</rscale>
<asrwt>0</asrwt>
<pdfrwt beam="1">  1       21 0.41311555E-01 0.21187274E+03</pdfrwt>
<pdfrwt beam="2">  1       21 0.81656987E-01 0.21187274E+03</pdfrwt>
<totfact> 0.73064408E+03</totfact>
</mgrwt>
</event>
<event>
12    2  0.4097182E-002  0.2294436E+03  0.7546771E-02  0.1127069E+00
         21   -1    0    0  501  502  0.00000000000E+00  0.00000000000E+00  0.11456360528E+03  0.11456360528E+03  0.00000000000E+00 0. -1.
         21   -1    0    0  502  503 -0.00000000000E+00 -0.00000000000E+00 -0.48328194138E+03  0.48328194138E+03  0.00000000000E+00 0.  1.
         -6    2    1    2    0  503  0.11520464127E+03  0.97284399847E+02 -0.25113914836E+03  0.34002925715E+03  0.17266342998E+03 0.  0.
        -24    2    3    3    0    0 -0.12990439862E+02  0.46933618302E+02 -0.10387731613E+03  0.13834307205E+03  0.77309719454E+02 0.  0.
          6    2    1    2  501    0 -0.11520464127E+03 -0.97284399847E+02 -0.11757918774E+03  0.25781628952E+03  0.17293932441E+03 0.  0.
         24    2    5    5    0    0 -0.14937725301E+03 -0.71476622385E+02 -0.10967740598E+03  0.21401746618E+03  0.79698627219E+02 0.  0.
          5    1    5    5  501    0  0.34172611746E+02 -0.25807777462E+02 -0.79017817548E+01  0.43798823340E+02  0.47000000000E+01 0. -1.
        -15    1    6    6    0    0 -0.63306752343E+02  0.39880493449E+01 -0.65838655914E+02  0.91441433559E+02  0.17770000000E+01 0.  1.
         16    1    6    6    0    0 -0.86070500670E+02 -0.75464671730E+02 -0.43838750071E+02  0.12257603262E+03  0.00000000000E+00 0. -1.
         -5    1    3    3    0  503  0.12819508113E+03  0.50350781545E+02 -0.14726183223E+03  0.20168618510E+03  0.47000000000E+01 0.  1.
         15    1    4    4    0    0  0.25067607486E+02  0.10658431057E+02 -0.70991765048E+01  0.28205374199E+02  0.17770000000E+01 0. -1.
        -16    1    4    4    0    0 -0.38058047348E+02  0.36275187245E+02 -0.96778139627E+02  0.11013769785E+03  0.00000000000E+00 0.  1.
<mgrwt>
<rscale>  2 0.22939163E+03</rscale>
<asrwt>0</asrwt>
<pdfrwt beam="1">  1       21 0.17625170E-01 0.22944362E+03</pdfrwt>
<pdfrwt beam="2">  1       21 0.74351067E-01 0.22944362E+03</pdfrwt>
<totfact> 0.46485362E+04</totfact>
</mgrwt>
</event>
<event>
12    2  0.4097182E-002  0.1855689E+03  0.7546771E-02  0.1162523E+00
         21   -1    0    0  501  502  0.00000000000E+00  0.00000000000E+00  0.47517917008E+03  0.47517917008E+03  0.00000000000E+00 0. -1.
         21   -1    0    0  502  503 -0.00000000000E+00 -0.00000000000E+00 -0.15914404178E+03  0.15914404178E+03  0.00000000000E+00 0. -1.
         -6    2    1    2    0  503 -0.44206914543E+02 -0.49547185162E+02 -0.76049496611E+02  0.20054756553E+03  0.17328192421E+03 0.  0.
        -24    2    3    3    0    0 -0.22172312496E+02 -0.66707051207E+02 -0.11158404293E+03  0.15510772979E+03  0.81645373910E+02 0.  0.
          6    2    1    2  501    0  0.44206914543E+02  0.49547185162E+02  0.39208462491E+03  0.43377564633E+03  0.17326795264E+03 0.  0.
         24    2    5    5    0    0  0.52062043517E+02  0.26866539006E+02  0.10223200741E+03  0.14289294724E+03  0.80837761833E+02 0.  0.
          5    1    5    5  501    0 -0.78551289743E+01  0.22680646156E+02  0.28985261750E+03  0.29088269909E+03  0.47000000000E+01 0. -1.
        -15    1    6    6    0    0 -0.74436300349E+01  0.13112351451E+02 -0.77838963920E+01  0.17061305950E+02  0.17770000000E+01 0.  1.
         16    1    6    6    0    0  0.59505673552E+02  0.13754187555E+02  0.11001590380E+03  0.12583164129E+03  0.00000000000E+00 0. -1.
         -5    1    3    3    0  503 -0.22034602046E+02  0.17159866045E+02  0.35534546324E+02  0.45439835745E+02  0.47000000000E+01 0.  1.
         15    1    4    4    0    0 -0.47617864319E+02 -0.66093789465E+02 -0.76508217077E+02  0.11176992000E+03  0.17770000000E+01 0. -1.
        -16    1    4    4    0    0  0.25445551823E+02 -0.61326174152E+00 -0.35075825858E+02  0.43337809787E+02  0.00000000000E+00 0.  1.
<mgrwt>
<rscale>  2 0.18556559E+03</rscale>
<asrwt>0</asrwt>
<pdfrwt beam="1">  1       21 0.73104487E-01 0.18556886E+03</pdfrwt>
<pdfrwt beam="2">  1       21 0.24483699E-01 0.18556886E+03</pdfrwt>
<totfact> 0.26635683E+04</totfact>
</mgrwt>
</event>
<event>
12    2  0.4097182E-002  0.2473520E+03  0.7546771E-02  0.1114999E+00
         21   -1    0    0  501  502  0.00000000000E+00  0.00000000000E+00  0.77133047763E+02  0.77133047763E+02  0.00000000000E+00 0.  1.
         21   -1    0    0  502  503 -0.00000000000E+00 -0.00000000000E+00 -0.16462800099E+04  0.16462800099E+04  0.00000000000E+00 0.  1.
         -6    2    1    2    0  503 -0.61301832720E+02  0.16543756100E+03 -0.14048927665E+04  0.14264914376E+04  0.17328195211E+03 0.  0.
        -24    2    3    3    0    0 -0.86223834324E+02  0.17103904825E+03 -0.13488201610E+04  0.13646957265E+04  0.79935558883E+02 0.  0.
          6    2    1    2  501    0  0.61301832720E+02 -0.16543756100E+03 -0.16425419572E+03  0.29692162014E+03  0.17336523991E+03 0.  0.
         24    2    5    5    0    0  0.28109566247E+01 -0.13896477506E+03 -0.73290063649E+02  0.18548305273E+03  0.98556680329E+02 0.  0.
          5    1    5    5  501    0  0.58490876095E+02 -0.26472785939E+02 -0.90964132074E+02  0.11143856741E+03  0.47000000000E+01 0. -1.
        -15    1    6    6    0    0  0.31055719527E+02 -0.31733611060E+02  0.11489764753E+02  0.45898281115E+02  0.17770000000E+01 0.  1.
         16    1    6    6    0    0 -0.28244762903E+02 -0.10723116400E+03 -0.84779828402E+02  0.13958477162E+03  0.00000000000E+00 0. -1.
         -5    1    3    3    0  503  0.24922001604E+02 -0.56014872587E+01 -0.56072605442E+02  0.61795711053E+02  0.47000000000E+01 0.  1.
         15    1    4    4    0    0 -0.65738810933E+00  0.58079167551E+02 -0.24398502169E+03  0.25080962980E+03  0.17770000000E+01 0. -1.
        -16    1    4    4    0    0 -0.85566446214E+02  0.11295988070E+03 -0.11048351393E+04  0.11138860967E+04  0.00000000000E+00 0.  1.
<mgrwt>
<rscale>  2 0.24733740E+03</rscale>
<asrwt>0</asrwt>
<pdfrwt beam="1">  1       21 0.11866623E-01 0.24735199E+03</pdfrwt>
<pdfrwt beam="2">  1       21 0.25327385E+00 0.24735199E+03</pdfrwt>
<totfact> 0.36120387E+03</totfact>
</mgrwt>
</event>
<event>
12    2  0.4097182E-002  0.3387689E+03  0.7546771E-02  0.1067422E+00
         21   -1    0    0  503  502  0.00000000000E+00  0.00000000000E+00  0.17537875814E+03  0.17537875814E+03  0.00000000000E+00 0. -1.
         21   -1    0    0  501  503 -0.00000000000E+00 -0.00000000000E+00 -0.13808542729E+04  0.13808542729E+04  0.00000000000E+00 0.  1.
          6    2    1    2  501    0  0.26795129848E+03  0.11288634971E+03 -0.11682277554E+04  0.12163553920E+04  0.17384799372E+03 0.  0.
         24    2    3    3    0    0  0.55208280343E+02  0.63902348022E+02 -0.32307594402E+03  0.34345064438E+03  0.80304515564E+02 0.  0.
         -6    2    1    2    0  502 -0.26795129848E+03 -0.11288634971E+03 -0.37247759413E+02  0.33987763907E+03  0.17201217296E+03 0.  0.
        -24    2    5    5    0    0 -0.15800671873E+03  0.30442659085E+01 -0.61213064996E+01  0.17703211618E+03  0.79545641273E+02 0.  0.
          5    1    3    3  501    0  0.21274301814E+03  0.48984001692E+02 -0.84515181135E+03  0.87290474762E+03  0.47000000000E+01 0. -1.
        -15    1    4    4    0    0  0.61303207074E+02  0.10686383878E+02 -0.15453394556E+03  0.16660186091E+03  0.17770000000E+01 0.  1.
         16    1    4    4    0    0 -0.60949267312E+01  0.53215964145E+02 -0.16854199846E+03  0.17684878348E+03  0.00000000000E+00 0. -1.
         -5    1    5    5    0  502 -0.10994457975E+03 -0.11593061562E+03 -0.31126452913E+02  0.16284552289E+03  0.47000000000E+01 0.  1.
         15    1    6    6    0    0 -0.48452254009E+01  0.86350846049E+01  0.19214508404E+02  0.21688613545E+02  0.17770000000E+01 0. -1.
        -16    1    6    6    0    0 -0.15316149333E+03 -0.55908186964E+01 -0.25335814904E+02  0.15534350263E+03  0.00000000000E+00 0.  1.
<mgrwt>
<rscale>  2 0.33853403E+03</rscale>
<asrwt>0</asrwt>
<pdfrwt beam="1">  1       21 0.26981349E-01 0.33876888E+03</pdfrwt>
<pdfrwt beam="2">  1       21 0.21243911E+00 0.33876888E+03</pdfrwt>
<totfact> 0.12982836E+03</totfact>
</mgrwt>
</event>
<event>
12    2  0.4097182E-002  0.2501256E+03  0.7546771E-02  0.1113788E+00
         21   -1    0    0  503  502  0.00000000000E+00  0.00000000000E+00  0.69859354359E+02  0.69859354359E+02  0.00000000000E+00 0. -1.
         21   -1    0    0  501  503 -0.00000000000E+00 -0.00000000000E+00 -0.10056454924E+04  0.10056454924E+04  0.00000000000E+00 0. -1.
          6    2    1    2  501    0  0.17556475339E+03  0.48045799314E+02 -0.28297956768E+03  0.37767741985E+03  0.17155586926E+03 0.  0.
         24    2    3    3    0    0  0.17676855653E+03  0.80767324542E+02 -0.26982138389E+03  0.34207720699E+03  0.80266761793E+02 0.  0.
         -6    2    1    2    0  502 -0.17556475339E+03 -0.48045799314E+02 -0.65280657037E+03  0.69782742691E+03  0.16635900327E+03 0.  0.
        -24    2    5    5    0    0 -0.19879435415E+03 -0.44781847064E+02 -0.54362149959E+03  0.58605203867E+03  0.80050285099E+02 0.  0.
          5    1    3    3  501    0 -0.12038031321E+01 -0.32721525228E+02 -0.13158183792E+02  0.35600212863E+02  0.47000000000E+01 0. -1.
        -15    1    4    4    0    0  0.77185766525E+02  0.79019639733E+02 -0.13451933238E+03  0.17406997021E+03  0.17770000000E+01 0.  1.
         16    1    4    4    0    0  0.99582790000E+02  0.17476848088E+01 -0.13530205151E+03  0.16800723678E+03  0.00000000000E+00 0. -1.
         -5    1    5    5    0  502  0.23229600760E+02 -0.32639522501E+01 -0.10918507078E+03  0.11177538825E+03  0.47000000000E+01 0.  1.
         15    1    6    6    0    0 -0.18369649701E+03 -0.63818885816E+02 -0.47580991597E+03  0.51401895594E+03  0.17770000000E+01 0. -1.
        -16    1    6    6    0    0 -0.15097857143E+02  0.19037038752E+02 -0.67811583618E+02  0.72033082730E+02  0.00000000000E+00 0.  1.
<mgrwt>
<rscale>  2 0.24923699E+03</rscale>
<asrwt>0</asrwt>
<pdfrwt beam="1">  1       21 0.10747593E-01 0.25012556E+03</pdfrwt>
<pdfrwt beam="2">  1       21 0.15471469E+00 0.25012556E+03</pdfrwt>
<totfact> 0.18979039E+04</totfact>
</mgrwt>
</event>
<event>
12    2  0.4097182E-002  0.2598819E+03  0.7546771E-02  0.1107271E+00
         21   -1    0    0  503  502  0.00000000000E+00  0.00000000000E+00  0.63345916683E+03  0.63345916683E+03  0.00000000000E+00 0.  1.
         21   -1    0    0  501  503 -0.00000000000E+00 -0.00000000000E+00 -0.22978775120E+03  0.22978775120E+03  0.00000000000E+00 0. -1.
          6    2    1    2  501    0  0.18877712573E+03  0.46239068778E+02 -0.11429853716E+03  0.28390622865E+03  0.17252169831E+03 0.  0.
         24    2    3    3    0    0  0.15192600371E+03 -0.23795749741E+02 -0.10711515124E+03  0.20430364055E+03  0.81354616386E+02 0.  0.
         -6    2    1    2    0  502 -0.18877712573E+03 -0.46239068778E+02  0.51796995279E+03  0.57934068938E+03  0.17195321369E+03 0.  0.
        -24    2    5    5    0    0 -0.21003752723E+03 -0.20639582793E+02  0.41948797024E+03  0.47528239205E+03  0.73358297412E+02 0.  0.
          5    1    3    3  501    0  0.36851122017E+02  0.70034818520E+02 -0.71833859267E+01  0.79602588101E+02  0.47000000000E+01 0. -1.
        -15    1    4    4    0    0  0.27670854267E+02 -0.37345338023E+02 -0.45039092441E+02  0.64745872647E+02  0.17770000000E+01 0.  1.
         16    1    4    4    0    0  0.12425514944E+03  0.13549588282E+02 -0.62076058797E+02  0.13955776790E+03  0.00000000000E+00 0. -1.
         -5    1    5    5    0  502  0.21260401502E+02 -0.25599485986E+02  0.98481982557E+02  0.10405829733E+03  0.47000000000E+01 0.  1.
         15    1    6    6    0    0 -0.25006571789E+02  0.18890727530E+02  0.36751418245E+02  0.48332315186E+02  0.17770000000E+01 0. -1.
        -16    1    6    6    0    0 -0.18503095544E+03 -0.39530310323E+02  0.38273655199E+03  0.42695007686E+03  0.00000000000E+00 0.  1.
<mgrwt>
<rscale>  2 0.25978757E+03</rscale>
<asrwt>0</asrwt>
<pdfrwt beam="1">  1       21 0.97455256E-01 0.25988188E+03</pdfrwt>
<pdfrwt beam="2">  1       21 0.35351962E-01 0.25988188E+03</pdfrwt>
<totfact> 0.64345307E+03</totfact>
</mgrwt>
</event>
<event>
12    2  0.4097182E-002  0.1732868E+03  0.7546771E-02  0.1174832E+00
         21   -1    0    0  501  502  0.00000000000E+00  0.00000000000E+00  0.31360218067E+02  0.31360218067E+02  0.00000000000E+00 0. -1.
         21   -1    0    0  502  503 -0.00000000000E+00 -0.00000000000E+00 -0.13489971803E+04  0.13489971803E+04  0.00000000000E+00 0. -1.
         -6    2    1    2    0  503 -0.32024298413E+01 -0.66585236734E+00 -0.10363122545E+04  0.10507004430E+04  0.17325597546E+03 0.  0.
        -24    2    3    3    0    0 -0.49622116193E+02 -0.26253273833E+02 -0.38538347098E+03  0.39760024034E+03  0.80087093876E+02 0.  0.
          6    2    1    2  501    0  0.32024298413E+01  0.66585236734E+00 -0.28132470771E+03  0.32965695542E+03  0.17181215955E+03 0.  0.
         24    2    5    5    0    0  0.67239406346E+02  0.16495790108E+02 -0.18856945728E+03  0.21574054847E+03  0.78691137867E+02 0.  0.
          5    1    5    5  501    0 -0.64036976504E+02 -0.15829937741E+02 -0.92755250432E+02  0.11391640695E+03  0.47000000000E+01 0. -1.
        -15    1    6    6    0    0  0.21418201852E+02 -0.11901057014E+02 -0.14317180923E+03  0.14526423929E+03  0.17770000000E+01 0.  1.
         16    1    6    6    0    0  0.45821204494E+02  0.28396847122E+02 -0.45397648051E+02  0.70476309184E+02  0.00000000000E+00 0. -1.
         -5    1    3    3    0  503  0.46419686352E+02  0.25587421465E+02 -0.65092878354E+03  0.65310020262E+03  0.47000000000E+01 0.  1.
         15    1    4    4    0    0 -0.16328360381E+02 -0.46653038989E+02 -0.29537431984E+03  0.29948667407E+03  0.17770000000E+01 0. -1.
        -16    1    4    4    0    0 -0.33293755812E+02  0.20399765157E+02 -0.90009151145E+02  0.98113566260E+02  0.00000000000E+00 0.  1.
<mgrwt>
<rscale>  2 0.17292483E+03</rscale>
<asrwt>0</asrwt>
<pdfrwt beam="1">  1       21 0.48246499E-02 0.17328685E+03</pdfrwt>
<pdfrwt beam="2">  1       21 0.20753798E+00 0.17328685E+03</pdfrwt>
<totfact> 0.34850613E+04</totfact>
</mgrwt>
</event>
<event>
12    2  0.4097182E-002  0.1757591E+03  0.7546771E-02  0.1172121E+00
         21   -1    0    0  503  502  0.00000000000E+00  0.00000000000E+00  0.25774305672E+02  0.25774305672E+02  0.00000000000E+00 0.  1.
         21   -1    0    0  501  503 -0.00000000000E+00 -0.00000000000E+00 -0.13121864873E+04  0.13121864873E+04  0.00000000000E+00 0.  1.
          6    2    1    2  501    0  0.28649350098E+02  0.13588685998E+02 -0.84258928612E+03  0.86060345547E+03  0.17226771270E+03 0.  0.
         24    2    3    3    0    0 -0.26464773888E+02  0.48096375779E+02 -0.65303355535E+03  0.66014943984E+03  0.79566405491E+02 0.  0.
         -6    2    1    2    0  502 -0.28649350098E+02 -0.13588685998E+02 -0.44382289548E+03  0.47735733747E+03  0.17287517878E+03 0.  0.
        -24    2    5    5    0    0 -0.52676341536E+02 -0.45152139446E+02 -0.41065928853E+03  0.42543949143E+03  0.86857336841E+02 0.  0.
          5    1    3    3  501    0  0.55114123986E+02 -0.34507689781E+02 -0.18955573077E+03  0.20045401563E+03  0.47000000000E+01 0. -1.
        -15    1    4    4    0    0 -0.54107455440E+02  0.35049709343E+02 -0.38306983931E+03  0.38846075526E+03  0.17770000000E+01 0.  1.
         16    1    4    4    0    0  0.27642681552E+02  0.13046666435E+02 -0.26996371604E+03  0.27168868458E+03  0.00000000000E+00 0. -1.
         -5    1    5    5    0  502  0.24026991438E+02  0.31563453448E+02 -0.33163606949E+02  0.51917846036E+02  0.47000000000E+01 0.  1.
         15    1    6    6    0    0 -0.17113613656E+02  0.14713560179E+02 -0.24079833325E+03  0.24186020683E+03  0.17770000000E+01 0. -1.
        -16    1    6    6    0    0 -0.35562727880E+02 -0.59865699625E+02 -0.16986095528E+03  0.18357928460E+03  0.00000000000E+00 0.  1.
<mgrwt>
<rscale>  2 0.17560955E+03</rscale>
<asrwt>0</asrwt>
<pdfrwt beam="1">  1       21 0.39652763E-02 0.17575911E+03</pdfrwt>
<pdfrwt beam="2">  1       21 0.20187492E+00 0.17575911E+03</pdfrwt>
<totfact> 0.52518088E+04</totfact>
</mgrwt>
</event>
<event>
12    2  0.4097182E-002  0.2664751E+03  0.7546771E-02  0.1103980E+00
         21   -1    0    0  501  502  0.00000000000E+00  0.00000000000E+00  0.41093922233E+03  0.41093922233E+03  0.00000000000E+00 0. -1.
         21   -1    0    0  502  503 -0.00000000000E+00 -0.00000000000E+00 -0.20101538446E+03  0.20101538446E+03  0.00000000000E+00 0. -1.
         -6    2    1    2    0  503  0.17120581914E+03 -0.93907581907E+02 -0.16238958078E+02  0.26244269103E+03  0.17459208421E+03 0.  0.
        -24    2    3    3    0    0  0.15388777030E+03 -0.72472093039E+02  0.46202538317E+02  0.19402905591E+03  0.81110726003E+02 0.  0.
          6    2    1    2  501    0 -0.17120581914E+03  0.93907581907E+02  0.22616279595E+03  0.34951191576E+03  0.18132540511E+03 0.  0.
         24    2    5    5    0    0 -0.61042499287E+02 -0.85224329609E+01  0.14927216032E+03  0.18050858788E+03  0.80637174234E+02 0.  0.
          5    1    5    5  501    0 -0.11016331985E+03  0.10243001487E+03  0.76890635623E+02  0.16900332787E+03  0.47000000000E+01 0. -1.
        -15    1    6    6    0    0 -0.39824997674E+02 -0.14503691626E+01  0.15275162131E+03  0.15787447403E+03  0.17770000000E+01 0.  1.
         16    1    6    6    0    0 -0.21217501613E+02 -0.70720637983E+01 -0.34794609808E+01  0.22634113850E+02  0.00000000000E+00 0. -1.
         -5    1    3    3    0  503  0.17318048835E+02 -0.21435488868E+02 -0.62441496395E+02  0.68413635121E+02  0.47000000000E+01 0.  1.
         15    1    4    4    0    0  0.13340146958E+03 -0.90365975241E+02  0.41843951480E+02  0.16648133701E+03  0.17770000000E+01 0. -1.
        -16    1    4    4    0    0  0.20486300723E+02  0.17893882202E+02  0.43585868369E+01  0.27547718904E+02  0.00000000000E+00 0.  1.
<mgrwt>
<rscale>  2 0.26533395E+03</rscale>
<asrwt>0</asrwt>
<pdfrwt beam="1">  1       21 0.63221419E-01 0.26647508E+03</pdfrwt>
<pdfrwt beam="2">  1       21 0.30925444E-01 0.26647508E+03</pdfrwt>
<totfact> 0.22376606E+04</totfact>
</mgrwt>
</event>
<event>
12    2  0.4097182E-002  0.1863692E+03  0.7546771E-02  0.1161822E+00
         21   -1    0    0  503  502  0.00000000000E+00  0.00000000000E+00  0.17825609612E+03  0.17825609612E+03  0.00000000000E+00 0.  1.
         21   -1    0    0  501  503 -0.00000000000E+00 -0.00000000000E+00 -0.19595976489E+03  0.19595976489E+03  0.00000000000E+00 0. -1.
          6    2    1    2  501    0  0.64053832566E+02 -0.24762172073E+02  0.64400671308E+01  0.18628928984E+03  0.17304960680E+03 0.  0.
         24    2    3    3    0    0  0.10868649820E+03 -0.17156581185E+02  0.21490455886E+02  0.13834636486E+03  0.81060309683E+02 0.  0.
         -6    2    1    2    0  502 -0.64053832566E+02  0.24762172073E+02 -0.24143735897E+02  0.18792657117E+03  0.17325535356E+03 0.  0.
        -24    2    5    5    0    0 -0.29794106145E+02  0.68729796967E+02 -0.53767545020E+02  0.12462932826E+03  0.83845374427E+02 0.  0.
          5    1    3    3  501    0 -0.44632665635E+02 -0.76055908879E+01 -0.15050388755E+02  0.47942924985E+02  0.47000000000E+01 0. -1.
        -15    1    4    4    0    0  0.56311743752E+01 -0.32006133107E+02  0.53503229820E+01  0.32983122447E+02  0.17770000000E+01 0.  1.
         16    1    4    4    0    0  0.10305532383E+03  0.14849551922E+02  0.16140132904E+02  0.10536324241E+03  0.00000000000E+00 0. -1.
         -5    1    5    5    0  502 -0.34259726421E+02 -0.43967624893E+02  0.29623809124E+02  0.63297242912E+02  0.47000000000E+01 0.  1.
         15    1    6    6    0    0  0.54255890404E+01  0.97545882477E+01 -0.54776646939E+02  0.55930562193E+02  0.17770000000E+01 0. -1.
        -16    1    6    6    0    0 -0.35219695185E+02  0.58975208719E+02  0.10091019187E+01  0.68698766067E+02  0.00000000000E+00 0.  1.
<mgrwt>
<rscale>  2 0.18632136E+03</rscale>
<asrwt>0</asrwt>
<pdfrwt beam="1">  1       21 0.27424015E-01 0.18636919E+03</pdfrwt>
<pdfrwt beam="2">  1       21 0.30147656E-01 0.18636919E+03</pdfrwt>
<totfact> 0.13414336E+05</totfact>
</mgrwt>
</event>
<event>
12    2  0.4097182E-002  0.1743609E+03  0.7546771E-02  0.1173950E+00
         21   -1    0    0  501  502  0.00000000000E+00  0.00000000000E+00  0.49712458321E+02  0.49712458321E+02  0.00000000000E+00 0. -1.
         21   -1    0    0  502  503 -0.00000000000E+00 -0.00000000000E+00 -0.61704500298E+03  0.61704500298E+03  0.00000000000E+00 0. -1.
         -6    2    1    2    0  503  0.11311340710E+02 -0.16512990403E+02 -0.23269695767E+03  0.28942115762E+03  0.17092719822E+03 0.  0.
        -24    2    3    3    0    0  0.53751432916E+01 -0.69233534521E+02 -0.20262574048E+03  0.22825693348E+03  0.78878783635E+02 0.  0.
          6    2    1    2  501    0 -0.11311340710E+02  0.16512990403E+02 -0.33463558699E+03  0.37733630368E+03  0.17320821203E+03 0.  0.
         24    2    5    5    0    0 -0.73871190197E+02  0.14929287667E+02 -0.23373009091E+03  0.25850763701E+03  0.80725501715E+02 0.  0.
          5    1    5    5  501    0  0.62559849488E+02  0.15837027363E+01 -0.10090549608E+03  0.11882866667E+03  0.47000000000E+01 0. -1.
        -15    1    6    6    0    0 -0.64257118921E+02  0.44723522710E+02 -0.18047126178E+03  0.19672875965E+03  0.17770000000E+01 0.  1.
         16    1    6    6    0    0 -0.96140712761E+01 -0.29794235043E+02 -0.53258829128E+02  0.61778877364E+02  0.00000000000E+00 0. -1.
         -5    1    3    3    0  503  0.59361974179E+01  0.52720544118E+02 -0.30071217189E+02  0.61164224144E+02  0.47000000000E+01 0.  1.
         15    1    4    4    0    0  0.14742121068E+02  0.12702045041E+01 -0.15622743242E+01  0.14984724993E+02  0.17770000000E+01 0. -1.
        -16    1    4    4    0    0 -0.93669777759E+01 -0.70503739026E+02 -0.20106346616E+03  0.21327220849E+03  0.00000000000E+00 0.  1.
<mgrwt>
<rscale>  2 0.17379165E+03</rscale>
<asrwt>0</asrwt>
<pdfrwt beam="1">  1       21 0.76480697E-02 0.17436086E+03</pdfrwt>
<pdfrwt beam="2">  1       21 0.94930010E-01 0.17436086E+03</pdfrwt>
<totfact> 0.12126793E+05</totfact>
</mgrwt>
</event>
<event>
12    2  0.4097182E-002  0.1815901E+03  0.7546771E-02  0.1166744E+00
         21   -1    0    0  503  502  0.00000000000E+00  0.00000000000E+00  0.41757231890E+02  0.41757231890E+02  0.00000000000E+00 0.  1.
         21   -1    0    0  501  503 -0.00000000000E+00 -0.00000000000E+00 -0.78574034173E+03  0.78574034173E+03  0.00000000000E+00 0.  1.
          6    2    1    2  501    0 -0.47238677470E+02  0.67993991236E+01 -0.40149249425E+03  0.43984466446E+03  0.17317442489E+03 0.  0.
         24    2    3    3    0    0  0.16594410566E+02  0.28557976208E+02 -0.11013053749E+03  0.14074271085E+03  0.81171687815E+02 0.  0.
         -6    2    1    2    0  502  0.47238677470E+02 -0.67993991236E+01 -0.34249061559E+03  0.38765290916E+03  0.17520625485E+03 0.  0.
        -24    2    5    5    0    0 -0.18676696970E+02 -0.16243772439E+02 -0.29176204774E+03  0.30381073379E+03  0.81013519314E+02 0.  0.
          5    1    3    3  501    0 -0.63833088036E+02 -0.21758577085E+02 -0.29136195676E+03  0.29910195361E+03  0.47000000000E+01 0. -1.
        -15    1    4    4    0    0 -0.17267577211E+02  0.45139747880E+02 -0.74796487666E+02  0.89069851003E+02  0.17770000000E+01 0.  1.
         16    1    4    4    0    0  0.33861987778E+02 -0.16581771672E+02 -0.35334049828E+02  0.51672859852E+02  0.00000000000E+00 0. -1.
         -5    1    5    5    0  502  0.65915374439E+02  0.94443733154E+01 -0.50728567845E+02  0.83842175368E+02  0.47000000000E+01 0.  1.
         15    1    6    6    0    0 -0.41418968310E+02 -0.28510774328E+02 -0.12008091442E+03  0.13019592515E+03  0.17770000000E+01 0. -1.
        -16    1    6    6    0    0  0.22742271341E+02  0.12267001889E+02 -0.17168113332E+03  0.17361480864E+03  0.00000000000E+00 0.  1.
<mgrwt>
<rscale>  2 0.18109818E+03</rscale>
<asrwt>0</asrwt>
<pdfrwt beam="1">  1       21 0.64241901E-02 0.18159008E+03</pdfrwt>
<pdfrwt beam="2">  1       21 0.12088312E+00 0.18159008E+03</pdfrwt>
<totfact> 0.91393875E+04</totfact>
</mgrwt>
</event>
<event>
12    2  0.4097182E-002  0.2090667E+03  0.7546771E-02  0.1142516E+00
         21   -1    0    0  503  502  0.00000000000E+00  0.00000000000E+00  0.24560677368E+02  0.24560677368E+02  0.00000000000E+00 0. -1.
         21   -1    0    0  501  503 -0.00000000000E+00 -0.00000000000E+00 -0.19127818344E+04  0.19127818344E+04  0.00000000000E+00 0. -1.
          6    2    1    2  501    0  0.10642914355E+03  0.46068184470E+02 -0.67797134118E+03  0.70916765177E+03  0.17269678236E+03 0.  0.
         24    2    3    3    0    0  0.96031671443E+02 -0.25770096977E+02 -0.51646171779E+03  0.53203410172E+03  0.80258330577E+02 0.  0.
         -6    2    1    2    0  502 -0.10642914355E+03 -0.46068184470E+02 -0.12102498159E+04  0.12281748600E+04  0.17395237781E+03 0.  0.
        -24    2    5    5    0    0 -0.12718961291E+03 -0.77992226000E+02 -0.10424780319E+04  0.10560713940E+04  0.79160326546E+02 0.  0.
          5    1    3    3  501    0  0.10397472106E+02  0.71838281447E+02 -0.16150962339E+03  0.17713355006E+03  0.47000000000E+01 0. -1.
        -15    1    4    4    0    0  0.38649590907E+02  0.54821187366E+01 -0.36491545634E+03  0.36700176090E+03  0.17770000000E+01 0.  1.
         16    1    4    4    0    0  0.57382080536E+02 -0.31252215714E+02 -0.15154626145E+03  0.16503234081E+03  0.00000000000E+00 0. -1.
         -5    1    5    5    0  502  0.20760469359E+02  0.31924041530E+02 -0.16777178395E+03  0.17210346599E+03  0.47000000000E+01 0.  1.
         15    1    6    6    0    0 -0.95065287977E+02 -0.14785793016E+02 -0.67397964816E+03  0.68081403666E+03  0.17770000000E+01 0. -1.
        -16    1    6    6    0    0 -0.32124324930E+02 -0.63206432985E+02 -0.36849838374E+03  0.37525735735E+03  0.00000000000E+00 0.  1.
<mgrwt>
<rscale>  2 0.20880529E+03</rscale>
<asrwt>0</asrwt>
<pdfrwt beam="1">  1       21 0.37785649E-02 0.20906666E+03</pdfrwt>
<pdfrwt beam="2">  1       21 0.29427419E+00 0.20906666E+03</pdfrwt>
<totfact> 0.15620623E+04</totfact>
</mgrwt>
</event>
<event>
12    2  0.4097182E-002  0.1919524E+03  0.7546771E-02  0.1157806E+00
         21   -1    0    0  501  502  0.00000000000E+00  0.00000000000E+00  0.77507864776E+02  0.77507864776E+02  0.00000000000E+00 0.  1.
         21   -1    0    0  502  503 -0.00000000000E+00 -0.00000000000E+00 -0.56306796020E+03  0.56306796020E+03  0.00000000000E+00 0. -1.
         -6    2    1    2    0  503  0.55823500455E+02 -0.61753627546E+02 -0.37493830094E+03  0.41902916519E+03  0.16756174398E+03 0.  0.
        -24    2    3    3    0    0  0.46937103386E+02 -0.37133582838E+02 -0.37903914259E+03  0.39212151653E+03  0.80663606784E+02 0.  0.
          6    2    1    2  501    0 -0.55823500455E+02  0.61753627546E+02 -0.11062179448E+03  0.22154665979E+03  0.17296232923E+03 0.  0.
         24    2    5    5    0    0  0.98674033670E+01  0.73734322715E+02 -0.10914204440E+03  0.15459061778E+03  0.80325321377E+02 0.  0.
          5    1    5    5  501    0 -0.65690903822E+02 -0.11980695169E+02 -0.14797500855E+01  0.66956042013E+02  0.47000000000E+01 0. -1.
        -15    1    6    6    0    0  0.14438290555E+02  0.65368542919E+01  0.92092604253E+01  0.18416375994E+02  0.17770000000E+01 0.  1.
         16    1    6    6    0    0 -0.45708871880E+01  0.67197468423E+02 -0.11835130482E+03  0.13617424178E+03  0.00000000000E+00 0. -1.
         -5    1    3    3    0  503  0.88863970694E+01 -0.24620044708E+02  0.41008416452E+01  0.26907648661E+02  0.47000000000E+01 0.  1.
         15    1    4    4    0    0 -0.19232583305E+02  0.73915834270E+01 -0.79817291680E+02  0.82452929276E+02  0.17770000000E+01 0. -1.
        -16    1    4    4    0    0  0.66169686691E+02 -0.44525166265E+02 -0.29922185091E+03  0.30966858725E+03  0.00000000000E+00 0.  1.
<mgrwt>
<rscale>  2 0.19072787E+03</rscale>
<asrwt>0</asrwt>
<pdfrwt beam="1">  1       21 0.11924287E-01 0.19195244E+03</pdfrwt>
<pdfrwt beam="2">  1       21 0.86625841E-01 0.19195244E+03</pdfrwt>
<totfact> 0.68118759E+04</totfact>
</mgrwt>
</event>
<event>
12    2  0.4097182E-002  0.1942396E+03  0.7546771E-02  0.1155230E+00
         21   -1    0    0  503  502  0.00000000000E+00  0.00000000000E+00  0.61168570725E+02  0.61168570725E+02  0.00000000000E+00 0. -1.
         21   -1    0    0  501  503 -0.00000000000E+00 -0.00000000000E+00 -0.63367663048E+03  0.63367663048E+03  0.00000000000E+00 0. -1.
          6    2    1    2  501    0 -0.98578266513E+01  0.87805809323E+02 -0.35294891089E+03  0.40169809512E+03  0.17023921119E+03 0.  0.
         24    2    3    3    0    0  0.10483829403E+02 -0.42014001832E+01 -0.93069462673E+02  0.12522291146E+03  0.83013795421E+02 0.  0.
         -6    2    1    2    0  502  0.98578266513E+01 -0.87805809323E+02 -0.21955914886E+03  0.29314710609E+03  0.17297967817E+03 0.  0.
        -24    2    5    5    0    0  0.16512636105E+00 -0.11282924044E+03 -0.22571358017E+03  0.26521705831E+03  0.81627219623E+02 0.  0.
          5    1    3    3  501    0 -0.20341656054E+02  0.92007209506E+02 -0.25987944822E+03  0.27647518366E+03  0.47000000000E+01 0. -1.
        -15    1    4    4    0    0  0.44548374619E+02 -0.91284427598E+01 -0.33812207088E+02  0.56694878301E+02  0.17770000000E+01 0.  1.
         16    1    4    4    0    0 -0.34064545216E+02  0.49270425766E+01 -0.59257255585E+02  0.68528033160E+02  0.00000000000E+00 0. -1.
         -5    1    5    5    0  502  0.96927002902E+01  0.25023431120E+02  0.61544313031E+01  0.27930047773E+02  0.47000000000E+01 0.  1.
         15    1    6    6    0    0 -0.46805063081E+01 -0.15140950018E+02  0.32164948071E+01  0.16268345785E+02  0.17770000000E+01 0. -1.
        -16    1    6    6    0    0  0.48456326691E+01 -0.97688290425E+02 -0.22893007497E+03  0.24894871253E+03  0.00000000000E+00 0.  1.
<mgrwt>
<rscale>  2 0.19362756E+03</rscale>
<asrwt>0</asrwt>
<pdfrwt beam="1">  1       21 0.94105498E-02 0.19423956E+03</pdfrwt>
<pdfrwt beam="2">  1       21 0.97488708E-01 0.19423956E+03</pdfrwt>
<totfact> 0.78685295E+04</totfact>
</mgrwt>
</event>
<event>
12    2  0.4097182E-002  0.2551949E+03  0.7546771E-02  0.1110142E+00
         21   -1    0    0  503  502  0.00000000000E+00  0.00000000000E+00  0.65278173033E+03  0.65278173033E+03  0.00000000000E+00 0. -1.
         21   -1    0    0  501  503 -0.00000000000E+00 -0.00000000000E+00 -0.10450347064E+03  0.10450347064E+03  0.00000000000E+00 0.  1.
          6    2    1    2  501    0 -0.16187503622E+03 -0.94863564903E+02  0.19160534533E+03  0.31871935475E+03  0.17224051625E+03 0.  0.
         24    2    3    3    0    0 -0.86648604557E+02  0.18845354018E+02  0.84313289654E+02  0.14516126801E+03  0.78102079855E+02 0.  0.
         -6    2    1    2    0  502  0.16187503622E+03  0.94863564903E+02  0.35667291435E+03  0.43856584622E+03  0.17297921939E+03 0.  0.
        -24    2    5    5    0    0  0.10038327414E+03  0.57266928827E+02  0.33413941279E+03  0.36290480908E+03  0.81819621196E+02 0.  0.
          5    1    3    3  501    0 -0.75226431663E+02 -0.11370891892E+03  0.10729205568E+03  0.17355808675E+03  0.47000000000E+01 0. -1.
        -15    1    4    4    0    0 -0.81536677554E+02  0.30294129854E+02  0.94905011514E+02  0.12874813797E+03  0.17770000000E+01 0.  1.
         16    1    4    4    0    0 -0.51119270030E+01 -0.11448775836E+02 -0.10591721860E+02  0.16413130042E+02  0.00000000000E+00 0. -1.
         -5    1    5    5    0  502  0.61491762079E+02  0.37596636076E+02  0.22533501565E+02  0.75661037137E+02  0.47000000000E+01 0.  1.
         15    1    6    6    0    0  0.26926709612E+02  0.43107870490E+02  0.22441090581E+03  0.23010160487E+03  0.17770000000E+01 0. -1.
        -16    1    6    6    0    0  0.73456564528E+02  0.14159058337E+02  0.10972850698E+03  0.13280320421E+03  0.00000000000E+00 0.  1.
<mgrwt>
<rscale>  2 0.25506977E+03</rscale>
<asrwt>0</asrwt>
<pdfrwt beam="1">  1       21 0.10042796E+00 0.25519489E+03</pdfrwt>
<pdfrwt beam="2">  1       21 0.16077457E-01 0.25519489E+03</pdfrwt>
<totfact> 0.27178253E+04</totfact>
</mgrwt>
</event>
<event>
12    2  0.4097182E-002  0.2563870E+03  0.7546771E-02  0.1109371E+00
         21   -1    0    0  503  502  0.00000000000E+00  0.00000000000E+00  0.11705314319E+03  0.11705314319E+03  0.00000000000E+00 0.  1.
         21   -1    0    0  501  503 -0.00000000000E+00 -0.00000000000E+00 -0.81511346228E+03  0.81511346228E+03  0.00000000000E+00 0.  1.
          6    2    1    2  501    0  0.58656407144E+02 -0.18003738609E+03 -0.60935871988E+03  0.66109933444E+03  0.17285903507E+03 0.  0.
         24    2    3    3    0    0  0.89136523050E+01 -0.11931283620E+03 -0.53014159544E+03  0.54947829957E+03  0.81001755586E+02 0.  0.
         -6    2    1    2    0  502 -0.58656407144E+02  0.18003738609E+03 -0.88701599209E+02  0.27106727104E+03  0.17249770211E+03 0.  0.
        -24    2    5    5    0    0 -0.47232031611E+02  0.17805740487E+03 -0.12228339473E+03  0.23523064630E+03  0.80280284613E+02 0.  0.
          5    1    3    3  501    0  0.49742754839E+02 -0.60724549894E+02 -0.79217124446E+02  0.11162103486E+03  0.47000000000E+01 0. -1.
        -15    1    4    4    0    0  0.12235136488E+02 -0.28578737918E+01 -0.18034399022E+03  0.18078987401E+03  0.17770000000E+01 0.  1.
         16    1    4    4    0    0 -0.33214841828E+01 -0.11645496241E+03 -0.34979760522E+03  0.36868842556E+03  0.00000000000E+00 0. -1.
         -5    1    5    5    0  502 -0.11424375533E+02  0.19799812272E+01  0.33581795517E+02  0.35836624731E+02  0.47000000000E+01 0.  1.
         15    1    6    6    0    0 -0.12622023844E+02  0.87928018230E+01 -0.41918115097E+02  0.44686854354E+02  0.17770000000E+01 0. -1.
        -16    1    6    6    0    0 -0.34610007767E+02  0.16926460304E+03 -0.80365279629E+02  0.19054379195E+03  0.00000000000E+00 0.  1.
<mgrwt>
<rscale>  2 0.25632608E+03</rscale>
<asrwt>0</asrwt>
<pdfrwt beam="1">  1       21 0.18008175E-01 0.25638697E+03</pdfrwt>
<pdfrwt beam="2">  1       21 0.12540208E+00 0.25638697E+03</pdfrwt>
<totfact> 0.12757910E+04</totfact>
</mgrwt>
</event>
<event>
12    2  0.4097182E-002  0.1914709E+03  0.7546771E-02  0.1157357E+00
         21   -1    0    0  501  502  0.00000000000E+00  0.00000000000E+00  0.29772868127E+03  0.29772868127E+03  0.00000000000E+00 0.  1.
         21   -1    0    0  502  503 -0.00000000000E+00 -0.00000000000E+00 -0.15977840121E+03  0.15977840121E+03  0.00000000000E+00 0.  1.
         -6    2    1    2    0  503  0.27397358471E+02  0.76687985253E+02 -0.41627978523E+02  0.19500097133E+03  0.17222319208E+03 0.  0.
        -24    2    3    3    0    0  0.58713117110E+02 -0.87477689953E+00 -0.34688456909E+02  0.11093608108E+03  0.87495883832E+02 0.  0.
          6    2    1    2  501    0 -0.27397358471E+02 -0.76687985253E+02  0.17957825858E+03  0.26250611115E+03  0.17329006061E+03 0.  0.
         24    2    5    5    0    0 -0.68380512614E+02 -0.96935642501E+01  0.73572971416E+02  0.13049443638E+03  0.82740293153E+02 0.  0.
          5    1    5    5  501    0  0.40983154143E+02 -0.66994421003E+02  0.10600528716E+03  0.13201167477E+03  0.47000000000E+01 0. -1.
        -15    1    6    6    0    0 -0.44166302213E+02  0.22559834618E+02  0.36330745622E+01  0.49759073031E+02  0.17770000000E+01 0.  1.
         16    1    6    6    0    0 -0.24214210401E+02 -0.32253398868E+02  0.69939896854E+02  0.80735363353E+02  0.00000000000E+00 0. -1.
         -5    1    3    3    0  503 -0.31315758639E+02  0.77562762153E+02 -0.69395216147E+01  0.84064890246E+02  0.47000000000E+01 0.  1.
         15    1    4    4    0    0  0.26922393180E+02  0.43177338423E+02 -0.13990994307E+02  0.52801547880E+02  0.17770000000E+01 0. -1.
        -16    1    4    4    0    0  0.31790723930E+02 -0.44052115322E+02 -0.20697462602E+02  0.58134533201E+02  0.00000000000E+00 0.  1.
<mgrwt>
<rscale>  2 0.19122919E+03</rscale>
<asrwt>0</asrwt>
<pdfrwt beam="1">  1       21 0.45804412E-01 0.19147090E+03</pdfrwt>
<pdfrwt beam="2">  1       21 0.24581293E-01 0.19147090E+03</pdfrwt>
<totfact> 0.71512160E+04</totfact>
</mgrwt>
</event>
<event>
12    2  0.4097182E-002  0.1911173E+03  0.7546771E-02  0.1157896E+00
         21   -1    0    0  501  502  0.00000000000E+00  0.00000000000E+00  0.67263375589E+03  0.67263375589E+03  0.00000000000E+00 0. -1.
         21   -1    0    0  502  503 -0.00000000000E+00 -0.00000000000E+00 -0.61690491374E+02  0.61690491374E+02  0.00000000000E+00 0. -1.
         -6    2    1    2    0  503  0.66684386690E+01  0.79737675817E+02  0.17511478020E+03  0.25921225962E+03  0.17356049168E+03 0.  0.
        -24    2    3    3    0    0 -0.19953537370E+02  0.78368858775E+02  0.38350820986E+02  0.11979535315E+03  0.79626123142E+02 0.  0.
          6    2    1    2  501    0 -0.66684386690E+01 -0.79737675817E+02  0.43582848431E+03  0.47511198764E+03  0.17141285847E+03 0.  0.
         24    2    5    5    0    0  0.34558624852E+02 -0.90640561932E+02  0.18122147161E+03  0.21691561934E+03  0.69290360948E+02 0.  0.
          5    1    5    5  501    0 -0.41227063521E+02  0.10902886115E+02  0.25460701270E+03  0.25819636831E+03  0.47000000000E+01 0. -1.
        -15    1    6    6    0    0  0.35797559142E+02 -0.13255282525E+02  0.36742388395E+02  0.53012532380E+02  0.17770000000E+01 0.  1.
         16    1    6    6    0    0 -0.12389342902E+01 -0.77385279407E+02  0.14447908322E+03  0.16390308696E+03  0.00000000000E+00 0. -1.
         -5    1    3    3    0  503  0.26621976039E+02  0.13688170419E+01  0.13676395922E+03  0.13941690647E+03  0.47000000000E+01 0.  1.
         15    1    4    4    0    0 -0.47842731363E+02  0.48518077345E+02  0.39775173225E+02  0.78918647401E+02  0.17770000000E+01 0. -1.
        -16    1    4    4    0    0  0.27889193993E+02  0.29850781430E+02 -0.14243522383E+01  0.40876705748E+02  0.00000000000E+00 0.  1.
<mgrwt>
<rscale>  2 0.19062834E+03</rscale>
<asrwt>0</asrwt>
<pdfrwt beam="1">  1       21 0.10348211E+00 0.19111727E+03</pdfrwt>
<pdfrwt beam="2">  1       21 0.94908453E-02 0.19111727E+03</pdfrwt>
<totfact> 0.67368867E+04</totfact>
</mgrwt>
</event>
<event>
12    2  0.4097182E-002  0.1897580E+03  0.7546771E-02  0.1158744E+00
         21   -1    0    0  503  502  0.00000000000E+00  0.00000000000E+00  0.28450808351E+03  0.28450808351E+03  0.00000000000E+00 0.  1.
         21   -1    0    0  501  503 -0.00000000000E+00 -0.00000000000E+00 -0.37290781711E+03  0.37290781711E+03  0.00000000000E+00 0.  1.
          6    2    1    2  501    0  0.76514218410E+02  0.15405953479E+02 -0.31148017175E+03  0.36473002707E+03  0.17296336674E+03 0.  0.
         24    2    3    3    0    0 -0.19871034291E+02  0.10446208752E+02 -0.87334569964E+02  0.12064386031E+03  0.80147567884E+02 0.  0.
         -6    2    1    2    0  502 -0.76514218410E+02 -0.15405953479E+02  0.22308043815E+03  0.29268587355E+03  0.17265100541E+03 0.  0.
        -24    2    5    5    0    0 -0.48431452832E+02  0.57654136103E+02  0.13512268822E+03  0.17485092888E+03  0.81517491526E+02 0.  0.
          5    1    3    3  501    0  0.96385252701E+02  0.49597447273E+01 -0.22414560178E+03  0.24408616676E+03  0.47000000000E+01 0. -1.
        -15    1    4    4    0    0  0.31331989801E+01  0.39565456411E+02 -0.21762251131E+02  0.45298957826E+02  0.17770000000E+01 0.  1.
         16    1    4    4    0    0 -0.23004233271E+02 -0.29119247659E+02 -0.65572318832E+02  0.75344902480E+02  0.00000000000E+00 0. -1.
         -5    1    5    5    0  502 -0.28082765578E+02 -0.73060089582E+02  0.87957749933E+02  0.11783494467E+03  0.47000000000E+01 0.  1.
         15    1    6    6    0    0  0.46742027925E+01  0.22703336639E+02  0.99078037486E+02  0.10176887986E+03  0.17770000000E+01 0. -1.
        -16    1    6    6    0    0 -0.53105655625E+02  0.34950799464E+02  0.36044650730E+02  0.73082049019E+02  0.00000000000E+00 0.  1.
<mgrwt>
<rscale>  2 0.18968678E+03</rscale>
<asrwt>0</asrwt>
<pdfrwt beam="1">  1       21 0.43770475E-01 0.18975799E+03</pdfrwt>
<pdfrwt beam="2">  1       21 0.57370433E-01 0.18975799E+03</pdfrwt>
<totfact> 0.14330586E+04</totfact>
</mgrwt>
</event>
<event>
12    2  0.4097182E-002  0.2029027E+03  0.7546771E-02  0.1147953E+00
         21   -1    0    0  503  502  0.00000000000E+00  0.00000000000E+00  0.31283219419E+03  0.31283219419E+03  0.00000000000E+00 0. -1.
         21   -1    0    0  501  503 -0.00000000000E+00 -0.00000000000E+00 -0.13426616053E+03  0.13426616053E+03  0.00000000000E+00 0. -1.
          6    2    1    2  501    0  0.99638827219E+02 -0.20754231963E+02  0.47039195803E+02  0.20529507646E+03  0.17197310384E+03 0.  0.
         24    2    3    3    0    0  0.85046595570E+01 -0.32509002228E+02  0.69552133223E+02  0.11057161849E+03  0.79116490813E+02 0.  0.
         -6    2    1    2    0  502 -0.99638827219E+02  0.20754231963E+02  0.13152683786E+03  0.24180327826E+03  0.17553028875E+03 0.  0.
        -24    2    5    5    0    0 -0.10494907284E+03 -0.28035229918E+02  0.13661671052E+03  0.19223910670E+03  0.80569637856E+02 0.  0.
          5    1    3    3  501    0  0.91134167662E+02  0.11754770265E+02 -0.22512937421E+02  0.94723457975E+02  0.47000000000E+01 0. -1.
        -15    1    4    4    0    0  0.14160503599E+02 -0.53588213339E+02  0.69284435070E+02  0.88745180956E+02  0.17770000000E+01 0.  1.
         16    1    4    4    0    0 -0.56558440419E+01  0.21079211111E+02  0.26769815333E+00  0.21826437529E+02  0.00000000000E+00 0. -1.
         -5    1    5    5    0  502  0.53102456191E+01  0.48789461882E+02 -0.50898726644E+01  0.49564171566E+02  0.47000000000E+01 0.  1.
         15    1    6    6    0    0 -0.26715913218E+02  0.20831143230E+02  0.72077413756E+02  0.79661708808E+02  0.17770000000E+01 0. -1.
        -16    1    6    6    0    0 -0.78233159620E+02 -0.48866373148E+02  0.64539296764E+02  0.11257739789E+03  0.00000000000E+00 0.  1.
<mgrwt>
<rscale>  2 0.20213100E+03</rscale>
<asrwt>0</asrwt>
<pdfrwt beam="1">  1       21 0.48128030E-01 0.20290273E+03</pdfrwt>
<pdfrwt beam="2">  1       21 0.20656332E-01 0.20290273E+03</pdfrwt>
<totfact> 0.89253902E+04</totfact>
</mgrwt>
</event>
<event>
12    2  0.4097182E-002  0.2045149E+03  0.7546771E-02  0.1146131E+00
         21   -1    0    0  501  502  0.00000000000E+00  0.00000000000E+00  0.58623426025E+03  0.58623426025E+03  0.00000000000E+00 0.  1.
         21   -1    0    0  502  503 -0.00000000000E+00 -0.00000000000E+00 -0.27477241713E+03  0.27477241713E+03  0.00000000000E+00 0. -1.
         -6    2    1    2    0  503 -0.83950483728E+02  0.69054768098E+02 -0.21484297541E+03  0.29662072451E+03  0.17323425011E+03 0.  0.
        -24    2    3    3    0    0 -0.16111891909E+02  0.58871728451E+02 -0.20328807222E+03  0.22689716591E+03  0.80192332041E+02 0.  0.
          6    2    1    2  501    0  0.83950483728E+02 -0.69054768098E+02  0.52630481853E+03  0.56438595287E+03  0.17239053652E+03 0.  0.
         24    2    5    5    0    0  0.11493147962E+03 -0.79772613668E+01  0.40634691051E+03  0.42617497780E+03  0.56871946622E+02 0.  0.
          5    1    5    5  501    0 -0.30980995897E+02 -0.61077506731E+02  0.11995790801E+03  0.13821097507E+03  0.47000000000E+01 0. -1.
        -15    1    6    6    0    0  0.42375203820E+02  0.23483929064E+02  0.17980716307E+03  0.18622815696E+03  0.17770000000E+01 0.  1.
         16    1    6    6    0    0  0.72556275804E+02 -0.31461190430E+02  0.22653974744E+03  0.23994682084E+03  0.00000000000E+00 0. -1.
         -5    1    3    3    0  503 -0.67838591818E+02  0.10183039647E+02 -0.11554903187E+02  0.69723558601E+02  0.47000000000E+01 0.  1.
         15    1    4    4    0    0 -0.45203534801E+01 -0.19376689331E+02 -0.59818754736E+02  0.63066083057E+02  0.17770000000E+01 0. -1.
        -16    1    4    4    0    0 -0.11591538429E+02  0.78248417782E+02 -0.14346931749E+03  0.16383108285E+03  0.00000000000E+00 0.  1.
<mgrwt>
<rscale>  2 0.20433614E+03</rscale>
<asrwt>0</asrwt>
<pdfrwt beam="1">  1       21 0.90189886E-01 0.20451491E+03</pdfrwt>
<pdfrwt beam="2">  1       21 0.42272680E-01 0.20451491E+03</pdfrwt>
<totfact> 0.55785915E+03</totfact>
</mgrwt>
</event>
