<event>
12    1  0.1019868E-001  0.3030744E+03  0.7546771E-02  0.1083851E+00
         21   -1    0    0  503  502  0.00000000000E+00  0.00000000000E+00  0.35667071583E+03  0.35667071583E+03  0.00000000000E+00 0. -1.
         21   -1    0    0  501  503 -0.00000000000E+00 -0.00000000000E+00 -0.84088356038E+03  0.84088356038E+03  0.00000000000E+00 0. -1.
          6    2    1    2  501    0  0.10266284880E+03 -0.22269581149E+03 -0.74110003365E+03  0.80025698920E+03  0.17620699166E+03 0.  0.
         24    2    3    3    0    0  0.53929957116E+01 -0.71766786127E+02 -0.16466483729E+03  0.19648499530E+03  0.79449913433E+02 0.  0.
         -6    2    1    2    0  502 -0.10266284880E+03  0.22269581149E+03  0.25688718910E+03  0.39729728701E+03  0.17810396223E+03 0.  0.
        -24    2    5    5    0    0 -0.65918732866E+02  0.23536122611E+03  0.18828470104E+03  0.31831036309E+03  0.78295418141E+02 0.  0.
          5    1    3    3  501    0  0.97269853085E+02 -0.15092902537E+03 -0.57643519636E+03  0.60377199390E+03  0.47000000000E+01 0. -1.
        -11    1    4    4    0    0  0.27358532064E+02 -0.58613833394E+02 -0.58293263151E+02  0.87075687024E+02  0.00000000000E+00 0.  1.
         12    1    4    4    0    0 -0.21965536353E+02 -0.13152952733E+02 -0.10637157414E+03  0.10940930827E+03  0.00000000000E+00 0. -1.
         -5    1    5    5    0  502 -0.36744115930E+02 -0.12665414620E+02  0.68602488053E+02  0.78986923918E+02  0.47000000000E+01 0.  1.
         13    1    6    6    0    0  0.16555597137E+02  0.50431560699E+02  0.27679664801E+02  0.59863126836E+02  0.00000000000E+00 0. -1.
        -14    1    6    6    0    0 -0.82474330004E+02  0.18492966542E+03  0.16060503624E+03  0.25844723625E+03  0.00000000000E+00 0.  1.
<mgrwt>
<rscale>  2 0.30279632E+03</rscale>
<asrwt>0</asrwt>
<pdfrwt beam="1">  1       21 0.54872418E-01 0.30307442E+03</pdfrwt>
<pdfrwt beam="2">  1       21 0.12936670E+00 0.30307442E+03</pdfrwt>
<totfact> 0.12565507E+03</totfact>
</mgrwt>
</event>
<event>
12    1  0.1019868E-001  0.1915458E+03  0.7546771E-02  0.1157254E+00
         21   -1    0    0  503  502  0.00000000000E+00  0.00000000000E+00  0.13813406005E+03  0.13813406005E+03  0.00000000000E+00 0. -1.
         21   -1    0    0  501  503 -0.00000000000E+00 -0.00000000000E+00 -0.39605901154E+03  0.39605901154E+03  0.00000000000E+00 0. -1.
          6    2    1    2  501    0  0.29337722507E+02  0.75355074188E+02 -0.28308365737E+03  0.34179842849E+03  0.17363962532E+03 0.  0.
         24    2    3    3    0    0  0.84062507094E+01  0.61474393741E+01 -0.59982695972E+02  0.10722657979E+03  0.88267545196E+02 0.  0.
         -6    2    1    2    0  502 -0.29337722507E+02 -0.75355074188E+02  0.25158705884E+02  0.19239464310E+03  0.17275314482E+03 0.  0.
        -24    2    5    5    0    0 -0.55238704950E+02 -0.11055164887E+03 -0.64459386189E+01  0.13825959609E+03  0.61653744360E+02 0.  0.
          5    1    3    3  501    0  0.20931471797E+02  0.69207634813E+02 -0.22310096140E+03  0.23457184870E+03  0.47000000000E+01 0. -1.
        -13    1    4    4    0    0 -0.27709709563E+02  0.32154417960E+02 -0.18209580614E+02  0.46187914269E+02  0.00000000000E+00 0.  1.
         14    1    4    4    0    0  0.36115960272E+02 -0.26006978586E+02 -0.41773115358E+02  0.61038665518E+02  0.00000000000E+00 0. -1.
         -5    1    5    5    0  502  0.25900982443E+02  0.35196574682E+02  0.31604644503E+02  0.54135047012E+02  0.47000000000E+01 0.  1.
         13    1    6    6    0    0 -0.34995332781E+02 -0.44187564159E+02  0.25510843372E+02  0.61870972777E+02  0.00000000000E+00 0. -1.
        -14    1    6    6    0    0 -0.20243372168E+02 -0.66364084711E+02 -0.31956781991E+02  0.76388623312E+02  0.00000000000E+00 0.  1.
<mgrwt>
<rscale>  2 0.19134471E+03</rscale>
<asrwt>0</asrwt>
<pdfrwt beam="1">  1       21 0.21251394E-01 0.19154584E+03</pdfrwt>
<pdfrwt beam="2">  1       21 0.60932155E-01 0.19154584E+03</pdfrwt>
<totfact> 0.51673865E+04</totfact>
</mgrwt>
</event>
<event>
12    1  0.1019868E-001  0.1950929E+03  0.7546771E-02  0.1155805E+00
         21   -1    0    0  501  502  0.00000000000E+00  0.00000000000E+00  0.84223476742E+03  0.84223476742E+03  0.00000000000E+00 0.  1.
         21   -1    0    0  502  503 -0.00000000000E+00 -0.00000000000E+00 -0.43381768883E+02  0.43381768883E+02  0.00000000000E+00 0.  1.
         -6    2    1    2    0  503  0.91105099783E+02  0.12594222717E+02  0.41208021436E+03  0.45242556913E+03  0.16254242181E+03 0.  0.
        -24    2    3    3    0    0  0.63246356055E+02 -0.48189537659E+02  0.31394614709E+03  0.33358466588E+03  0.79963822710E+02 0.  0.
          6    2    1    2  501    0 -0.91105099783E+02 -0.12594222717E+02  0.38677278418E+03  0.43319096717E+03  0.17205369454E+03 0.  0.
         24    2    5    5    0    0 -0.37126477164E+02 -0.61285306492E+02  0.30869270297E+03  0.32640565723E+03  0.78199770476E+02 0.  0.
          5    1    5    5  501    0 -0.53978622619E+02  0.48691083775E+02  0.78080081209E+02  0.10678530995E+03  0.47000000000E+01 0. -1.
        -13    1    6    6    0    0 -0.53545412591E+02 -0.68166071441E+02  0.27442589653E+03  0.28779037022E+03  0.00000000000E+00 0.  1.
         14    1    6    6    0    0  0.16418935427E+02  0.68807649486E+01  0.34266806444E+02  0.38615287007E+02  0.00000000000E+00 0. -1.
         -5    1    3    3    0  503  0.27858743729E+02  0.60783760376E+02  0.98134067266E+02  0.11884090325E+03  0.47000000000E+01 0.  1.
         13    1    4    4    0    0 -0.15055709742E+02  0.68800602212E+01  0.58254673312E+02  0.60560850284E+02  0.00000000000E+00 0. -1.
        -14    1    4    4    0    0  0.78302065796E+02 -0.55069597880E+02  0.25569147378E+03  0.27302381560E+03  0.00000000000E+00 0.  1.
<mgrwt>
<rscale>  2 0.19297508E+03</rscale>
<asrwt>0</asrwt>
<pdfrwt beam="1">  1       21 0.12957457E+00 0.19509287E+03</pdfrwt>
<pdfrwt beam="2">  1       21 0.66741189E-02 0.19509287E+03</pdfrwt>
<totfact> 0.71492835E+04</totfact>
</mgrwt>
</event>
<event>
11    1  0.1019868E-001  0.1792808E+03  0.7546771E-02  0.1168632E+00
         21   -1    0    0  501  502  0.00000000000E+00  0.00000000000E+00  0.11874561976E+03  0.11874561976E+03  0.00000000000E+00 0. -1.
         21   -1    0    0  502  503 -0.00000000000E+00 -0.00000000000E+00 -0.27116556653E+03  0.27116556653E+03  0.00000000000E+00 0. -1.
         -6    2    1    2    0  503  0.40516608226E+02  0.24145850126E+02 -0.89585785064E+02  0.19993820664E+03  0.17240955881E+03 0.  0.
          6    2    1    2  501    0 -0.40516608226E+02 -0.24145850126E+02 -0.62834161711E+02  0.18997297964E+03  0.17296526673E+03 0.  0.
         24    2    4    4    0    0  0.34898683338E+02 -0.16202101031E+02 -0.71554973459E+02  0.11349610792E+03  0.79251663132E+02 0.  0.
          5    1    4    4  501    0 -0.75415291564E+02 -0.79437490948E+01  0.87208117480E+01  0.76476871726E+02  0.47000000000E+01 0. -1.
        -11    1    5    5    0    0  0.48560940589E+02 -0.19135363001E+02 -0.13679902345E+02  0.53958009565E+02  0.00000000000E+00 0.  1.
         12    1    5    5    0    0 -0.13662257251E+02  0.29332619700E+01 -0.57875071114E+02  0.59538098352E+02  0.00000000000E+00 0. -1.
         -5    1    3    3    0  503  0.50324742403E+02  0.88887791870E+02 -0.59422399576E+02  0.11826550982E+03  0.47000000000E+01 0.  1.
         13    1    3    3    0    0  0.43766827814E+01  0.25092878566E+01  0.24363470988E+01  0.56024695360E+01  0.00000000000E+00 0. -1.
        -14    1    3    3    0    0 -0.14184816958E+02 -0.67251229601E+02 -0.32599732586E+02  0.76070227288E+02  0.00000000000E+00 0.  1.
<mgrwt>
<rscale>  2 0.17914662E+03</rscale>
<asrwt>0</asrwt>
<pdfrwt beam="1">  1       21 0.18268557E-01 0.17928079E+03</pdfrwt>
<pdfrwt beam="2">  1       21 0.41717779E-01 0.17928079E+03</pdfrwt>
<totfact> 0.15175544E+05</totfact>
</mgrwt>
</event>
<event>
12    1  0.1019868E-001  0.1971421E+03  0.7546771E-02  0.1152436E+00
         21   -1    0    0  503  502  0.00000000000E+00  0.00000000000E+00  0.14916200704E+03  0.14916200704E+03  0.00000000000E+00 0.  1.
         21   -1    0    0  501  503 -0.00000000000E+00 -0.00000000000E+00 -0.27652495428E+03  0.27652495428E+03  0.00000000000E+00 0.  1.
          6    2    1    2  501    0 -0.67125606152E+02 -0.66546952297E+02 -0.98261090469E+01  0.19616586671E+03  0.17161046292E+03 0.  0.
         24    2    3    3    0    0 -0.41991487145E+02 -0.82628171192E+02  0.47374074156E+02  0.13147985201E+03  0.80324024525E+02 0.  0.
         -6    2    1    2    0  502  0.67125606152E+02  0.66546952297E+02 -0.11753683819E+03  0.22952109461E+03  0.17300485738E+03 0.  0.
        -24    2    5    5    0    0  0.81014597797E+02  0.37231802342E+02 -0.14386849821E+03  0.18747673203E+03  0.80621387443E+02 0.  0.
          5    1    3    3  501    0 -0.25134119008E+02  0.16081218895E+02 -0.57200183203E+02  0.64686014701E+02  0.47000000000E+01 0. -1.
        -11    1    4    4    0    0 -0.55734691921E+02 -0.27964030241E+02  0.83254704480E+01  0.62909906446E+02  0.00000000000E+00 0.  1.
         12    1    4    4    0    0  0.13743204776E+02 -0.54664140951E+02  0.39048603708E+02  0.68569945566E+02  0.00000000000E+00 0. -1.
         -5    1    5    5    0  502 -0.13888991644E+02  0.29315149955E+02  0.26331660016E+02  0.42044362582E+02  0.47000000000E+01 0.  1.
         13    1    6    6    0    0  0.46464660054E+01  0.42871250196E+02 -0.43736971681E+02  0.61420325883E+02  0.00000000000E+00 0. -1.
        -14    1    6    6    0    0  0.76368131791E+02 -0.56394478543E+01 -0.10013152653E+03  0.12605640615E+03  0.00000000000E+00 0.  1.
<mgrwt>
<rscale>  2 0.19683580E+03</rscale>
<asrwt>0</asrwt>
<pdfrwt beam="1">  1       21 0.22948001E-01 0.19714214E+03</pdfrwt>
<pdfrwt beam="2">  1       21 0.42542300E-01 0.19714214E+03</pdfrwt>
<totfact> 0.94576035E+04</totfact>
</mgrwt>
</event>
<event>
12    1  0.1019868E-001  0.2087969E+03  0.7546771E-02  0.1142856E+00
         21   -1    0    0  501  502  0.00000000000E+00  0.00000000000E+00  0.48447716021E+02  0.48447716021E+02  0.00000000000E+00 0. -1.
         21   -1    0    0  502  503 -0.00000000000E+00 -0.00000000000E+00 -0.89632518929E+03  0.89632518929E+03  0.00000000000E+00 0. -1.
         -6    2    1    2    0  503  0.27993296160E+02  0.10858134387E+03 -0.39216637724E+03  0.44350575982E+03  0.17415326207E+03 0.  0.
        -24    2    3    3    0    0 -0.19613819903E+02  0.13686887263E+03 -0.24114764158E+03  0.28258537483E+03  0.50838162889E+02 0.  0.
          6    2    1    2  501    0 -0.27993296160E+02 -0.10858134387E+03 -0.45571109603E+03  0.50126714549E+03  0.17613237987E+03 0.  0.
         24    2    5    5    0    0 -0.40659203994E+02 -0.13426209656E+03 -0.27995207214E+03  0.32312885438E+03  0.79747177988E+02 0.  0.
          5    1    5    5  501    0  0.12665907834E+02  0.25680752693E+02 -0.17575902389E+03  0.17813829110E+03  0.47000000000E+01 0. -1.
        -11    1    6    6    0    0 -0.15471610374E+02 -0.16239228766E+02 -0.51754595427E+01  0.23018876166E+02  0.00000000000E+00 0.  1.
         12    1    6    6    0    0 -0.25187593620E+02 -0.11802286780E+03 -0.27477661260E+03  0.30010997822E+03  0.00000000000E+00 0. -1.
         -5    1    3    3    0  503  0.47607116063E+02 -0.28287528758E+02 -0.15101873566E+03  0.16092038499E+03  0.47000000000E+01 0.  1.
         11    1    4    4    0    0 -0.21087361287E+02  0.18188048949E+02 -0.58043961187E+02  0.64378438633E+02  0.00000000000E+00 0. -1.
        -12    1    4    4    0    0  0.14735413839E+01  0.11868082368E+03 -0.18310368039E+03  0.21820693620E+03  0.00000000000E+00 0.  1.
<mgrwt>
<rscale>  2 0.20837896E+03</rscale>
<asrwt>0</asrwt>
<pdfrwt beam="1">  1       21 0.74534947E-02 0.20879691E+03</pdfrwt>
<pdfrwt beam="2">  1       21 0.13789618E+00 0.20879691E+03</pdfrwt>
<totfact> 0.50046156E+04</totfact>
</mgrwt>
</event>
<event>
12    1  0.1019868E-001  0.1786228E+03  0.7546771E-02  0.1169496E+00
         21   -1    0    0  503  502  0.00000000000E+00  0.00000000000E+00  0.24386179105E+02  0.24386179105E+02  0.00000000000E+00 0. -1.
         21   -1    0    0  501  503 -0.00000000000E+00 -0.00000000000E+00 -0.13781400186E+04  0.13781400186E+04  0.00000000000E+00 0. -1.
          6    2    1    2  501    0 -0.15450726332E+02  0.39303932982E+02 -0.84355521060E+03  0.86196284902E+03  0.17207857409E+03 0.  0.
         24    2    3    3    0    0  0.31881779320E+01  0.84425459883E+02 -0.70024218735E+03  0.71048983632E+03  0.85550358361E+02 0.  0.
         -6    2    1    2    0  502  0.15450726332E+02 -0.39303932982E+02 -0.51019862892E+03  0.54056334872E+03  0.17355854611E+03 0.  0.
        -24    2    5    5    0    0  0.39721477645E+02  0.31081632545E+02 -0.20255190886E+03  0.22400088795E+03  0.81272740506E+02 0.  0.
          5    1    3    3  501    0 -0.18638904264E+02 -0.45121526901E+02 -0.14331302325E+03  0.15147301270E+03  0.47000000000E+01 0. -1.
        -13    1    4    4    0    0 -0.23657472576E+02  0.47026788473E+02 -0.16324566704E+03  0.17152359211E+03  0.00000000000E+00 0.  1.
         14    1    4    4    0    0  0.26845650508E+02  0.37398671410E+02 -0.53699652031E+03  0.53896624421E+03  0.00000000000E+00 0. -1.
         -5    1    5    5    0  502 -0.24270751313E+02 -0.70385565527E+02 -0.30764672006E+03  0.31656246077E+03  0.47000000000E+01 0.  1.
         13    1    6    6    0    0  0.38848779161E+02 -0.20338815808E+02 -0.10312656315E+03  0.11206240715E+03  0.00000000000E+00 0. -1.
        -14    1    6    6    0    0  0.87269848373E+00  0.51420448354E+02 -0.99425345713E+02  0.11193848079E+03  0.00000000000E+00 0.  1.
<mgrwt>
<rscale>  2 0.17826226E+03</rscale>
<asrwt>0</asrwt>
<pdfrwt beam="1">  1       21 0.37517196E-02 0.17862277E+03</pdfrwt>
<pdfrwt beam="2">  1       21 0.21202156E+00 0.17862277E+03</pdfrwt>
<totfact> 0.49645697E+04</totfact>
</mgrwt>
</event>
<event>
12    1  0.1019868E-001  0.1892017E+03  0.7546771E-02  0.1159529E+00
         21   -1    0    0  501  502  0.00000000000E+00  0.00000000000E+00  0.14961338479E+03  0.14961338479E+03  0.00000000000E+00 0. -1.
         21   -1    0    0  502  503 -0.00000000000E+00 -0.00000000000E+00 -0.28508207535E+03  0.28508207535E+03  0.00000000000E+00 0.  1.
         -6    2    1    2    0  503 -0.28729322736E+02  0.71489717573E+02 -0.15644349004E+03  0.24433465409E+03  0.17113942827E+03 0.  0.
        -24    2    3    3    0    0 -0.27393971069E+02 -0.18228063196E+02 -0.33945291200E+02  0.92417038026E+02  0.79409912379E+02 0.  0.
          6    2    1    2  501    0  0.28729322736E+02 -0.71489717573E+02  0.20974799479E+02  0.19036080606E+03  0.17280376318E+03 0.  0.
         24    2    5    5    0    0 -0.11082521224E+02 -0.43727610815E+02  0.73753808506E+02  0.11850378633E+03  0.81046880758E+02 0.  0.
          5    1    5    5  501    0  0.39811843960E+02 -0.27762106757E+02 -0.52779009027E+02  0.71857019734E+02  0.47000000000E+01 0. -1.
        -11    1    6    6    0    0 -0.35239883525E+02 -0.25206186610E+02  0.53793321544E+01  0.43659345490E+02  0.00000000000E+00 0.  1.
         12    1    6    6    0    0  0.24157362301E+02 -0.18521424206E+02  0.68374476352E+02  0.74844440838E+02  0.00000000000E+00 0. -1.
         -5    1    3    3    0  503 -0.13353516666E+01  0.89717780768E+02 -0.12249819884E+03  0.15191761606E+03  0.47000000000E+01 0.  1.
         11    1    4    4    0    0 -0.21843425731E+02  0.26920212610E+02  0.15752352026E+01  0.34703234151E+02  0.00000000000E+00 0. -1.
        -12    1    4    4    0    0 -0.55505453385E+01 -0.45148275805E+02 -0.35520526403E+02  0.57713803875E+02  0.00000000000E+00 0.  1.
<mgrwt>
<rscale>  2 0.18882086E+03</rscale>
<asrwt>0</asrwt>
<pdfrwt beam="1">  1       21 0.23017444E-01 0.18920173E+03</pdfrwt>
<pdfrwt beam="2">  1       21 0.43858780E-01 0.18920173E+03</pdfrwt>
<totfact> 0.88645408E+04</totfact>
</mgrwt>
</event>
<event>
12    1  0.1019868E-001  0.1860687E+03  0.7546771E-02  0.1162689E+00
         21   -1    0    0  501  502  0.00000000000E+00  0.00000000000E+00  0.64868291656E+03  0.64868291656E+03  0.00000000000E+00 0. -1.
         21   -1    0    0  502  503 -0.00000000000E+00 -0.00000000000E+00 -0.79037412954E+02  0.79037412954E+02  0.00000000000E+00 0. -1.
         -6    2    1    2    0  503  0.53491845867E+02  0.26803164202E+02  0.75765956233E+02  0.20090310264E+03  0.17618680240E+03 0.  0.
        -24    2    3    3    0    0  0.41191797552E+02  0.56428713682E+02  0.10950386328E+03  0.15411313852E+03  0.82938528300E+02 0.  0.
          6    2    1    2  501    0 -0.53491845867E+02 -0.26803164202E+02  0.49387954737E+03  0.52681722688E+03  0.17331934697E+03 0.  0.
         24    2    5    5    0    0 -0.31195517531E+02 -0.92835539477E+01  0.95247238088E+02  0.12715002656E+03  0.77690077895E+02 0.  0.
          5    1    5    5  501    0 -0.22296328337E+02 -0.17519610254E+02  0.39863230928E+03  0.39966720031E+03  0.47000000000E+01 0. -1.
        -11    1    6    6    0    0  0.17246254175E+02 -0.36585643698E+01  0.70095796623E+02  0.72278897892E+02  0.00000000000E+00 0.  1.
         12    1    6    6    0    0 -0.48441771705E+02 -0.56249895779E+01  0.25151441466E+02  0.54871128670E+02  0.00000000000E+00 0. -1.
         -5    1    3    3    0  503  0.12300048315E+02 -0.29625549480E+02 -0.33737907048E+02  0.46789964122E+02  0.47000000000E+01 0.  1.
         11    1    4    4    0    0  0.63658757591E+02  0.57299905160E+02  0.81821287893E+02  0.11845015704E+03  0.00000000000E+00 0. -1.
        -12    1    4    4    0    0 -0.22466960039E+02 -0.87119147757E+00  0.27682575388E+02  0.35662981481E+02  0.00000000000E+00 0.  1.
<mgrwt>
<rscale>  2 0.18538679E+03</rscale>
<asrwt>0</asrwt>
<pdfrwt beam="1">  1       21 0.99797368E-01 0.18606874E+03</pdfrwt>
<pdfrwt beam="2">  1       21 0.12159602E-01 0.18606874E+03</pdfrwt>
<totfact> 0.47433485E+04</totfact>
</mgrwt>
</event>
<event>
12    1  0.1019868E-001  0.1971475E+03  0.7546771E-02  0.1152187E+00
         21   -1    0    0  501  502  0.00000000000E+00  0.00000000000E+00  0.66077354722E+02  0.66077354722E+02  0.00000000000E+00 0.  1.
         21   -1    0    0  502  503 -0.00000000000E+00 -0.00000000000E+00 -0.11322234846E+04  0.11322234846E+04  0.00000000000E+00 0.  1.
         -6    2    1    2    0  503  0.73701682285E+02 -0.57514435671E+02 -0.94842445951E+03  0.96868039663E+03  0.17347307322E+03 0.  0.
        -24    2    3    3    0    0  0.82574985798E+02 -0.87805897145E+02 -0.54174776349E+03  0.56075352421E+03  0.80158417001E+02 0.  0.
          6    2    1    2  501    0 -0.73701682285E+02  0.57514435671E+02 -0.11772167034E+03  0.22962044267E+03  0.17357219749E+03 0.  0.
         24    2    5    5    0    0  0.99035363174E+01 -0.21273790401E+02 -0.50711656819E+02  0.96542085835E+02  0.78727682619E+02 0.  0.
          5    1    5    5  501    0 -0.83605218602E+02  0.78788226072E+02 -0.67010013524E+02  0.13307835683E+03  0.47000000000E+01 0. -1.
        -13    1    6    6    0    0  0.89868633729E+01 -0.17112585024E+02 -0.72144954168E+02  0.74689347911E+02  0.00000000000E+00 0.  1.
         14    1    6    6    0    0  0.91667294451E+00 -0.41612053770E+01  0.21433297350E+02  0.21852737924E+02  0.00000000000E+00 0. -1.
         -5    1    3    3    0  503 -0.88733035128E+01  0.30291461474E+02 -0.40667669602E+03  0.40792687242E+03  0.47000000000E+01 0.  1.
         11    1    4    4    0    0  0.55279797257E+02 -0.66307629340E+02 -0.49519885689E+03  0.50266735080E+03  0.00000000000E+00 0. -1.
        -12    1    4    4    0    0  0.27295188541E+02 -0.21498267805E+02 -0.46548906599E+02  0.58086173412E+02  0.00000000000E+00 0.  1.
<mgrwt>
<rscale>  2 0.19712573E+03</rscale>
<asrwt>0</asrwt>
<pdfrwt beam="1">  1       21 0.10165746E-01 0.19714755E+03</pdfrwt>
<pdfrwt beam="2">  1       21 0.17418824E+00 0.19714755E+03</pdfrwt>
<totfact> 0.15671939E+04</totfact>
</mgrwt>
</event>
<event>
12    1  0.1019868E-001  0.2132408E+03  0.7546771E-02  0.1139264E+00
         21   -1    0    0  501  502  0.00000000000E+00  0.00000000000E+00  0.45927504931E+03  0.45927504931E+03  0.00000000000E+00 0.  1.
         21   -1    0    0  502  503 -0.00000000000E+00 -0.00000000000E+00 -0.10266757550E+03  0.10266757550E+03  0.00000000000E+00 0.  1.
         -6    2    1    2    0  503  0.11877860107E+03 -0.36075300392E+02  0.12177153494E+03  0.24556043996E+03  0.17338350435E+03 0.  0.
        -24    2    3    3    0    0  0.26721708796E+02 -0.59896751379E+02  0.10224242304E+03  0.14837294511E+03  0.85201802948E+02 0.  0.
          6    2    1    2  501    0 -0.11877860107E+03  0.36075300392E+02  0.23483593887E+03  0.31638218485E+03  0.17187200277E+03 0.  0.
         24    2    5    5    0    0 -0.10477424130E+03  0.48570712671E+02  0.25316692410E+03  0.28972937186E+03  0.80702302906E+02 0.  0.
          5    1    5    5  501    0 -0.14004359774E+02 -0.12495412278E+02 -0.18330985229E+02  0.26652812988E+02  0.47000000000E+01 0. -1.
        -13    1    6    6    0    0 -0.80486292533E+02  0.34393469491E+01  0.10118134193E+03  0.12933497728E+03  0.00000000000E+00 0.  1.
         14    1    6    6    0    0 -0.24287948765E+02  0.45131365722E+02  0.15198558217E+03  0.16039439458E+03  0.00000000000E+00 0. -1.
         -5    1    3    3    0  503  0.92056892277E+02  0.23821450987E+02  0.19529111901E+02  0.97187494846E+02  0.47000000000E+01 0.  1.
         11    1    4    4    0    0  0.51762928779E+02 -0.60530711023E+02  0.61835393106E+02  0.10083146143E+03  0.00000000000E+00 0. -1.
        -12    1    4    4    0    0 -0.25041219983E+02  0.63395964422E+00  0.40407029932E+02  0.47541483685E+02  0.00000000000E+00 0.  1.
<mgrwt>
<rscale>  2 0.21293331E+03</rscale>
<asrwt>0</asrwt>
<pdfrwt beam="1">  1       21 0.70657699E-01 0.21324076E+03</pdfrwt>
<pdfrwt beam="2">  1       21 0.15795012E-01 0.21324076E+03</pdfrwt>
<totfact> 0.64189825E+04</totfact>
</mgrwt>
</event>
<event>
12    1  0.1019868E-001  0.2047624E+03  0.7546771E-02  0.1145853E+00
         21   -1    0    0  503  502  0.00000000000E+00  0.00000000000E+00  0.10042767591E+03  0.10042767591E+03  0.00000000000E+00 0. -1.
         21   -1    0    0  501  503 -0.00000000000E+00 -0.00000000000E+00 -0.53107954504E+03  0.53107954504E+03  0.00000000000E+00 0. -1.
          6    2    1    2  501    0 -0.10174647118E+03  0.38680405195E+02 -0.36194674407E+03  0.41585225356E+03  0.17343336792E+03 0.  0.
         24    2    3    3    0    0 -0.97692898644E+02  0.22813059001E+02 -0.14113367224E+03  0.19438282719E+03  0.88326847345E+02 0.  0.
         -6    2    1    2    0  502  0.10174647118E+03 -0.38680405195E+02 -0.68705125067E+02  0.21565496738E+03  0.17302645059E+03 0.  0.
        -24    2    5    5    0    0 -0.60809115696E+01  0.10744148688E+02  0.50134152824E+01  0.75919344909E+02  0.74740874908E+02 0.  0.
          5    1    3    3  501    0 -0.40535725344E+01  0.15867346194E+02 -0.22081307183E+03  0.22146942637E+03  0.47000000000E+01 0. -1.
        -13    1    4    4    0    0 -0.79805085773E+02  0.52157145911E+02 -0.12269911481E+03  0.15538433756E+03  0.00000000000E+00 0.  1.
         14    1    4    4    0    0 -0.17887812871E+02 -0.29344086910E+02 -0.18434557428E+02  0.38998489630E+02  0.00000000000E+00 0. -1.
         -5    1    5    5    0  502  0.10782738275E+03 -0.49424553883E+02 -0.73718540349E+02  0.13973562247E+03  0.47000000000E+01 0.  1.
         13    1    6    6    0    0  0.95473302519E+01  0.32889451574E+02 -0.19469413048E+02  0.39394486724E+02  0.00000000000E+00 0. -1.
        -14    1    6    6    0    0 -0.15628241822E+02 -0.22145302886E+02  0.24482828331E+02  0.36524858185E+02  0.00000000000E+00 0.  1.
<mgrwt>
<rscale>  2 0.20467624E+03</rscale>
<asrwt>0</asrwt>
<pdfrwt beam="1">  1       21 0.15450412E-01 0.20476243E+03</pdfrwt>
<pdfrwt beam="2">  1       21 0.81704546E-01 0.20476243E+03</pdfrwt>
<totfact> 0.48440098E+04</totfact>
</mgrwt>
</event>
<event>
12    1  0.1019868E-001  0.2258013E+03  0.7546771E-02  0.1129815E+00
         21   -1    0    0  503  502  0.00000000000E+00  0.00000000000E+00  0.25424258585E+02  0.25424258585E+02  0.00000000000E+00 0. -1.
         21   -1    0    0  501  503 -0.00000000000E+00 -0.00000000000E+00 -0.19963677660E+04  0.19963677660E+04  0.00000000000E+00 0.  1.
          6    2    1    2  501    0 -0.10377371027E+03 -0.10103074889E+03 -0.98584841166E+03  0.10113769509E+04  0.17323409260E+03 0.  0.
         24    2    3    3    0    0 -0.73854748974E+02 -0.67358793724E+02 -0.32469534967E+03  0.34867459975E+03  0.78454925778E+02 0.  0.
         -6    2    1    2    0  502  0.10377371027E+03  0.10103074889E+03 -0.98509509579E+03  0.10104150737E+04  0.17190136219E+03 0.  0.
        -24    2    5    5    0    0  0.12321664486E+03  0.11150232959E+03 -0.68110116575E+03  0.70558383976E+03  0.79590488564E+02 0.  0.
          5    1    3    3  501    0 -0.29918961296E+02 -0.33671955165E+02 -0.66115306200E+03  0.66270235113E+03  0.47000000000E+01 0. -1.
        -11    1    4    4    0    0 -0.13038967483E+02  0.11950048694E+02 -0.14800245646E+02  0.23062211689E+02  0.00000000000E+00 0.  1.
         12    1    4    4    0    0 -0.60815781491E+02 -0.79308842418E+02 -0.30989510402E+03  0.32561238806E+03  0.00000000000E+00 0. -1.
         -5    1    5    5    0  502 -0.19442934587E+02 -0.10471580702E+02 -0.30399393004E+03  0.30483123398E+03  0.47000000000E+01 0.  1.
         11    1    6    6    0    0  0.32092712179E+02  0.43491969280E+02 -0.10211106351E+03  0.11553424972E+03  0.00000000000E+00 0. -1.
        -12    1    6    6    0    0  0.91123932678E+02  0.68010360311E+02 -0.57899010223E+03  0.59004959003E+03  0.00000000000E+00 0.  1.
<mgrwt>
<rscale>  2 0.22554570E+03</rscale>
<asrwt>0</asrwt>
<pdfrwt beam="1">  1       21 0.39114227E-02 0.22580134E+03</pdfrwt>
<pdfrwt beam="2">  1       21 0.30713363E+00 0.22580134E+03</pdfrwt>
<totfact> 0.12219897E+04</totfact>
</mgrwt>
</event>
<event>
12    1  0.1019868E-001  0.2184741E+03  0.7546771E-02  0.1135263E+00
         21   -1    0    0  501  502  0.00000000000E+00  0.00000000000E+00  0.11273615913E+03  0.11273615913E+03  0.00000000000E+00 0.  1.
         21   -1    0    0  502  503 -0.00000000000E+00 -0.00000000000E+00 -0.72007312250E+03  0.72007312250E+03  0.00000000000E+00 0. -1.
         -6    2    1    2    0  503 -0.10060937782E+03  0.90267716973E+02 -0.57153630780E+03  0.61142131825E+03  0.17003461307E+03 0.  0.
        -24    2    3    3    0    0 -0.11902270850E+03  0.35752100686E+02 -0.48774709072E+03  0.50966805755E+03  0.80122946342E+02 0.  0.
          6    2    1    2  501    0  0.10060937782E+03 -0.90267716973E+02 -0.35800655574E+02  0.22138796338E+03  0.17164042576E+03 0.  0.
         24    2    5    5    0    0  0.34740718229E+02 -0.58758675938E+02  0.41744777840E+02  0.11477237246E+03  0.82283482556E+02 0.  0.
          5    1    5    5  501    0  0.65868659594E+02 -0.31509041035E+02 -0.77545433414E+02  0.10661559092E+03  0.47000000000E+01 0. -1.
        -11    1    6    6    0    0 -0.14322150500E+02 -0.50036422770E+02  0.38869553946E+01  0.52190765666E+02  0.00000000000E+00 0.  1.
         12    1    6    6    0    0  0.49062868729E+02 -0.87222531674E+01  0.37857822446E+02  0.62581606791E+02  0.00000000000E+00 0. -1.
         -5    1    3    3    0  503  0.18413330673E+02  0.54515616287E+02 -0.83789217077E+02  0.10175326070E+03  0.47000000000E+01 0.  1.
         11    1    4    4    0    0 -0.86699502818E+02  0.57154803502E+02 -0.28692432113E+03  0.30513774170E+03  0.00000000000E+00 0. -1.
        -12    1    4    4    0    0 -0.32323205679E+02 -0.21402702817E+02 -0.20082276960E+03  0.20453031585E+03  0.00000000000E+00 0.  1.
<mgrwt>
<rscale>  2 0.21815862E+03</rscale>
<asrwt>0</asrwt>
<pdfrwt beam="1">  1       21 0.17344024E-01 0.21847413E+03</pdfrwt>
<pdfrwt beam="2">  1       21 0.11078048E+00 0.21847413E+03</pdfrwt>
<totfact> 0.18997756E+04</totfact>
</mgrwt>
</event>
<event>
12    1  0.1019868E-001  0.2059170E+03  0.7546771E-02  0.1145684E+00
         21   -1    0    0  501  502  0.00000000000E+00  0.00000000000E+00  0.64176593817E+03  0.64176593817E+03  0.00000000000E+00 0. -1.
         21   -1    0    0  502  503 -0.00000000000E+00 -0.00000000000E+00 -0.79374800094E+02  0.79374800094E+02  0.00000000000E+00 0. -1.
         -6    2    1    2    0  503 -0.81929914520E+02  0.64325954613E+02  0.12416880462E+03  0.23695004142E+03  0.17284990818E+03 0.  0.
        -24    2    3    3    0    0 -0.52069537522E+02 -0.31774971389E+02  0.53611185313E+02  0.11395614834E+03  0.79943473835E+02 0.  0.
          6    2    1    2  501    0  0.81929914520E+02 -0.64325954613E+02  0.43822233346E+03  0.48419069685E+03  0.17762735724E+03 0.  0.
         24    2    5    5    0    0  0.11702696325E+03 -0.79198706878E+02  0.39085171141E+03  0.42320653970E+03  0.79818353985E+02 0.  0.
          5    1    5    5  501    0 -0.35097048732E+02  0.14872752265E+02  0.47370622053E+02  0.60984157150E+02  0.47000000000E+01 0. -1.
        -13    1    6    6    0    0  0.79733075424E+02 -0.90815182445E+02  0.26127789080E+03  0.28787305692E+03  0.00000000000E+00 0.  1.
         14    1    6    6    0    0  0.37293887828E+02  0.11616475567E+02  0.12957382061E+03  0.13533348278E+03  0.00000000000E+00 0. -1.
         -5    1    3    3    0  503 -0.29860376998E+02  0.96100926002E+02  0.70557619302E+02  0.12299389308E+03  0.47000000000E+01 0.  1.
         11    1    4    4    0    0  0.82941279404E+01 -0.92172727385E+00 -0.15212929513E+02  0.17351523386E+02  0.00000000000E+00 0. -1.
        -12    1    4    4    0    0 -0.60363665463E+02 -0.30853244116E+02  0.68824114826E+02  0.96604624952E+02  0.00000000000E+00 0.  1.
<mgrwt>
<rscale>  2 0.20488259E+03</rscale>
<asrwt>0</asrwt>
<pdfrwt beam="1">  1       21 0.98733218E-01 0.20591702E+03</pdfrwt>
<pdfrwt beam="2">  1       21 0.12211508E-01 0.20591702E+03</pdfrwt>
<totfact> 0.47793467E+04</totfact>
</mgrwt>
</event>
<event>
12    1  0.1019868E-001  0.1918954E+03  0.7546771E-02  0.1157487E+00
         21   -1    0    0  503  502  0.00000000000E+00  0.00000000000E+00  0.12695309768E+04  0.12695309768E+04  0.00000000000E+00 0. -1.
         21   -1    0    0  501  503 -0.00000000000E+00 -0.00000000000E+00 -0.30542256523E+02  0.30542256523E+02  0.00000000000E+00 0. -1.
          6    2    1    2  501    0 -0.26447047850E+02 -0.70138885809E+02  0.44734746873E+03  0.48550604592E+03  0.17313998153E+03 0.  0.
         24    2    3    3    0    0 -0.63586572735E+01  0.29539607244E+02  0.16885004185E+03  0.18898917930E+03  0.79331912498E+02 0.  0.
         -6    2    1    2    0  502  0.26447047850E+02  0.70138885809E+02  0.79164125156E+03  0.81456718741E+03  0.17664914944E+03 0.  0.
        -24    2    5    5    0    0  0.41426791348E+02  0.11008499620E+03  0.66643739614E+03  0.68221092627E+03  0.86244185451E+02 0.  0.
          5    1    3    3  501    0 -0.20088390576E+02 -0.99678493052E+02  0.27849742687E+03  0.29651686661E+03  0.47000000000E+01 0. -1.
        -13    1    4    4    0    0 -0.41469614356E+02  0.26559853438E+02  0.89157574121E+02  0.10185395305E+03  0.00000000000E+00 0.  1.
         14    1    4    4    0    0  0.35110957082E+02  0.29797538056E+01  0.79692467734E+02  0.87135226249E+02  0.00000000000E+00 0. -1.
         -5    1    5    5    0  502 -0.14979743498E+02 -0.39946110394E+02  0.12520385542E+03  0.13235626114E+03  0.47000000000E+01 0.  1.
         11    1    6    6    0    0 -0.27289363174E+01  0.36170708921E+02  0.41214314513E+03  0.41373631621E+03  0.00000000000E+00 0. -1.
        -12    1    6    6    0    0  0.44155727665E+02  0.73914287282E+02  0.25429425101E+03  0.26847461006E+03  0.00000000000E+00 0.  1.
<mgrwt>
<rscale>  2 0.19108389E+03</rscale>
<asrwt>0</asrwt>
<pdfrwt beam="1">  1       21 0.19531242E+00 0.19189537E+03</pdfrwt>
<pdfrwt beam="2">  1       21 0.46988097E-02 0.19189537E+03</pdfrwt>
<totfact> 0.43042389E+04</totfact>
</mgrwt>
</event>
<event>
12    1  0.1019868E-001  0.2385612E+03  0.7546771E-02  0.1120817E+00
         21   -1    0    0  503  502  0.00000000000E+00  0.00000000000E+00  0.17922553441E+03  0.17922553441E+03  0.00000000000E+00 0.  1.
         21   -1    0    0  501  503 -0.00000000000E+00 -0.00000000000E+00 -0.42101443700E+03  0.42101443700E+03  0.00000000000E+00 0. -1.
          6    2    1    2  501    0  0.62472347285E+02  0.15170134256E+03 -0.26996286518E+03  0.36002086146E+03  0.17268173210E+03 0.  0.
         24    2    3    3    0    0  0.37226773433E+02  0.44887506129E+02 -0.40668789057E+02  0.10576823513E+03  0.78308673158E+02 0.  0.
         -6    2    1    2    0  502 -0.62472347285E+02 -0.15170134256E+03  0.28173962587E+02  0.24021910995E+03  0.17319167736E+03 0.  0.
        -24    2    5    5    0    0  0.11531681629E+02 -0.51973885320E+02  0.52020463350E+02  0.11367699198E+03  0.85918947043E+02 0.  0.
          5    1    3    3  501    0  0.25245573852E+02  0.10681383643E+03 -0.22929407612E+03  0.25425262633E+03  0.47000000000E+01 0. -1.
        -11    1    4    4    0    0  0.27739055666E+02  0.65176077010E+02 -0.43605074258E+02  0.83179196466E+02  0.00000000000E+00 0.  1.
         12    1    4    4    0    0  0.94877177669E+01 -0.20288570881E+02  0.29362852011E+01  0.22589038661E+02  0.00000000000E+00 0. -1.
         -5    1    5    5    0  502 -0.74004028914E+02 -0.99727457237E+02 -0.23846500762E+02  0.12654211797E+03  0.47000000000E+01 0.  1.
         11    1    6    6    0    0 -0.13141862439E+02  0.20550364291E+02  0.10694198162E+02  0.26634411861E+02  0.00000000000E+00 0. -1.
        -12    1    6    6    0    0  0.24673544067E+02 -0.72524249611E+02  0.41326265188E+02  0.87042580114E+02  0.00000000000E+00 0.  1.
<mgrwt>
<rscale>  2 0.23846866E+03</rscale>
<asrwt>0</asrwt>
<pdfrwt beam="1">  1       21 0.27573159E-01 0.23856121E+03</pdfrwt>
<pdfrwt beam="2">  1       21 0.64771451E-01 0.23856121E+03</pdfrwt>
<totfact> 0.26903590E+04</totfact>
</mgrwt>
</event>
<event>
12    1  0.1019868E-001  0.1748327E+03  0.7546771E-02  0.1173541E+00
         21   -1    0    0  503  502  0.00000000000E+00  0.00000000000E+00  0.38096876499E+02  0.38096876499E+02  0.00000000000E+00 0.  1.
         21   -1    0    0  501  503 -0.00000000000E+00 -0.00000000000E+00 -0.10877297895E+04  0.10877297895E+04  0.00000000000E+00 0.  1.
          6    2    1    2  501    0  0.19330907043E+02 -0.17571104726E+02 -0.82171852859E+03  0.84011177914E+03  0.17286999025E+03 0.  0.
         24    2    3    3    0    0 -0.29078606021E+02 -0.63707429310E+02 -0.56868056722E+03  0.57834405519E+03  0.78613337117E+02 0.  0.
         -6    2    1    2    0  502 -0.19330907043E+02  0.17571104726E+02 -0.22791438441E+03  0.28571488686E+03  0.17031031168E+03 0.  0.
        -24    2    5    5    0    0 -0.23551043340E+01 -0.40716011160E+02 -0.19645496050E+03  0.21717766260E+03  0.83115856181E+02 0.  0.
          5    1    3    3  501    0  0.48409513065E+02  0.46136324584E+02 -0.25303796137E+03  0.26176772394E+03  0.47000000000E+01 0. -1.
        -11    1    4    4    0    0 -0.77588272789E+01 -0.50811719549E+02 -0.14339310977E+03  0.15232732576E+03  0.00000000000E+00 0.  1.
         12    1    4    4    0    0 -0.21319778742E+02 -0.12895709761E+02 -0.42528745745E+03  0.42601672943E+03  0.00000000000E+00 0. -1.
         -5    1    5    5    0  502 -0.16975802709E+02  0.58287115886E+02 -0.31459423911E+02  0.68537224256E+02  0.47000000000E+01 0.  1.
         11    1    6    6    0    0  0.19182023482E+02 -0.46686991360E+02 -0.57814183510E+02  0.76747019499E+02  0.00000000000E+00 0. -1.
        -12    1    6    6    0    0 -0.21537127816E+02  0.59709801998E+01 -0.13864077699E+03  0.14043064310E+03  0.00000000000E+00 0.  1.
<mgrwt>
<rscale>  2 0.17419657E+03</rscale>
<asrwt>0</asrwt>
<pdfrwt beam="1">  1       21 0.58610579E-02 0.17483267E+03</pdfrwt>
<pdfrwt beam="2">  1       21 0.16734305E+00 0.17483267E+03</pdfrwt>
<totfact> 0.46227686E+04</totfact>
</mgrwt>
</event>
<event>
12    1  0.1019868E-001  0.2958187E+03  0.7546771E-02  0.1088394E+00
         21   -1    0    0  503  502  0.00000000000E+00  0.00000000000E+00  0.94664660041E+02  0.94664660041E+02  0.00000000000E+00 0. -1.
         21   -1    0    0  501  503 -0.00000000000E+00 -0.00000000000E+00 -0.13161364918E+04  0.13161364918E+04  0.00000000000E+00 0.  1.
          6    2    1    2  501    0 -0.97392188719E+02  0.22359047396E+03 -0.10134748521E+04  0.10557651230E+04  0.16742395457E+03 0.  0.
         24    2    3    3    0    0 -0.82272849736E+02  0.16567169363E+03 -0.93690113086E+03  0.95845734162E+03  0.81491194725E+02 0.  0.
         -6    2    1    2    0  502  0.97392188719E+02 -0.22359047396E+03 -0.20799697965E+03  0.35503602887E+03  0.15267579960E+03 0.  0.
        -24    2    5    5    0    0  0.50871386542E+02 -0.12466986038E+03 -0.53566428596E+02  0.16577335974E+03  0.80504487278E+02 0.  0.
          5    1    3    3  501    0 -0.15119338983E+02  0.57918780330E+02 -0.76573721226E+02  0.97307781337E+02  0.47000000000E+01 0. -1.
        -13    1    4    4    0    0 -0.72256306545E+02  0.13646211963E+03 -0.57931673634E+03  0.59954212940E+03  0.00000000000E+00 0.  1.
         14    1    4    4    0    0 -0.10016543192E+02  0.29209573992E+02 -0.35758439453E+03  0.35891521221E+03  0.00000000000E+00 0. -1.
         -5    1    5    5    0  502  0.46520802177E+02 -0.98920613579E+02 -0.15443055105E+03  0.18926266913E+03  0.47000000000E+01 0.  1.
         13    1    6    6    0    0  0.12110194477E+02 -0.11618227109E+03 -0.34838866914E+02  0.12189636407E+03  0.00000000000E+00 0. -1.
        -14    1    6    6    0    0  0.38761192065E+02 -0.84875892841E+01 -0.18727561682E+02  0.43876995666E+02  0.00000000000E+00 0.  1.
<mgrwt>
<rscale>  2 0.29377516E+03</rscale>
<asrwt>0</asrwt>
<pdfrwt beam="1">  1       21 0.14563796E-01 0.29581873E+03</pdfrwt>
<pdfrwt beam="2">  1       21 0.20248251E+00 0.29581873E+03</pdfrwt>
<totfact> 0.49550216E+03</totfact>
</mgrwt>
</event>
<event>
12    1  0.1019868E-001  0.1893890E+03  0.7546771E-02  0.1159079E+00
         21   -1    0    0  503  502  0.00000000000E+00  0.00000000000E+00  0.10810566472E+04  0.10810566472E+04  0.00000000000E+00 0. -1.
         21   -1    0    0  501  503 -0.00000000000E+00 -0.00000000000E+00 -0.37184902602E+02  0.37184902602E+02  0.00000000000E+00 0. -1.
          6    2    1    2  501    0  0.18499618369E+02  0.72112800772E+02  0.33691269376E+03  0.38635405119E+03  0.17382979531E+03 0.  0.
         24    2    3    3    0    0  0.48828393883E+02 -0.51889006194E+01  0.24391872216E+03  0.26159285363E+03  0.80767204430E+02 0.  0.
         -6    2    1    2    0  502 -0.18499618369E+02 -0.72112800772E+02  0.70695905087E+03  0.73188749865E+03  0.17414281253E+03 0.  0.
        -24    2    5    5    0    0 -0.55391516083E+02 -0.10216422227E+03  0.54177223035E+03  0.55991983970E+03  0.80543956594E+02 0.  0.
          5    1    3    3  501    0 -0.30328775514E+02  0.77301701391E+02  0.92993971604E+02  0.12476119756E+03  0.47000000000E+01 0. -1.
        -13    1    4    4    0    0 -0.54892557238E+01 -0.32580386791E+02  0.71715093735E+02  0.78959915155E+02  0.00000000000E+00 0.  1.
         14    1    4    4    0    0  0.54317649607E+02  0.27391486171E+02  0.17220362842E+03  0.18263293847E+03  0.00000000000E+00 0. -1.
         -5    1    5    5    0  502  0.36891897713E+02  0.30051421498E+02  0.16518682052E+03  0.17196765895E+03  0.47000000000E+01 0.  1.
         13    1    6    6    0    0 -0.29542132710E+02  0.36209918895E+01  0.76795140066E+02  0.82361051020E+02  0.00000000000E+00 0. -1.
        -14    1    6    6    0    0 -0.25849383373E+02 -0.10578521416E+03  0.46497709029E+03  0.47755878868E+03  0.00000000000E+00 0.  1.
<mgrwt>
<rscale>  2 0.18931706E+03</rscale>
<asrwt>0</asrwt>
<pdfrwt beam="1">  1       21 0.16631638E+00 0.18938905E+03</pdfrwt>
<pdfrwt beam="2">  1       21 0.57207551E-02 0.18938905E+03</pdfrwt>
<totfact> 0.48563836E+04</totfact>
</mgrwt>
</event>
<event>
12    1  0.1019868E-001  0.3473381E+03  0.7546771E-02  0.1063765E+00
         21   -1    0    0  503  502  0.00000000000E+00  0.00000000000E+00  0.23161495653E+03  0.23161495653E+03  0.00000000000E+00 0.  1.
         21   -1    0    0  501  503 -0.00000000000E+00 -0.00000000000E+00 -0.52271238462E+03  0.52271238462E+03  0.00000000000E+00 0. -1.
          6    2    1    2  501    0 -0.21645670277E+03  0.20953653360E+03 -0.11915535631E+03  0.36720808489E+03  0.17287196298E+03 0.  0.
         24    2    3    3    0    0 -0.22195668159E+03  0.22748483114E+03 -0.11416540421E+03  0.34722357154E+03  0.80723925914E+02 0.  0.
         -6    2    1    2    0  502  0.21645670277E+03 -0.20953653360E+03 -0.17194207177E+03  0.38711925626E+03  0.17186674908E+03 0.  0.
        -24    2    5    5    0    0  0.47814612404E+02 -0.41083704365E+02 -0.22764699505E+02  0.10588538790E+03  0.81971799438E+02 0.  0.
          5    1    3    3  501    0  0.54999788180E+01 -0.17948297544E+02 -0.49899520988E+01  0.19984513346E+02  0.47000000000E+01 0. -1.
        -13    1    4    4    0    0 -0.11176307337E+03  0.66266902343E+02 -0.23983626530E+02  0.13212683776E+03  0.00000000000E+00 0.  1.
         14    1    4    4    0    0 -0.11019360822E+03  0.16121792880E+03 -0.90181777683E+02  0.21509673379E+03  0.00000000000E+00 0. -1.
         -5    1    5    5    0  502  0.16864209037E+03 -0.16845282923E+03 -0.14917737227E+03  0.28123386837E+03  0.47000000000E+01 0.  1.
         13    1    6    6    0    0  0.50946985947E+02 -0.10813269623E+02 -0.44487481619E+02  0.68495680140E+02  0.00000000000E+00 0. -1.
        -14    1    6    6    0    0 -0.31323735433E+01 -0.30270434742E+02  0.21722782114E+02  0.37389707758E+02  0.00000000000E+00 0.  1.
<mgrwt>
<rscale>  2 0.34721326E+03</rscale>
<asrwt>0</asrwt>
<pdfrwt beam="1">  1       21 0.35633070E-01 0.34733813E+03</pdfrwt>
<pdfrwt beam="2">  1       21 0.80417290E-01 0.34733813E+03</pdfrwt>
<totfact> 0.95168590E+03</totfact>
</mgrwt>
</event>
<event>
12    1  0.1019868E-001  0.2132741E+03  0.7546771E-02  0.1139495E+00
         21   -1    0    0  501  502  0.00000000000E+00  0.00000000000E+00  0.22208242741E+03  0.22208242741E+03  0.00000000000E+00 0. -1.
         21   -1    0    0  502  503 -0.00000000000E+00 -0.00000000000E+00 -0.20257518707E+03  0.20257518707E+03  0.00000000000E+00 0. -1.
         -6    2    1    2    0  503  0.12088546655E+03  0.30203230355E+02  0.16206980541E+02  0.21135801596E+03  0.16995297452E+03 0.  0.
        -24    2    3    3    0    0  0.15238638273E+03  0.15111830172E+02  0.25738455199E+02  0.17484778330E+03  0.80369784116E+02 0.  0.
          6    2    1    2  501    0 -0.12088546655E+03 -0.30203230355E+02  0.33002598019E+01  0.21329959852E+03  0.17309042685E+03 0.  0.
         24    2    5    5    0    0 -0.14779949498E+03 -0.96442399083E+01 -0.23512543070E+02  0.16984786193E+03  0.79735528095E+02 0.  0.
          5    1    5    5  501    0  0.26914028436E+02 -0.20558990447E+02  0.26812802872E+02  0.43451736590E+02  0.47000000000E+01 0. -1.
        -11    1    6    6    0    0 -0.26425333866E+02  0.13526863935E+02 -0.34829865419E+02  0.45764547883E+02  0.00000000000E+00 0.  1.
         12    1    6    6    0    0 -0.12137416112E+03 -0.23171103844E+02  0.11317322349E+02  0.12408331405E+03  0.00000000000E+00 0. -1.
         -5    1    3    3    0  503 -0.31500916178E+02  0.15091400183E+02 -0.95314746583E+01  0.36510232658E+02  0.47000000000E+01 0.  1.
         13    1    4    4    0    0  0.63746603584E+02  0.31512455410E+02 -0.19853735124E+02  0.73829771182E+02  0.00000000000E+00 0. -1.
        -14    1    4    4    0    0  0.88639779142E+02 -0.16400625238E+02  0.45592190324E+02  0.10101801212E+03  0.00000000000E+00 0.  1.
<mgrwt>
<rscale>  2 0.21263663E+03</rscale>
<asrwt>0</asrwt>
<pdfrwt beam="1">  1       21 0.34166527E-01 0.21327407E+03</pdfrwt>
<pdfrwt beam="2">  1       21 0.31165413E-01 0.21327407E+03</pdfrwt>
<totfact> 0.80943240E+04</totfact>
</mgrwt>
</event>
<event>
12    1  0.1019868E-001  0.1877900E+03  0.7546771E-02  0.1160472E+00
         21   -1    0    0  501  502  0.00000000000E+00  0.00000000000E+00  0.23808943568E+04  0.23808943568E+04  0.00000000000E+00 0.  1.
         21   -1    0    0  502  503 -0.00000000000E+00 -0.00000000000E+00 -0.16591855395E+02  0.16591855395E+02  0.00000000000E+00 0.  1.
         -6    2    1    2    0  503 -0.41060655547E+02  0.60672027208E+02  0.78943350821E+03  0.81146186470E+03  0.17291044407E+03 0.  0.
        -24    2    3    3    0    0  0.42483676923E+02  0.32962329398E+02  0.45833479553E+03  0.46883096946E+03  0.82706197866E+02 0.  0.
          6    2    1    2  501    0  0.41060655547E+02 -0.60672027208E+02  0.15748689932E+04  0.15860243475E+04  0.17289827292E+03 0.  0.
         24    2    5    5    0    0 -0.13564943482E+02 -0.49086183617E+02  0.47563854509E+03  0.48536642793E+03  0.82189309977E+02 0.  0.
          5    1    5    5  501    0  0.54625599028E+02 -0.11585843591E+02  0.10992304481E+04  0.11006579196E+04  0.47000000000E+01 0. -1.
        -13    1    6    6    0    0  0.76319728544E+01 -0.66476707821E+02  0.28398871542E+03  0.29176529981E+03  0.00000000000E+00 0.  1.
         14    1    6    6    0    0 -0.21196916336E+02  0.17390524204E+02  0.19164982967E+03  0.19360112811E+03  0.00000000000E+00 0. -1.
         -5    1    3    3    0  503 -0.83544332470E+02  0.27709697811E+02  0.33109871268E+03  0.34263089525E+03  0.47000000000E+01 0.  1.
         11    1    4    4    0    0  0.56053115149E+02  0.21932996928E+02  0.43754154509E+03  0.44166232775E+03  0.00000000000E+00 0. -1.
        -12    1    4    4    0    0 -0.13569438226E+02  0.11029332469E+02  0.20793250438E+02  0.27168641708E+02  0.00000000000E+00 0.  1.
<mgrwt>
<rscale>  2 0.18778722E+03</rscale>
<asrwt>0</asrwt>
<pdfrwt beam="1">  1       21 0.36629117E+00 0.18779003E+03</pdfrwt>
<pdfrwt beam="2">  1       21 0.25525950E-02 0.18779003E+03</pdfrwt>
<totfact> 0.11623748E+04</totfact>
</mgrwt>
</event>
<event>
12    1  0.1019868E-001  0.1729559E+03  0.7546771E-02  0.1174918E+00
         21   -1    0    0  503  502  0.00000000000E+00  0.00000000000E+00  0.30225404133E+03  0.30225404133E+03  0.00000000000E+00 0.  1.
         21   -1    0    0  501  503 -0.00000000000E+00 -0.00000000000E+00 -0.11723921509E+03  0.11723921509E+03  0.00000000000E+00 0.  1.
          6    2    1    2  501    0 -0.93640253915E+01  0.77982610071E+01  0.92157055432E+01  0.17320121828E+03  0.17252604133E+03 0.  0.
         24    2    3    3    0    0  0.45661112846E+02 -0.32211292672E+02 -0.19555116850E+02  0.99185135940E+02  0.79578791110E+02 0.  0.
         -6    2    1    2    0  502  0.93640253915E+01 -0.77982610071E+01  0.17579912070E+03  0.24629203815E+03  0.17206376542E+03 0.  0.
        -24    2    5    5    0    0 -0.51895256570E+01 -0.20898939053E+02  0.19904184386E+03  0.21553902540E+03  0.79848099744E+02 0.  0.
          5    1    3    3  501    0 -0.55025138238E+02  0.40009553680E+02  0.28770822393E+02  0.74016082339E+02  0.47000000000E+01 0. -1.
        -11    1    4    4    0    0  0.38631600358E+02 -0.24807154733E+01  0.24323638054E+02  0.45718638034E+02  0.00000000000E+00 0.  1.
         12    1    4    4    0    0  0.70295124882E+01 -0.29730577199E+02 -0.43878754904E+02  0.53466497906E+02  0.00000000000E+00 0. -1.
         -5    1    5    5    0  502  0.14553551048E+02  0.13100678046E+02 -0.23242723162E+02  0.30753012752E+02  0.47000000000E+01 0.  1.
         11    1    6    6    0    0 -0.33371279268E+02 -0.21140060156E+02  0.17200996284E+03  0.17648787986E+03  0.00000000000E+00 0. -1.
        -12    1    6    6    0    0  0.28181753611E+02  0.24112110352E+00  0.27031881022E+02  0.39051145535E+02  0.00000000000E+00 0.  1.
<mgrwt>
<rscale>  2 0.17284047E+03</rscale>
<asrwt>0</asrwt>
<pdfrwt beam="1">  1       21 0.46500622E-01 0.17295587E+03</pdfrwt>
<pdfrwt beam="2">  1       21 0.18036802E-01 0.17295587E+03</pdfrwt>
<totfact> 0.12475131E+05</totfact>
</mgrwt>
</event>
<event>
12    1  0.1019868E-001  0.2195690E+03  0.7546771E-02  0.1134250E+00
         21   -1    0    0  501  502  0.00000000000E+00  0.00000000000E+00  0.66363583177E+02  0.66363583177E+02  0.00000000000E+00 0. -1.
         21   -1    0    0  502  503 -0.00000000000E+00 -0.00000000000E+00 -0.74065921564E+03  0.74065921564E+03  0.00000000000E+00 0.  1.
         -6    2    1    2    0  503  0.10461021276E+03 -0.85942280579E+02 -0.39476334949E+03  0.45171741847E+03  0.17286165521E+03 0.  0.
        -24    2    3    3    0    0  0.38753244644E+02 -0.47629021411E+02 -0.34957459412E+03  0.36300913425E+03  0.76176748712E+02 0.  0.
          6    2    1    2  501    0 -0.10461021276E+03  0.85942280579E+02 -0.27953228297E+03  0.35530538034E+03  0.17255214827E+03 0.  0.
         24    2    5    5    0    0 -0.27379779919E+02  0.10219752985E+03 -0.21456471692E+03  0.25297431212E+03  0.82243524902E+02 0.  0.
          5    1    5    5  501    0 -0.77230432843E+02 -0.16255249269E+02 -0.64967566045E+02  0.10233106822E+03  0.47000000000E+01 0. -1.
        -11    1    6    6    0    0 -0.33811373943E+02  0.82903726861E+01 -0.92488167710E+02  0.98823076523E+02  0.00000000000E+00 0.  1.
         12    1    6    6    0    0  0.64315940239E+01  0.93907157161E+02 -0.12207654921E+03  0.15415123560E+03  0.00000000000E+00 0. -1.
         -5    1    3    3    0  503  0.65856968118E+02 -0.38313259168E+02 -0.45188755377E+02  0.88708284226E+02  0.47000000000E+01 0.  1.
         11    1    4    4    0    0  0.21311336742E+02  0.19064138174E+02 -0.89738970632E+02  0.94184379215E+02  0.00000000000E+00 0. -1.
        -12    1    4    4    0    0  0.17441907902E+02 -0.66693159584E+02 -0.25983562348E+03  0.26882475503E+03  0.00000000000E+00 0.  1.
<mgrwt>
<rscale>  2 0.21950803E+03</rscale>
<asrwt>0</asrwt>
<pdfrwt beam="1">  1       21 0.10209783E-01 0.21956895E+03</pdfrwt>
<pdfrwt beam="2">  1       21 0.11394756E+00 0.21956895E+03</pdfrwt>
<totfact> 0.46245150E+04</totfact>
</mgrwt>
</event>
<event>
12    1  0.1019868E-001  0.3632678E+03  0.7546771E-02  0.1057299E+00
         21   -1    0    0  503  502  0.00000000000E+00  0.00000000000E+00  0.36830707727E+03  0.36830707727E+03  0.00000000000E+00 0.  1.
         21   -1    0    0  501  503 -0.00000000000E+00 -0.00000000000E+00 -0.51877783830E+03  0.51877783830E+03  0.00000000000E+00 0. -1.
          6    2    1    2  501    0 -0.10783362923E+03 -0.30140031045E+03 -0.32193936529E+03  0.48539517688E+03  0.17173608847E+03 0.  0.
         24    2    3    3    0    0 -0.36471535644E+02 -0.15845173916E+03 -0.92319889399E+02  0.20562020276E+03  0.85554539617E+02 0.  0.
         -6    2    1    2    0  502  0.10783362923E+03  0.30140031045E+03  0.17146860426E+03  0.40168973870E+03  0.17170592651E+03 0.  0.
        -24    2    5    5    0    0  0.64053404328E+02  0.27331324706E+03  0.92292587987E+02  0.30683973725E+03  0.82642198265E+02 0.  0.
          5    1    3    3  501    0 -0.71362093582E+02 -0.14294857129E+03 -0.22961947589E+03  0.27977497412E+03  0.47000000000E+01 0. -1.
        -13    1    4    4    0    0 -0.90839086907E+01 -0.15585292079E+03 -0.76007835555E+02  0.17363709679E+03  0.00000000000E+00 0.  1.
         14    1    4    4    0    0 -0.27387626954E+02 -0.25988183750E+01 -0.16312053844E+02  0.31983105973E+02  0.00000000000E+00 0. -1.
         -5    1    5    5    0  502  0.43780224899E+02  0.28087063390E+02  0.79176016270E+02  0.94850001447E+02  0.47000000000E+01 0.  1.
         13    1    6    6    0    0  0.14219591692E+02  0.72350014874E+02 -0.12492133532E+02  0.74784857025E+02  0.00000000000E+00 0. -1.
        -14    1    6    6    0    0  0.49833812636E+02  0.20096323219E+03  0.10478472152E+03  0.23205488023E+03  0.00000000000E+00 0.  1.
<mgrwt>
<rscale>  2 0.36326427E+03</rscale>
<asrwt>0</asrwt>
<pdfrwt beam="1">  1       21 0.56662628E-01 0.36326784E+03</pdfrwt>
<pdfrwt beam="2">  1       21 0.79811975E-01 0.36326784E+03</pdfrwt>
<totfact> 0.36579896E+03</totfact>
</mgrwt>
</event>
<event>
12    1  0.1019868E-001  0.2176414E+03  0.7546771E-02  0.1135691E+00
         21   -1    0    0  501  502  0.00000000000E+00  0.00000000000E+00  0.69400152096E+03  0.69400152096E+03  0.00000000000E+00 0.  1.
         21   -1    0    0  502  503 -0.00000000000E+00 -0.00000000000E+00 -0.15852775607E+03  0.15852775607E+03  0.00000000000E+00 0.  1.
         -6    2    1    2    0  503  0.97493780350E+02  0.88445894261E+02 -0.54093853612E+02  0.22407262845E+03  0.17307421647E+03 0.  0.
        -24    2    3    3    0    0  0.24150192097E+02  0.61936636105E+02  0.27054810580E+02  0.11142619750E+03  0.85231778371E+02 0.  0.
          6    2    1    2  501    0 -0.97493780350E+02 -0.88445894261E+02  0.58956761850E+03  0.62845664857E+03  0.17332071118E+03 0.  0.
         24    2    5    5    0    0 -0.21041526332E+00 -0.24149246192E+02  0.14927962929E+03  0.17296382149E+03  0.83957402634E+02 0.  0.
          5    1    5    5  501    0 -0.97283365086E+02 -0.64296648069E+02  0.44028798921E+03  0.45549282708E+03  0.47000000000E+01 0. -1.
        -13    1    6    6    0    0 -0.14917665686E+02 -0.26991648310E+02  0.15415609823E+03  0.15721064993E+03  0.00000000000E+00 0.  1.
         14    1    6    6    0    0  0.14707250422E+02  0.28424021184E+01 -0.48764689465E+01  0.15753171559E+02  0.00000000000E+00 0. -1.
         -5    1    3    3    0  503  0.73343588253E+02  0.26509258156E+02 -0.81148664192E+02  0.11264643095E+03  0.47000000000E+01 0.  1.
         13    1    4    4    0    0  0.44614458873E+02  0.47904803376E+02 -0.10616223942E+02  0.66317602021E+02  0.00000000000E+00 0. -1.
        -14    1    4    4    0    0 -0.20464266777E+02  0.14031832729E+02  0.37671034522E+02  0.45108595482E+02  0.00000000000E+00 0.  1.
<mgrwt>
<rscale>  2 0.21759233E+03</rscale>
<asrwt>0</asrwt>
<pdfrwt beam="1">  1       21 0.10676946E+00 0.21764141E+03</pdfrwt>
<pdfrwt beam="2">  1       21 0.24388886E-01 0.21764141E+03</pdfrwt>
<totfact> 0.10956392E+04</totfact>
</mgrwt>
</event>
<event>
12    1  0.1019868E-001  0.1887569E+03  0.7546771E-02  0.1159694E+00
         21   -1    0    0  501  502  0.00000000000E+00  0.00000000000E+00  0.49957994637E+02  0.49957994637E+02  0.00000000000E+00 0. -1.
         21   -1    0    0  502  503 -0.00000000000E+00 -0.00000000000E+00 -0.10585422816E+04  0.10585422816E+04  0.00000000000E+00 0. -1.
         -6    2    1    2    0  503 -0.58504358295E+02 -0.41352561320E+02 -0.82210449828E+03  0.84349569245E+03  0.17463213572E+03 0.  0.
        -24    2    3    3    0    0 -0.70377542153E+02  0.15991932583E+02 -0.30424088795E+03  0.32231033927E+03  0.78183735828E+02 0.  0.
          6    2    1    2  501    0  0.58504358295E+02  0.41352561320E+02 -0.18647978866E+03  0.26500458377E+03  0.17412617141E+03 0.  0.
         24    2    5    5    0    0  0.31201780759E+02  0.55536264195E+02 -0.20581191889E+03  0.22836540492E+03  0.75725718519E+02 0.  0.
          5    1    5    5  501    0  0.27302577536E+02 -0.14183702875E+02  0.19332130224E+02  0.36639178844E+02  0.47000000000E+01 0. -1.
        -13    1    6    6    0    0  0.23518914217E+02  0.25720344681E+02 -0.19108037594E+03  0.19423281269E+03  0.00000000000E+00 0.  1.
         14    1    6    6    0    0  0.76828665413E+01  0.29815919514E+02 -0.14731542948E+02  0.34132592230E+02  0.00000000000E+00 0. -1.
         -5    1    3    3    0  503  0.11873183858E+02 -0.57344493903E+02 -0.51786361032E+03  0.52118535318E+03  0.47000000000E+01 0.  1.
         11    1    4    4    0    0 -0.64677042476E+02 -0.20861689094E+02 -0.17284168113E+03  0.18572177209E+03  0.00000000000E+00 0. -1.
        -12    1    4    4    0    0 -0.57004996768E+01  0.36853621677E+02 -0.13139920683E+03  0.13658856717E+03  0.00000000000E+00 0.  1.
<mgrwt>
<rscale>  2 0.18863982E+03</rscale>
<asrwt>0</asrwt>
<pdfrwt beam="1">  1       21 0.76858465E-02 0.18875693E+03</pdfrwt>
<pdfrwt beam="2">  1       21 0.16285263E+00 0.18875693E+03</pdfrwt>
<totfact> 0.30948085E+04</totfact>
</mgrwt>
</event>
<event>
12    1  0.1019868E-001  0.1910016E+03  0.7546771E-02  0.1157770E+00
         21   -1    0    0  501  502  0.00000000000E+00  0.00000000000E+00  0.98420779727E+02  0.98420779727E+02  0.00000000000E+00 0. -1.
         21   -1    0    0  502  503 -0.00000000000E+00 -0.00000000000E+00 -0.48560272532E+03  0.48560272532E+03  0.00000000000E+00 0.  1.
         -6    2    1    2    0  503 -0.19929271886E+02 -0.78498468588E+02 -0.33640459377E+03  0.38638762232E+03  0.17195394304E+03 0.  0.
        -24    2    3    3    0    0 -0.18361117047E+01 -0.26653264011E+02 -0.55895659796E+02  0.10051590333E+03  0.79153990733E+02 0.  0.
          6    2    1    2  501    0  0.19929271886E+02  0.78498468588E+02 -0.50777351821E+02  0.19763588272E+03  0.17298097361E+03 0.  0.
         24    2    5    5    0    0 -0.12804996168E+02  0.11401725671E+03 -0.19841507419E+02  0.14008387942E+03  0.77883920704E+02 0.  0.
          5    1    5    5  501    0  0.32734268054E+02 -0.35518788118E+02 -0.30935844402E+02  0.57552003295E+02  0.47000000000E+01 0. -1.
        -11    1    6    6    0    0 -0.15001962025E+01 -0.11002046101E+02  0.49042492715E+01  0.12138668295E+02  0.00000000000E+00 0.  1.
         12    1    6    6    0    0 -0.11304799966E+02  0.12501930281E+03 -0.24745756690E+02  0.12794521113E+03  0.00000000000E+00 0. -1.
         -5    1    3    3    0  503 -0.18093160182E+02 -0.51845204577E+02 -0.28050893397E+03  0.28587171899E+03  0.47000000000E+01 0.  1.
         11    1    4    4    0    0 -0.32441673679E+02 -0.32679317218E+02 -0.51384351671E+02  0.68998199698E+02  0.00000000000E+00 0. -1.
        -12    1    4    4    0    0  0.30605561975E+02  0.60260532071E+01 -0.45113081253E+01  0.31517703629E+02  0.00000000000E+00 0.  1.
<mgrwt>
<rscale>  2 0.19076874E+03</rscale>
<asrwt>0</asrwt>
<pdfrwt beam="1">  1       21 0.15141659E-01 0.19100158E+03</pdfrwt>
<pdfrwt beam="2">  1       21 0.74708111E-01 0.19100158E+03</pdfrwt>
<totfact> 0.61895366E+04</totfact>
</mgrwt>
</event>
<event>
12    1  0.1019868E-001  0.1832620E+03  0.7546771E-02  0.1164765E+00
         21   -1    0    0  503  502  0.00000000000E+00  0.00000000000E+00  0.96196436296E+02  0.96196436296E+02  0.00000000000E+00 0.  1.
         21   -1    0    0  501  503 -0.00000000000E+00 -0.00000000000E+00 -0.35128064515E+03  0.35128064515E+03  0.00000000000E+00 0.  1.
          6    2    1    2  501    0  0.57940619428E+02 -0.12655586027E+02 -0.14743620161E+03  0.23493758060E+03  0.17303454566E+03 0.  0.
         24    2    3    3    0    0  0.76552772691E+02 -0.57315731009E+02 -0.13870541304E+03  0.18554874109E+03  0.77741389784E+02 0.  0.
         -6    2    1    2    0  502 -0.57940619428E+02  0.12655586027E+02 -0.10764800723E+03  0.21253950084E+03  0.17340030773E+03 0.  0.
        -24    2    5    5    0    0 -0.83937973777E+02 -0.29364543960E+02 -0.10958107356E+03  0.16286676685E+03  0.81300136395E+02 0.  0.
          5    1    3    3  501    0 -0.18612153263E+02  0.44660144982E+02 -0.87307885752E+01  0.49388839509E+02  0.47000000000E+01 0. -1.
        -13    1    4    4    0    0  0.73529010279E+02 -0.22235667596E+02 -0.54235625459E+02  0.94034266813E+02  0.00000000000E+00 0.  1.
         14    1    4    4    0    0  0.30237624112E+01 -0.35080063412E+02 -0.84469787580E+02  0.91514474276E+02  0.00000000000E+00 0. -1.
         -5    1    5    5    0  502  0.25997354349E+02  0.42020129987E+02  0.19330663224E+01  0.49672733996E+02  0.47000000000E+01 0.  1.
         13    1    6    6    0    0  0.10243094100E+02 -0.21375677422E+02 -0.35912261674E+02  0.43029421337E+02  0.00000000000E+00 0. -1.
        -14    1    6    6    0    0 -0.94181067877E+02 -0.79888665379E+01 -0.73668811883E+02  0.11983734551E+03  0.00000000000E+00 0.  1.
<mgrwt>
<rscale>  2 0.18317539E+03</rscale>
<asrwt>0</asrwt>
<pdfrwt beam="1">  1       21 0.14799452E-01 0.18326196E+03</pdfrwt>
<pdfrwt beam="2">  1       21 0.54043176E-01 0.18326196E+03</pdfrwt>
<totfact> 0.13055234E+05</totfact>
</mgrwt>
</event>
<event>
12    1  0.1019868E-001  0.2103366E+03  0.7546771E-02  0.1141521E+00
         21   -1    0    0  503  502  0.00000000000E+00  0.00000000000E+00  0.36045616468E+02  0.36045616468E+02  0.00000000000E+00 0. -1.
         21   -1    0    0  501  503 -0.00000000000E+00 -0.00000000000E+00 -0.24903585597E+04  0.24903585597E+04  0.00000000000E+00 0. -1.
          6    2    1    2  501    0 -0.52374885496E+02 -0.10726372642E+03 -0.21274517280E+04  0.21377144061E+04  0.17182372224E+03 0.  0.
         24    2    3    3    0    0 -0.62219434115E+02 -0.10827717765E+03 -0.10762598454E+04  0.10864654316E+04  0.80477787184E+02 0.  0.
         -6    2    1    2    0  502  0.52374885496E+02  0.10726372642E+03 -0.32686121529E+03  0.38868977011E+03  0.17318443258E+03 0.  0.
        -24    2    5    5    0    0  0.57295755598E+01  0.84240019214E+02 -0.31427496410E+03  0.33496473170E+03  0.79394014575E+02 0.  0.
          5    1    3    3  501    0  0.98445486193E+01  0.10134512234E+01 -0.10511918826E+04  0.10512489745E+04  0.47000000000E+01 0. -1.
        -13    1    4    4    0    0 -0.95686174305E+01 -0.22392287979E+01 -0.11427201434E+02  0.15071612978E+02  0.00000000000E+00 0.  1.
         14    1    4    4    0    0 -0.52650816684E+02 -0.10603794885E+03 -0.10648326439E+04  0.10713938187E+04  0.00000000000E+00 0. -1.
         -5    1    5    5    0  502  0.46645309936E+02  0.23023707208E+02 -0.12586251190E+02  0.53725038405E+02  0.47000000000E+01 0.  1.
         11    1    6    6    0    0  0.11807979645E+02  0.70873876209E+02 -0.11808896751E+03  0.13823002192E+03  0.00000000000E+00 0. -1.
        -12    1    6    6    0    0 -0.60784040853E+01  0.13366143005E+02 -0.19618599659E+03  0.19673470978E+03  0.00000000000E+00 0.  1.
<mgrwt>
<rscale>  2 0.21005630E+03</rscale>
<asrwt>0</asrwt>
<pdfrwt beam="1">  1       21 0.55454783E-02 0.21033660E+03</pdfrwt>
<pdfrwt beam="2">  1       21 0.38313217E+00 0.21033660E+03</pdfrwt>
<totfact> 0.24373759E+03</totfact>
</mgrwt>
</event>
<event>
12    1  0.1019868E-001  0.1852939E+03  0.7546771E-02  0.1162807E+00
         21   -1    0    0  503  502  0.00000000000E+00  0.00000000000E+00  0.15595635566E+02  0.15595635566E+02  0.00000000000E+00 0. -1.
         21   -1    0    0  501  503 -0.00000000000E+00 -0.00000000000E+00 -0.22541770388E+04  0.22541770388E+04  0.00000000000E+00 0. -1.
          6    2    1    2  501    0  0.33437770508E+02 -0.56988645831E+02 -0.12957831410E+04  0.13089643963E+04  0.17311282971E+03 0.  0.
         24    2    3    3    0    0  0.71550751624E+02 -0.85324186170E+02 -0.10020851395E+04  0.10114142185E+04  0.79902238803E+02 0.  0.
         -6    2    1    2    0  502 -0.33437770508E+02  0.56988645831E+02 -0.94279826221E+03  0.96080827812E+03  0.17296876551E+03 0.  0.
        -24    2    5    5    0    0 -0.20089724270E+02  0.10340778069E+03 -0.75860204707E+03  0.77032667248E+03  0.82639883704E+02 0.  0.
          5    1    3    3  501    0 -0.38112981115E+02  0.28335540338E+02 -0.29369800153E+03  0.29755017775E+03  0.47000000000E+01 0. -1.
        -13    1    4    4    0    0  0.35667039387E+01 -0.51408163866E+01 -0.32283010044E+01  0.70406887080E+01  0.00000000000E+00 0.  1.
         14    1    4    4    0    0  0.67984047685E+02 -0.80183369783E+02 -0.99885683851E+03  0.10043735298E+04  0.00000000000E+00 0. -1.
         -5    1    5    5    0  502 -0.13348046238E+02 -0.46419134862E+02 -0.18419621513E+03  0.19048160564E+03  0.47000000000E+01 0.  1.
         13    1    6    6    0    0 -0.25420169262E+02 -0.40594288487E+01 -0.17586988391E+03  0.17774386075E+03  0.00000000000E+00 0. -1.
        -14    1    6    6    0    0  0.53304449923E+01  0.10746720954E+03 -0.58273216316E+03  0.59258281173E+03  0.00000000000E+00 0.  1.
<mgrwt>
<rscale>  2 0.18526028E+03</rscale>
<asrwt>0</asrwt>
<pdfrwt beam="1">  1       21 0.23993315E-02 0.18529393E+03</pdfrwt>
<pdfrwt beam="2">  1       21 0.34679605E+00 0.18529393E+03</pdfrwt>
<totfact> 0.16839736E+04</totfact>
</mgrwt>
</event>
<event>
12    1  0.1019868E-001  0.1863997E+03  0.7546771E-02  0.1161758E+00
         21   -1    0    0  503  502  0.00000000000E+00  0.00000000000E+00  0.16035446390E+04  0.16035446390E+04  0.00000000000E+00 0.  1.
         21   -1    0    0  501  503 -0.00000000000E+00 -0.00000000000E+00 -0.28583015560E+02  0.28583015560E+02  0.00000000000E+00 0.  1.
          6    2    1    2  501    0 -0.51001666188E+02  0.52761512278E+02  0.11889504173E+04  0.12034675368E+04  0.17130694775E+03 0.  0.
         24    2    3    3    0    0 -0.63592416608E+02 -0.24157915489E+02  0.79286786205E+03  0.79976144830E+03  0.79695214349E+02 0.  0.
         -6    2    1    2    0  502  0.51001666188E+02 -0.52761512278E+02  0.38601120620E+03  0.42866011776E+03  0.17134730261E+03 0.  0.
        -24    2    5    5    0    0 -0.19614487599E+01 -0.89789178709E+02  0.26391578861E+03  0.29043739667E+03  0.81464065805E+02 0.  0.
          5    1    3    3  501    0  0.12590750420E+02  0.76919427767E+02  0.39608255522E+03  0.40370608852E+03  0.47000000000E+01 0. -1.
        -13    1    4    4    0    0  0.24892850700E+01  0.12037194876E+02  0.37196686854E+03  0.37216990998E+03  0.00000000000E+00 0.  1.
         14    1    4    4    0    0 -0.66081701678E+02 -0.36195110366E+02  0.42090099351E+03  0.42759153832E+03  0.00000000000E+00 0. -1.
         -5    1    5    5    0  502  0.52963114948E+02  0.37027666431E+02  0.12209541759E+03  0.13822272108E+03  0.47000000000E+01 0.  1.
         13    1    6    6    0    0  0.98058037783E+01 -0.72251510316E+02  0.25856706635E+03  0.26865100471E+03  0.00000000000E+00 0. -1.
        -14    1    6    6    0    0 -0.11767252538E+02 -0.17537668393E+02  0.53487222516E+01  0.21786391961E+02  0.00000000000E+00 0.  1.
<mgrwt>
<rscale>  2 0.18639042E+03</rscale>
<asrwt>0</asrwt>
<pdfrwt beam="1">  1       21 0.24669910E+00 0.18639969E+03</pdfrwt>
<pdfrwt beam="2">  1       21 0.43973883E-02 0.18639969E+03</pdfrwt>
<totfact> 0.23364337E+04</totfact>
</mgrwt>
</event>
<event>
12    1  0.1019868E-001  0.3122927E+03  0.7546771E-02  0.1079271E+00
         21   -1    0    0  501  502  0.00000000000E+00  0.00000000000E+00  0.74395552587E+03  0.74395552587E+03  0.00000000000E+00 0. -1.
         21   -1    0    0  502  503 -0.00000000000E+00 -0.00000000000E+00 -0.19389215899E+03  0.19389215899E+03  0.00000000000E+00 0. -1.
         -6    2    1    2    0  503 -0.99620792411E+02  0.23995529605E+03  0.79721638396E+01  0.31223631970E+03  0.17298877872E+03 0.  0.
        -24    2    3    3    0    0  0.13342065683E+02  0.69634804228E+02 -0.36161291517E+01  0.10747778929E+03  0.80693135540E+02 0.  0.
          6    2    1    2  501    0  0.99620792411E+02 -0.23995529605E+03  0.54209120303E+03  0.62561136516E+03  0.17327394906E+03 0.  0.
         24    2    5    5    0    0  0.11652268926E+03 -0.10614825682E+03  0.28675254503E+03  0.33680361226E+03  0.79778829321E+02 0.  0.
          5    1    5    5  501    0 -0.16901896852E+02 -0.13380703923E+03  0.25533865800E+03  0.28880775290E+03  0.47000000000E+01 0. -1.
        -11    1    6    6    0    0 -0.78259279476E+01 -0.16270984484E+01  0.93202320556E+00  0.80474384034E+01  0.00000000000E+00 0.  1.
         12    1    6    6    0    0  0.12434861721E+03 -0.10452115838E+03  0.28582052182E+03  0.32875617385E+03  0.00000000000E+00 0. -1.
         -5    1    3    3    0  503 -0.11296285809E+03  0.17032049182E+03  0.11588292991E+02  0.20475853042E+03  0.47000000000E+01 0.  1.
         11    1    4    4    0    0  0.30807139867E+02  0.34878370824E+01 -0.20300633553E+02  0.37058880136E+02  0.00000000000E+00 0. -1.
        -12    1    4    4    0    0 -0.17465074184E+02  0.66146967146E+02  0.16684504401E+02  0.70418909150E+02  0.00000000000E+00 0.  1.
<mgrwt>
<rscale>  2 0.31225312E+03</rscale>
<asrwt>0</asrwt>
<pdfrwt beam="1">  1       21 0.11445469E+00 0.31229266E+03</pdfrwt>
<pdfrwt beam="2">  1       21 0.29829563E-01 0.31229266E+03</pdfrwt>
<totfact> 0.59332927E+03</totfact>
</mgrwt>
</event>
<event>
12    1  0.1019868E-001  0.2612658E+03  0.7546771E-02  0.1106733E+00
         21   -1    0    0  503  502  0.00000000000E+00  0.00000000000E+00  0.98656234437E+03  0.98656234437E+03  0.00000000000E+00 0. -1.
         21   -1    0    0  501  503 -0.00000000000E+00 -0.00000000000E+00 -0.71001271261E+02  0.71001271261E+02  0.00000000000E+00 0. -1.
          6    2    1    2  501    0  0.19151588024E+03  0.91586629613E+01  0.55353053045E+03  0.61110429441E+03  0.17404079124E+03 0.  0.
         24    2    3    3    0    0  0.20369853625E+03 -0.18303283457E+02  0.41091156312E+03  0.46527962074E+03  0.76214886444E+02 0.  0.
         -6    2    1    2    0  502 -0.19151588024E+03 -0.91586629613E+01  0.36203054266E+03  0.44645932122E+03  0.17747562705E+03 0.  0.
        -24    2    5    5    0    0 -0.14563715545E+03 -0.24698454009E+02  0.36051616853E+03  0.39776922137E+03  0.80176374455E+02 0.  0.
          5    1    3    3  501    0 -0.12182656010E+02  0.27461946418E+02  0.14261896733E+03  0.14582467367E+03  0.47000000000E+01 0. -1.
        -11    1    4    4    0    0  0.30183303632E+02 -0.77528757548E+01  0.13974045841E+03  0.14317309320E+03  0.00000000000E+00 0.  1.
         12    1    4    4    0    0  0.17351523262E+03 -0.10550407702E+02  0.27117110471E+03  0.32210652754E+03  0.00000000000E+00 0. -1.
         -5    1    5    5    0  502 -0.45878724795E+02  0.15539791047E+02  0.15143741301E+01  0.48690099852E+02  0.47000000000E+01 0.  1.
         13    1    6    6    0    0 -0.14138765236E+03 -0.18308099917E+02  0.25640419981E+03  0.29337479177E+03  0.00000000000E+00 0. -1.
        -14    1    6    6    0    0 -0.42495030838E+01 -0.63903540917E+01  0.10411196871E+03  0.10439442960E+03  0.00000000000E+00 0.  1.
<mgrwt>
<rscale>  2 0.26068360E+03</rscale>
<asrwt>0</asrwt>
<pdfrwt beam="1">  1       21 0.15177881E+00 0.26126579E+03</pdfrwt>
<pdfrwt beam="2">  1       21 0.10923273E-01 0.26126579E+03</pdfrwt>
<totfact> 0.19292067E+04</totfact>
</mgrwt>
</event>
<event>
12    1  0.1019868E-001  0.1975729E+03  0.7546771E-02  0.1151842E+00
         21   -1    0    0  501  502  0.00000000000E+00  0.00000000000E+00  0.89354637565E+03  0.89354637565E+03  0.00000000000E+00 0.  1.
         21   -1    0    0  502  503 -0.00000000000E+00 -0.00000000000E+00 -0.65701633980E+02  0.65701633980E+02  0.00000000000E+00 0. -1.
         -6    2    1    2    0  503  0.68647397762E+02 -0.64358366545E+02  0.13615409079E+03  0.23994368505E+03  0.17372556229E+03 0.  0.
        -24    2    3    3    0    0  0.69398034723E+02 -0.55395587664E+02  0.16540461431E+02  0.11990033793E+03  0.78852684259E+02 0.  0.
          6    2    1    2  501    0 -0.68647397762E+02  0.64358366545E+02  0.69169065088E+03  0.71930432458E+03  0.17351740625E+03 0.  0.
         24    2    5    5    0    0  0.27898408672E+02  0.52388200188E+02  0.41908017158E+03  0.42981694826E+03  0.74776828447E+02 0.  0.
          5    1    5    5  501    0 -0.96545806434E+02  0.11970166356E+02  0.27261047930E+03  0.28948737632E+03  0.47000000000E+01 0. -1.
        -13    1    6    6    0    0 -0.65372565899E+01 -0.12147893492E+02  0.16043426333E+03  0.16102627080E+03  0.00000000000E+00 0.  1.
         14    1    6    6    0    0  0.34435665262E+02  0.64536093680E+02  0.25864590825E+03  0.26879067745E+03  0.00000000000E+00 0. -1.
         -5    1    3    3    0  503 -0.75063696108E+00 -0.89627788803E+01  0.11961362936E+03  0.12004334712E+03  0.47000000000E+01 0.  1.
         13    1    4    4    0    0  0.34263310881E+01 -0.31274199706E+01 -0.25429188111E+02  0.25848870543E+02  0.00000000000E+00 0. -1.
        -14    1    4    4    0    0  0.65971703635E+02 -0.52268167694E+02  0.41969649541E+02  0.94051467385E+02  0.00000000000E+00 0.  1.
<mgrwt>
<rscale>  2 0.19752709E+03</rscale>
<asrwt>0</asrwt>
<pdfrwt beam="1">  1       21 0.13746867E+00 0.19757286E+03</pdfrwt>
<pdfrwt beam="2">  1       21 0.10107944E-01 0.19757286E+03</pdfrwt>
<totfact> 0.29772947E+04</totfact>
</mgrwt>
</event>
<event>
12    1  0.1019868E-001  0.2529030E+03  0.7546771E-02  0.1111612E+00
         21   -1    0    0  503  502  0.00000000000E+00  0.00000000000E+00  0.60378201612E+03  0.60378201612E+03  0.00000000000E+00 0. -1.
         21   -1    0    0  501  503 -0.00000000000E+00 -0.00000000000E+00 -0.11429095940E+03  0.11429095940E+03  0.00000000000E+00 0.  1.
          6    2    1    2  501    0  0.17895611939E+03  0.39393514720E+02  0.14530795654E+03  0.29096416117E+03  0.17311441066E+03 0.  0.
         24    2    3    3    0    0  0.19553679155E+03  0.60055059881E+02  0.10664032061E+03  0.24385689839E+03  0.79074533475E+02 0.  0.
         -6    2    1    2    0  502 -0.17895611939E+03 -0.39393514720E+02  0.34418310018E+03  0.42710881435E+03  0.17430660107E+03 0.  0.
        -24    2    5    5    0    0 -0.12380183427E+03 -0.72415881462E+02  0.31567766655E+03  0.35663100494E+03  0.83440580479E+02 0.  0.
          5    1    3    3  501    0 -0.16580672159E+02 -0.20661545161E+02  0.38667635936E+02  0.47107262779E+02  0.47000000000E+01 0. -1.
        -13    1    4    4    0    0  0.18983213465E+03  0.42550724930E+02  0.77548798667E+02  0.20942927138E+03  0.00000000000E+00 0.  1.
         14    1    4    4    0    0  0.57046569060E+01  0.17504334951E+02  0.29091521942E+02  0.34427627007E+02  0.00000000000E+00 0. -1.
         -5    1    5    5    0  502 -0.55154285123E+02  0.33022366742E+02  0.28505433630E+02  0.70477809409E+02  0.47000000000E+01 0.  1.
         13    1    6    6    0    0 -0.11151789283E+03 -0.89101210632E+02  0.29295475845E+03  0.32587997277E+03  0.00000000000E+00 0. -1.
        -14    1    6    6    0    0 -0.12283941437E+02  0.16685329170E+02  0.22722908099E+02  0.30751032165E+02  0.00000000000E+00 0.  1.
<mgrwt>
<rscale>  2 0.25269771E+03</rscale>
<asrwt>0</asrwt>
<pdfrwt beam="1">  1       21 0.92889539E-01 0.25290301E+03</pdfrwt>
<pdfrwt beam="2">  1       21 0.17583225E-01 0.25290301E+03</pdfrwt>
<totfact> 0.27735804E+04</totfact>
</mgrwt>
</event>
<event>
12    1  0.1019868E-001  0.2713229E+03  0.7546771E-02  0.1101318E+00
         21   -1    0    0  503  502  0.00000000000E+00  0.00000000000E+00  0.41762217101E+03  0.41762217101E+03  0.00000000000E+00 0.  1.
         21   -1    0    0  501  503 -0.00000000000E+00 -0.00000000000E+00 -0.20238249815E+03  0.20238249815E+03  0.00000000000E+00 0.  1.
          6    2    1    2  501    0 -0.18534581099E+03  0.81972867513E+02 -0.12023083982E+02  0.26607742428E+03  0.17198843130E+03 0.  0.
         24    2    3    3    0    0 -0.20550972628E+03  0.62951009957E+02  0.15028989127E+02  0.22706051507E+03  0.71648654809E+02 0.  0.
         -6    2    1    2    0  502  0.18534581099E+03 -0.81972867513E+02  0.22726275684E+03  0.35392724489E+03  0.18039820777E+03 0.  0.
        -24    2    5    5    0    0  0.70939125283E+02  0.29083618930E+02  0.87980409337E+02  0.14216300040E+03  0.81188360438E+02 0.  0.
          5    1    3    3  501    0  0.20163915295E+02  0.19021857556E+02 -0.27052073109E+02  0.39016909211E+02  0.47000000000E+01 0. -1.
        -11    1    4    4    0    0 -0.17694981316E+03  0.77225665792E+02  0.34533461730E+01  0.19309833100E+03  0.00000000000E+00 0.  1.
         12    1    4    4    0    0 -0.28559913121E+02 -0.14274655835E+02  0.11575642954E+02  0.33962184066E+02  0.00000000000E+00 0. -1.
         -5    1    5    5    0  502  0.11440668571E+03 -0.11105648644E+03  0.13928234751E+03  0.21176424448E+03  0.47000000000E+01 0.  1.
         11    1    6    6    0    0  0.41285347732E+02  0.39008394033E+02  0.93770947169E+01  0.57567913352E+02  0.00000000000E+00 0. -1.
        -12    1    6    6    0    0  0.29653777551E+02 -0.99247751035E+01  0.78603314620E+02  0.84595087051E+02  0.00000000000E+00 0.  1.
<mgrwt>
<rscale>  2 0.26993297E+03</rscale>
<asrwt>0</asrwt>
<pdfrwt beam="1">  1       21 0.64249565E-01 0.27132293E+03</pdfrwt>
<pdfrwt beam="2">  1       21 0.31135769E-01 0.27132293E+03</pdfrwt>
<totfact> 0.21268281E+04</totfact>
</mgrwt>
</event>
<event>
12    1  0.1019868E-001  0.1777920E+03  0.7546771E-02  0.1170153E+00
         21   -1    0    0  501  502  0.00000000000E+00  0.00000000000E+00  0.10008896663E+04  0.10008896663E+04  0.00000000000E+00 0.  1.
         21   -1    0    0  502  503 -0.00000000000E+00 -0.00000000000E+00 -0.65771791391E+02  0.65771791391E+02  0.00000000000E+00 0.  1.
         -6    2    1    2    0  503 -0.96786301065E+01 -0.47621900670E+02  0.81742162249E+02  0.19496191078E+03  0.17019648722E+03 0.  0.
        -24    2    3    3    0    0 -0.43048252165E+02  0.39221133132E+01  0.95519783860E+02  0.13185699884E+03  0.79960640618E+02 0.  0.
          6    2    1    2  501    0  0.96786301065E+01  0.47621900670E+02  0.85337571269E+03  0.87169954694E+03  0.17102184602E+03 0.  0.
         24    2    5    5    0    0  0.37741738353E+02  0.67082800016E+02  0.80404633936E+03  0.81151863866E+03  0.78405638732E+02 0.  0.
          5    1    5    5  501    0 -0.28063108247E+02 -0.19460899346E+02  0.49329373334E+02  0.60180908279E+02  0.47000000000E+01 0. -1.
        -11    1    6    6    0    0 -0.32057172729E+01  0.17410307227E+02  0.51865675293E+03  0.51895878717E+03  0.00000000000E+00 0.  1.
         12    1    6    6    0    0  0.40947455626E+02  0.49672492789E+02  0.28538958643E+03  0.29255985149E+03  0.00000000000E+00 0. -1.
         -5    1    3    3    0  503  0.33369622058E+02 -0.51544013983E+02 -0.13777621611E+02  0.63104911941E+02  0.47000000000E+01 0.  1.
         13    1    4    4    0    0 -0.33742690293E+02  0.39862302571E+02  0.43622370417E+02  0.68047656207E+02  0.00000000000E+00 0. -1.
        -14    1    4    4    0    0 -0.93055618715E+01 -0.35940189258E+02  0.51897413443E+02  0.63809342636E+02  0.00000000000E+00 0.  1.
<mgrwt>
<rscale>  2 0.17759321E+03</rscale>
<asrwt>0</asrwt>
<pdfrwt beam="1">  1       21 0.15398302E+00 0.17779199E+03</pdfrwt>
<pdfrwt beam="2">  1       21 0.10118738E-01 0.17779199E+03</pdfrwt>
<totfact> 0.22387513E+04</totfact>
</mgrwt>
</event>
<event>
12    1  0.1019868E-001  0.1789926E+03  0.7546771E-02  0.1169096E+00
         21   -1    0    0  503  502  0.00000000000E+00  0.00000000000E+00  0.11532747788E+03  0.11532747788E+03  0.00000000000E+00 0.  1.
         21   -1    0    0  501  503 -0.00000000000E+00 -0.00000000000E+00 -0.32079223652E+03  0.32079223652E+03  0.00000000000E+00 0.  1.
          6    2    1    2  501    0  0.16775126813E+02 -0.39798358915E+02 -0.20758636437E+02  0.17891416819E+03  0.17237762134E+03 0.  0.
         24    2    3    3    0    0  0.77426158756E+01 -0.58989566525E+02 -0.72411189705E+02  0.12287877792E+03  0.79473873754E+02 0.  0.
         -6    2    1    2    0  502 -0.16775126813E+02  0.39798358915E+02 -0.18470612220E+03  0.25720554620E+03  0.17370384902E+03 0.  0.
        -24    2    5    5    0    0 -0.72526378687E+02  0.11038189822E+02 -0.15413759002E+03  0.18726360906E+03  0.76989254964E+02 0.  0.
          5    1    3    3  501    0  0.90325109372E+01  0.19191207609E+02  0.51652553268E+02  0.56035390268E+02  0.47000000000E+01 0. -1.
        -13    1    4    4    0    0 -0.29536476436E+02 -0.46325915728E+02 -0.22651783307E+02  0.59427242872E+02  0.00000000000E+00 0.  1.
         14    1    4    4    0    0  0.37279092312E+02 -0.12663650796E+02 -0.49759406398E+02  0.63451535050E+02  0.00000000000E+00 0. -1.
         -5    1    5    5    0  502  0.55751251875E+02  0.28760169094E+02 -0.30568532184E+02  0.69941937146E+02  0.47000000000E+01 0.  1.
         11    1    6    6    0    0 -0.16530301067E+02 -0.31763005015E+02 -0.54865389647E+02  0.65516031031E+02  0.00000000000E+00 0. -1.
        -12    1    6    6    0    0 -0.55996077621E+02  0.42801194837E+02 -0.99272200372E+02  0.12174757803E+03  0.00000000000E+00 0.  1.
<mgrwt>
<rscale>  2 0.17867001E+03</rscale>
<asrwt>0</asrwt>
<pdfrwt beam="1">  1       21 0.17742689E-01 0.17899257E+03</pdfrwt>
<pdfrwt beam="2">  1       21 0.49352651E-01 0.17899257E+03</pdfrwt>
<totfact> 0.11344845E+05</totfact>
</mgrwt>
</event>
<event>
12    1  0.1019868E-001  0.2384800E+03  0.7546771E-02  0.1120822E+00
         21   -1    0    0  501  502  0.00000000000E+00  0.00000000000E+00  0.28476524743E+03  0.28476524743E+03  0.00000000000E+00 0. -1.
         21   -1    0    0  502  503 -0.00000000000E+00 -0.00000000000E+00 -0.37992804475E+03  0.37992804475E+03  0.00000000000E+00 0. -1.
         -6    2    1    2    0  503  0.12094086055E+03 -0.11104042351E+03 -0.27651716284E+03  0.36514991556E+03  0.17296257424E+03 0.  0.
        -24    2    3    3    0    0  0.13493057300E+03 -0.94032326314E+02 -0.28682537720E+03  0.34038427994E+03  0.80896990698E+02 0.  0.
          6    2    1    2  501    0 -0.12094086055E+03  0.11104042351E+03  0.18135436552E+03  0.29954337662E+03  0.17285878971E+03 0.  0.
         24    2    5    5    0    0 -0.47453272062E+02  0.50565325856E+02  0.14592461240E+02  0.10747753943E+03  0.80807279054E+02 0.  0.
          5    1    5    5  501    0 -0.73487588488E+02  0.60475097654E+02  0.16676190428E+03  0.19206583719E+03  0.47000000000E+01 0. -1.
        -13    1    6    6    0    0 -0.25344227475E+01 -0.20105864511E+02  0.12304243619E+02  0.23707878383E+02  0.00000000000E+00 0.  1.
         14    1    6    6    0    0 -0.44918849314E+02  0.70671190367E+02  0.22882176211E+01  0.83769661045E+02  0.00000000000E+00 0. -1.
         -5    1    3    3    0  503 -0.13989712448E+02 -0.17008097196E+02  0.10308214357E+02  0.24765635624E+02  0.47000000000E+01 0.  1.
         11    1    4    4    0    0 -0.64739041836E+01 -0.21561810484E+02 -0.54020611531E+02  0.58523923117E+02  0.00000000000E+00 0. -1.
        -12    1    4    4    0    0  0.14140447718E+03 -0.72470515830E+02 -0.23280476567E+03  0.28186035682E+03  0.00000000000E+00 0.  1.
<mgrwt>
<rscale>  2 0.23846120E+03</rscale>
<asrwt>0</asrwt>
<pdfrwt beam="1">  1       21 0.43810038E-01 0.23848002E+03</pdfrwt>
<pdfrwt beam="2">  1       21 0.58450468E-01 0.23848002E+03</pdfrwt>
<totfact> 0.13344257E+04</totfact>
</mgrwt>
</event>
<event>
12    1  0.1019868E-001  0.2017253E+03  0.7546771E-02  0.1149032E+00
         21   -1    0    0  503  502  0.00000000000E+00  0.00000000000E+00  0.36256174610E+03  0.36256174610E+03  0.00000000000E+00 0.  1.
         21   -1    0    0  501  503 -0.00000000000E+00 -0.00000000000E+00 -0.11071281518E+03  0.11071281518E+03  0.00000000000E+00 0.  1.
          6    2    1    2  501    0 -0.85448540281E+02  0.45435858247E+02  0.11241078694E+03  0.23093130924E+03  0.17699495563E+03 0.  0.
         24    2    3    3    0    0 -0.56253338355E+02 -0.37499277537E+02  0.33628126742E+02  0.11278142938E+03  0.83774495008E+02 0.  0.
         -6    2    1    2    0  502  0.85448540281E+02 -0.45435858247E+02  0.13943814398E+03  0.24234325203E+03  0.17297799154E+03 0.  0.
        -24    2    5    5    0    0  0.95587794813E+02  0.79946284692E+01  0.42705611623E+02  0.13127167957E+03  0.78787968572E+02 0.  0.
          5    1    3    3  501    0 -0.29195201926E+02  0.82935135784E+02  0.78782660199E+02  0.11814987986E+03  0.47000000000E+01 0. -1.
        -11    1    4    4    0    0 -0.39016542928E+02 -0.11947105853E+02 -0.24064000588E+02  0.47371933512E+02  0.00000000000E+00 0.  1.
         12    1    4    4    0    0 -0.17236795427E+02 -0.25552171684E+02  0.57692127331E+02  0.65409495873E+02  0.00000000000E+00 0. -1.
         -5    1    5    5    0  502 -0.10139254533E+02 -0.53430486716E+02  0.96732532355E+02  0.11107157246E+03  0.47000000000E+01 0.  1.
         13    1    6    6    0    0  0.40063176803E+02 -0.13035619181E+02 -0.18487368401E+02  0.46008350257E+02  0.00000000000E+00 0. -1.
        -14    1    6    6    0    0  0.55524618010E+02  0.21030247650E+02  0.61192980025E+02  0.85263329314E+02  0.00000000000E+00 0.  1.
<mgrwt>
<rscale>  2 0.20084068E+03</rscale>
<asrwt>0</asrwt>
<pdfrwt beam="1">  1       21 0.55778730E-01 0.20172527E+03</pdfrwt>
<pdfrwt beam="2">  1       21 0.17032741E-01 0.20172527E+03</pdfrwt>
<totfact> 0.93766643E+04</totfact>
</mgrwt>
</event>
<event>
12    1  0.1019868E-001  0.1777351E+03  0.7546771E-02  0.1170980E+00
         21   -1    0    0  503  502  0.00000000000E+00  0.00000000000E+00  0.13211440205E+03  0.13211440205E+03  0.00000000000E+00 0. -1.
         21   -1    0    0  501  503 -0.00000000000E+00 -0.00000000000E+00 -0.23407961925E+03  0.23407961925E+03  0.00000000000E+00 0. -1.
          6    2    1    2  501    0 -0.15396501014E+02 -0.24036553425E+00 -0.55313812949E+02  0.18243844729E+03  0.17316771964E+03 0.  0.
         24    2    3    3    0    0  0.34071863150E+02  0.49841183964E+02 -0.19751459051E+02  0.10343179144E+03  0.81627078037E+02 0.  0.
         -6    2    1    2    0  502  0.15396501014E+02  0.24036553425E+00 -0.46651404251E+02  0.18375557402E+03  0.17706678809E+03 0.  0.
        -24    2    5    5    0    0 -0.22158519407E+02 -0.61548521776E+02 -0.11385198110E+02  0.10316995837E+03  0.78963263979E+02 0.  0.
          5    1    3    3  501    0 -0.49468364164E+02 -0.50081549498E+02 -0.35562353898E+02  0.79006655846E+02  0.47000000000E+01 0. -1.
        -13    1    4    4    0    0  0.29759468585E+02  0.14229577537E+01  0.23825738506E+02  0.38148611962E+02  0.00000000000E+00 0.  1.
         14    1    4    4    0    0  0.43123945648E+01  0.48418226210E+02 -0.43577197557E+02  0.65283179481E+02  0.00000000000E+00 0. -1.
         -5    1    5    5    0  502  0.37555020421E+02  0.61788887310E+02 -0.35266206140E+02  0.80585615648E+02  0.47000000000E+01 0.  1.
         11    1    6    6    0    0  0.16590048165E+02 -0.73205130354E+01  0.22095593277E+02  0.28583821499E+02  0.00000000000E+00 0. -1.
        -12    1    6    6    0    0 -0.38748567572E+02 -0.54228008741E+02 -0.33480791388E+02  0.74586136868E+02  0.00000000000E+00 0.  1.
<mgrwt>
<rscale>  2 0.17675600E+03</rscale>
<asrwt>0</asrwt>
<pdfrwt beam="1">  1       21 0.20325293E-01 0.17773508E+03</pdfrwt>
<pdfrwt beam="2">  1       21 0.36012249E-01 0.17773508E+03</pdfrwt>
<totfact> 0.16730601E+05</totfact>
</mgrwt>
</event>
<event>
11    1  0.1019868E-001  0.2333029E+03  0.7546771E-02  0.1125645E+00
         21   -1    0    0  503  502  0.00000000000E+00  0.00000000000E+00  0.50253845558E+03  0.50253845558E+03  0.00000000000E+00 0. -1.
         21   -1    0    0  501  503 -0.00000000000E+00 -0.00000000000E+00 -0.10622392548E+03  0.10622392548E+03  0.00000000000E+00 0.  1.
          6    2    1    2  501    0  0.16871409708E+02  0.15452088293E+03  0.22919273380E+03  0.32177819578E+03  0.16386137533E+03 0.  0.
         -6    2    1    2    0  502 -0.16871409708E+02 -0.15452088293E+03  0.16712179630E+03  0.28698418529E+03  0.17397953926E+03 0.  0.
        -24    2    4    4    0    0 -0.57403270633E+02 -0.10893199208E+03  0.47405813326E+02  0.15254019956E+03  0.76549898548E+02 0.  0.
          5    1    3    3  501    0 -0.30679879898E+02  0.14417696455E+03  0.20053548843E+03  0.24892734735E+03  0.47000000000E+01 0. -1.
        -13    1    3    3    0    0  0.46018224499E+02  0.22578599349E+02  0.12926758001E+02  0.52863704060E+02  0.00000000000E+00 0.  1.
         14    1    3    3    0    0  0.15330651069E+01 -0.12234680974E+02  0.15730487369E+02  0.19987144369E+02  0.00000000000E+00 0. -1.
         -5    1    4    4    0  502  0.40531860926E+02 -0.45588890848E+02  0.11971598297E+03  0.13444398573E+03  0.47000000000E+01 0.  1.
         13    1    5    5    0    0 -0.30126307187E+02 -0.44131140852E+01 -0.75134937729E+01  0.31361163074E+02  0.00000000000E+00 0. -1.
        -14    1    5    5    0    0 -0.27276963446E+02 -0.10451887799E+03  0.54919307099E+02  0.12117903649E+03  0.00000000000E+00 0.  1.
<mgrwt>
<rscale>  2 0.23141899E+03</rscale>
<asrwt>0</asrwt>
<pdfrwt beam="1">  1       21 0.77313607E-01 0.23330287E+03</pdfrwt>
<pdfrwt beam="2">  1       21 0.16342143E-01 0.23330287E+03</pdfrwt>
<totfact> 0.48872920E+04</totfact>
</mgrwt>
</event>
<event>
12    1  0.1019868E-001  0.2008123E+03  0.7546771E-02  0.1149865E+00
         21   -1    0    0  501  502  0.00000000000E+00  0.00000000000E+00  0.20720747701E+02  0.20720747701E+02  0.00000000000E+00 0.  1.
         21   -1    0    0  502  503 -0.00000000000E+00 -0.00000000000E+00 -0.19386138009E+04  0.19386138009E+04  0.00000000000E+00 0.  1.
         -6    2    1    2    0  503  0.94752259249E+02 -0.25959875718E+02 -0.84754262126E+03  0.87100749492E+03  0.17513896078E+03 0.  0.
        -24    2    3    3    0    0  0.81635407586E+02 -0.68831405084E+02 -0.40876349574E+03  0.42991880677E+03  0.79627149050E+02 0.  0.
          6    2    1    2  501    0 -0.94752259249E+02  0.25959875718E+02 -0.10703504319E+04  0.10883270537E+04  0.17074490573E+03 0.  0.
         24    2    5    5    0    0 -0.76743221708E+02  0.23460800353E+02 -0.36136311332E+03  0.37909107124E+03  0.81772913604E+02 0.  0.
          5    1    5    5  501    0 -0.18009037541E+02  0.24990753649E+01 -0.70898731860E+03  0.70923598241E+03  0.47000000000E+01 0. -1.
        -13    1    6    6    0    0 -0.13860104939E+02  0.45751571951E+02 -0.14534559071E+03  0.15300539070E+03  0.00000000000E+00 0.  1.
         14    1    6    6    0    0 -0.62883116768E+02 -0.22290771598E+02 -0.21601752261E+03  0.22608568055E+03  0.00000000000E+00 0. -1.
         -5    1    3    3    0  503  0.13116851663E+02  0.42871529366E+02 -0.43877912552E+03  0.44108868815E+03  0.47000000000E+01 0.  1.
         13    1    4    4    0    0  0.41670513332E+01 -0.39405783743E+02 -0.22322979110E+03  0.22671947368E+03  0.00000000000E+00 0. -1.
        -14    1    4    4    0    0  0.77468356253E+02 -0.29425621341E+02 -0.18553370465E+03  0.20319933310E+03  0.00000000000E+00 0.  1.
<mgrwt>
<rscale>  2 0.19985022E+03</rscale>
<asrwt>0</asrwt>
<pdfrwt beam="1">  1       21 0.31878068E-02 0.20081225E+03</pdfrwt>
<pdfrwt beam="2">  1       21 0.29824833E+00 0.20081225E+03</pdfrwt>
<totfact> 0.19830682E+04</totfact>
</mgrwt>
</event>
<event>
12    1  0.1019868E-001  0.1814694E+03  0.7546771E-02  0.1166434E+00
         21   -1    0    0  501  502  0.00000000000E+00  0.00000000000E+00  0.34802824883E+03  0.34802824883E+03  0.00000000000E+00 0.  1.
         21   -1    0    0  502  503 -0.00000000000E+00 -0.00000000000E+00 -0.14504908801E+03  0.14504908801E+03  0.00000000000E+00 0.  1.
         -6    2    1    2    0  503 -0.55763390293E+02  0.12062073670E+00  0.24703024885E+03  0.30652091883E+03  0.17268919939E+03 0.  0.
        -24    2    3    3    0    0 -0.89860823347E+02 -0.52872308529E+01  0.12233685333E+03  0.17705118227E+03  0.90982927390E+02 0.  0.
          6    2    1    2  501    0  0.55763390293E+02 -0.12062073670E+00 -0.44051088022E+02  0.18655641802E+03  0.17249124181E+03 0.  0.
         24    2    5    5    0    0  0.99068877219E+02 -0.29631268847E+02 -0.28554122116E+02  0.13170671882E+03  0.76411173041E+02 0.  0.
          5    1    5    5  501    0 -0.43305486926E+02  0.29510648111E+02 -0.15496965906E+02  0.54849699198E+02  0.47000000000E+01 0. -1.
        -11    1    6    6    0    0  0.15882333078E+02 -0.29205105954E+02  0.16487122974E+02  0.37108111535E+02  0.00000000000E+00 0.  1.
         12    1    6    6    0    0  0.83186544141E+02 -0.42616289385E+00 -0.45041245090E+02  0.94598607285E+02  0.00000000000E+00 0. -1.
         -5    1    3    3    0  503  0.34097433054E+02  0.54078515896E+01  0.12469339552E+03  0.12946973656E+03  0.47000000000E+01 0.  1.
         13    1    4    4    0    0 -0.62856926565E+02  0.24143086580E+02  0.24978123385E+02  0.71817744984E+02  0.00000000000E+00 0. -1.
        -14    1    4    4    0    0 -0.27003896782E+02 -0.29430317433E+02  0.97358729944E+02  0.10523343728E+03  0.00000000000E+00 0.  1.
<mgrwt>
<rscale>  2 0.18142225E+03</rscale>
<asrwt>0</asrwt>
<pdfrwt beam="1">  1       21 0.53542807E-01 0.18146936E+03</pdfrwt>
<pdfrwt beam="2">  1       21 0.22315244E-01 0.18146936E+03</pdfrwt>
<totfact> 0.62341658E+04</totfact>
</mgrwt>
</event>
<event>
12    1  0.1019868E-001  0.2302171E+03  0.7546771E-02  0.1126493E+00
         21   -1    0    0  503  502  0.00000000000E+00  0.00000000000E+00  0.35152407530E+03  0.35152407530E+03  0.00000000000E+00 0.  1.
         21   -1    0    0  501  503 -0.00000000000E+00 -0.00000000000E+00 -0.15079736891E+03  0.15079736891E+03  0.00000000000E+00 0. -1.
          6    2    1    2  501    0 -0.27136544778E+02 -0.14959552699E+03  0.10483752769E+03  0.25293289348E+03  0.17282629324E+03 0.  0.
         24    2    3    3    0    0 -0.24529464201E+01 -0.42155374359E+02  0.10994370651E+03  0.14247552846E+03  0.80178332953E+02 0.  0.
         -6    2    1    2    0  502  0.27136544778E+02  0.14959552699E+03  0.95889178698E+02  0.24938855073E+03  0.17287192046E+03 0.  0.
        -24    2    5    5    0    0 -0.15160642942E+02  0.99942172606E+01  0.40290902254E+02  0.93212892856E+02  0.82070439971E+02 0.  0.
          5    1    3    3  501    0 -0.24683598358E+02 -0.10744015263E+03 -0.51061788184E+01  0.11045736502E+03  0.47000000000E+01 0. -1.
        -13    1    4    4    0    0 -0.17872646588E+02 -0.61064718261E+02  0.62837371093E+02  0.89425200689E+02  0.00000000000E+00 0.  1.
         14    1    4    4    0    0  0.15419700168E+02  0.18909343903E+02  0.47106335416E+02  0.53050327770E+02  0.00000000000E+00 0. -1.
         -5    1    5    5    0  502  0.42297187721E+02  0.13960130973E+03  0.55598276444E+02  0.15617565787E+03  0.47000000000E+01 0.  1.
         13    1    6    6    0    0 -0.24764202409E+02 -0.22917473775E+02  0.47416289754E+02  0.58196055358E+02  0.00000000000E+00 0. -1.
        -14    1    6    6    0    0  0.96035594671E+01  0.32911691036E+02 -0.71253875002E+01  0.35016837497E+02  0.00000000000E+00 0.  1.
<mgrwt>
<rscale>  2 0.23020854E+03</rscale>
<asrwt>0</asrwt>
<pdfrwt beam="1">  1       21 0.54080627E-01 0.23021710E+03</pdfrwt>
<pdfrwt beam="2">  1       21 0.23199595E-01 0.23021710E+03</pdfrwt>
<totfact> 0.55483303E+04</totfact>
</mgrwt>
</event>
<event>
12    1  0.1019868E-001  0.1849779E+03  0.7546771E-02  0.1163648E+00
         21   -1    0    0  503  502  0.00000000000E+00  0.00000000000E+00  0.35498365866E+03  0.35498365866E+03  0.00000000000E+00 0.  1.
         21   -1    0    0  501  503 -0.00000000000E+00 -0.00000000000E+00 -0.24004779556E+03  0.24004779556E+03  0.00000000000E+00 0. -1.
          6    2    1    2  501    0 -0.17662971116E+02  0.54191869257E+02 -0.17385899128E+03  0.25207478362E+03  0.17339552603E+03 0.  0.
         24    2    3    3    0    0  0.24481272409E+02  0.70001688917E+02 -0.51024767415E+02  0.12116861794E+03  0.81109419517E+02 0.  0.
         -6    2    1    2    0  502  0.17662971116E+02 -0.54191869257E+02  0.28879485439E+03  0.34295667060E+03  0.17597747227E+03 0.  0.
        -24    2    5    5    0    0  0.99834223129E+01 -0.22390753120E+02  0.39786998080E+02  0.91764933154E+02  0.78973306846E+02 0.  0.
          5    1    3    3  501    0 -0.42144243526E+02 -0.15809819660E+02 -0.12283422386E+03  0.13090616568E+03  0.47000000000E+01 0. -1.
        -11    1    4    4    0    0 -0.14107809869E+02  0.69838357250E+02 -0.31133088422E+02  0.77754071516E+02  0.00000000000E+00 0.  1.
         12    1    4    4    0    0  0.38589082278E+02  0.16333166725E+00 -0.19891678993E+02  0.43414546427E+02  0.00000000000E+00 0. -1.
         -5    1    5    5    0  502  0.76795488036E+01 -0.31801116137E+02  0.24900785631E+03  0.25119173745E+03  0.47000000000E+01 0.  1.
         11    1    6    6    0    0 -0.15084148063E+02  0.23746985994E+02  0.23877769974E+02  0.36899847771E+02  0.00000000000E+00 0. -1.
        -12    1    6    6    0    0  0.25067570376E+02 -0.46137739114E+02  0.15909228106E+02  0.54865085383E+02  0.00000000000E+00 0.  1.
<mgrwt>
<rscale>  2 0.18436114E+03</rscale>
<asrwt>0</asrwt>
<pdfrwt beam="1">  1       21 0.54612871E-01 0.18497786E+03</pdfrwt>
<pdfrwt beam="2">  1       21 0.36930430E-01 0.18497786E+03</pdfrwt>
<totfact> 0.22488183E+04</totfact>
</mgrwt>
</event>
<event>
12    1  0.1019868E-001  0.1738638E+03  0.7546771E-02  0.1174103E+00
         21   -1    0    0  501  502  0.00000000000E+00  0.00000000000E+00  0.90264131218E+03  0.90264131218E+03  0.00000000000E+00 0.  1.
         21   -1    0    0  502  503 -0.00000000000E+00 -0.00000000000E+00 -0.51641451559E+02  0.51641451559E+02  0.00000000000E+00 0.  1.
         -6    2    1    2    0  503 -0.12269336518E+02  0.93945146732E+00  0.14198605078E+03  0.22447418571E+03  0.17342780125E+03 0.  0.
        -24    2    3    3    0    0  0.38997684569E+02 -0.47939245457E+02  0.69370334766E+02  0.12292337736E+03  0.80491755482E+02 0.  0.
          6    2    1    2  501    0  0.12269336518E+02 -0.93945146732E+00  0.70901380984E+03  0.72980857802E+03  0.17253567406E+03 0.  0.
         24    2    5    5    0    0  0.29557736542E+02 -0.61416145879E-01  0.19017948866E+03  0.21066427963E+03  0.85659425885E+02 0.  0.
          5    1    5    5  501    0 -0.17288400024E+02 -0.87803532144E+00  0.51883432118E+03  0.51914429840E+03  0.47000000000E+01 0. -1.
        -13    1    6    6    0    0 -0.20318083568E+02  0.95116989085E+01  0.12998862272E+03  0.13191034445E+03  0.00000000000E+00 0.  1.
         14    1    6    6    0    0  0.49875820110E+02 -0.95731150544E+01  0.60190865937E+02  0.78753935176E+02  0.00000000000E+00 0. -1.
         -5    1    3    3    0  503 -0.51267021087E+02  0.48878696924E+02  0.72615716011E+02  0.10155080835E+03  0.47000000000E+01 0.  1.
         11    1    4    4    0    0 -0.12834843020E+02 -0.45366351886E+02  0.46470162209E+02  0.66199056296E+02  0.00000000000E+00 0. -1.
        -12    1    4    4    0    0  0.51832527589E+02 -0.25728935705E+01  0.22900172557E+02  0.56724321069E+02  0.00000000000E+00 0.  1.
<mgrwt>
<rscale>  2 0.17364090E+03</rscale>
<asrwt>0</asrwt>
<pdfrwt beam="1">  1       21 0.13886788E+00 0.17386380E+03</pdfrwt>
<pdfrwt beam="2">  1       21 0.79448394E-02 0.17386380E+03</pdfrwt>
<totfact> 0.44855357E+04</totfact>
</mgrwt>
</event>
<event>
12    1  0.1019868E-001  0.1797820E+03  0.7546771E-02  0.1168294E+00
         21   -1    0    0  501  502  0.00000000000E+00  0.00000000000E+00  0.52440638403E+03  0.52440638403E+03  0.00000000000E+00 0.  1.
         21   -1    0    0  502  503 -0.00000000000E+00 -0.00000000000E+00 -0.70380769011E+02  0.70380769011E+02  0.00000000000E+00 0.  1.
         -6    2    1    2    0  503 -0.18850561302E+01 -0.49001771905E+02  0.12047769680E+03  0.21641726824E+03  0.17296482729E+03 0.  0.
        -24    2    3    3    0    0  0.38642326328E+02  0.24745987677E+02  0.79974422825E+02  0.12290894789E+03  0.81271814758E+02 0.  0.
          6    2    1    2  501    0  0.18850561302E+01  0.49001771905E+02  0.33354791821E+03  0.37836988480E+03  0.17176969725E+03 0.  0.
         24    2    5    5    0    0  0.50297649171E+02 -0.77869649397E+01  0.23875077925E+03  0.25763328160E+03  0.82355830750E+02 0.  0.
          5    1    5    5  501    0 -0.48412593041E+02  0.56788736845E+02  0.94797138959E+02  0.12073660320E+03  0.47000000000E+01 0. -1.
        -13    1    6    6    0    0 -0.97366547111E+01  0.26019846103E+02  0.62622453506E+02  0.68508441227E+02  0.00000000000E+00 0.  1.
         14    1    6    6    0    0  0.60034303882E+02 -0.33806811043E+02  0.17612832575E+03  0.18912484037E+03  0.00000000000E+00 0. -1.
         -5    1    3    3    0  503 -0.40527382458E+02 -0.73747759582E+02  0.40503273978E+02  0.93508320353E+02  0.47000000000E+01 0.  1.
         11    1    4    4    0    0  0.53561742104E+02  0.20551149606E+02  0.88312395331E+02  0.10531044173E+03  0.00000000000E+00 0. -1.
        -12    1    4    4    0    0 -0.14919415776E+02  0.41948380709E+01 -0.83379725059E+01  0.17598506160E+02  0.00000000000E+00 0.  1.
<mgrwt>
<rscale>  2 0.17949390E+03</rscale>
<asrwt>0</asrwt>
<pdfrwt beam="1">  1       21 0.80677902E-01 0.17978198E+03</pdfrwt>
<pdfrwt beam="2">  1       21 0.10827811E-01 0.17978198E+03</pdfrwt>
<totfact> 0.95596737E+04</totfact>
</mgrwt>
</event>
<event>
12    1  0.1019868E-001  0.1765563E+03  0.7546771E-02  0.1171333E+00
         21   -1    0    0  501  502  0.00000000000E+00  0.00000000000E+00  0.19235965101E+03  0.19235965101E+03  0.00000000000E+00 0.  1.
         21   -1    0    0  502  503 -0.00000000000E+00 -0.00000000000E+00 -0.16908410970E+03  0.16908410970E+03  0.00000000000E+00 0.  1.
         -6    2    1    2    0  503 -0.21617646776E+01 -0.33815238348E+02 -0.26710421049E+02  0.17794796272E+03  0.17263802383E+03 0.  0.
        -24    2    3    3    0    0 -0.11133730532E+02 -0.57286386031E+01  0.49872866318E+02  0.95750376620E+02  0.80771619845E+02 0.  0.
          6    2    1    2  501    0  0.21617646776E+01  0.33815238348E+02  0.49985962361E+02  0.18349579798E+03  0.17327425623E+03 0.  0.
         24    2    5    5    0    0  0.58369413283E+02  0.40458912904E+02 -0.89161556250E+00  0.10724583989E+03  0.80355231042E+02 0.  0.
          5    1    5    5  501    0 -0.56207648606E+02 -0.66436745565E+01  0.50877577924E+02  0.76249958090E+02  0.47000000000E+01 0. -1.
        -11    1    6    6    0    0  0.43882750241E+02  0.14953037267E+02  0.37008567986E+02  0.59320512444E+02  0.00000000000E+00 0.  1.
         12    1    6    6    0    0  0.14486663042E+02  0.25505875637E+02 -0.37900183549E+02  0.47925327450E+02  0.00000000000E+00 0. -1.
         -5    1    3    3    0  503  0.89719658545E+01 -0.28086599745E+02 -0.76583287367E+02  0.82197586098E+02  0.47000000000E+01 0.  1.
         13    1    4    4    0    0 -0.28099646788E+02 -0.32965457782E+02  0.46396343446E+02  0.63473870541E+02  0.00000000000E+00 0. -1.
        -14    1    4    4    0    0  0.16965916256E+02  0.27236819179E+02  0.34765228720E+01  0.32276506079E+02  0.00000000000E+00 0.  1.
<mgrwt>
<rscale>  2 0.17639996E+03</rscale>
<asrwt>0</asrwt>
<pdfrwt beam="1">  1       21 0.29593793E-01 0.17655626E+03</pdfrwt>
<pdfrwt beam="2">  1       21 0.26012940E-01 0.17655626E+03</pdfrwt>
<totfact> 0.15441144E+05</totfact>
</mgrwt>
</event>
<event>
12    1  0.1019868E-001  0.1891089E+03  0.7546771E-02  0.1159912E+00
         21   -1    0    0  503  502  0.00000000000E+00  0.00000000000E+00  0.67409009252E+02  0.67409009252E+02  0.00000000000E+00 0. -1.
         21   -1    0    0  501  503 -0.00000000000E+00 -0.00000000000E+00 -0.86865091004E+03  0.86865091004E+03  0.00000000000E+00 0. -1.
          6    2    1    2  501    0 -0.42546063807E+02 -0.59136840527E+02 -0.69781291354E+03  0.72298343218E+03  0.17451317274E+03 0.  0.
         24    2    3    3    0    0 -0.75907873835E+02  0.89994724818E+01 -0.46811513650E+03  0.48103565621E+03  0.80128183038E+02 0.  0.
         -6    2    1    2    0  502  0.42546063807E+02  0.59136840527E+02 -0.10342898725E+03  0.21307648711E+03  0.17145466019E+03 0.  0.
        -24    2    5    5    0    0 -0.26842109849E+02  0.69947651606E+02 -0.38408257279E+02  0.11725698176E+03  0.81613924779E+02 0.  0.
          5    1    3    3  501    0  0.33361810028E+02 -0.68136313009E+02 -0.22969777704E+03  0.24194777597E+03  0.47000000000E+01 0. -1.
        -11    1    4    4    0    0 -0.88340248528E+01  0.31720345398E+01 -0.14008276523E+01  0.94902116063E+01  0.00000000000E+00 0.  1.
         12    1    4    4    0    0 -0.67073848982E+02  0.58274379419E+01 -0.46671430884E+03  0.47154544461E+03  0.00000000000E+00 0. -1.
         -5    1    5    5    0  502  0.69388173656E+02 -0.10810811078E+02 -0.65020729972E+02  0.95819505350E+02  0.47000000000E+01 0.  1.
         13    1    6    6    0    0 -0.23206576632E+02 -0.77698972642E+01  0.90843699844E+01  0.26104449439E+02  0.00000000000E+00 0. -1.
        -14    1    6    6    0    0 -0.36355332173E+01  0.77717548870E+02 -0.47492627263E+02  0.91152532321E+02  0.00000000000E+00 0.  1.
<mgrwt>
<rscale>  2 0.18840026E+03</rscale>
<asrwt>0</asrwt>
<pdfrwt beam="1">  1       21 0.10370618E-01 0.18910891E+03</pdfrwt>
<pdfrwt beam="2">  1       21 0.13363859E+00 0.18910891E+03</pdfrwt>
<totfact> 0.30734292E+04</totfact>
</mgrwt>
</event>
<event>
12    1  0.1019868E-001  0.1755104E+03  0.7546771E-02  0.1172606E+00
         21   -1    0    0  503  502  0.00000000000E+00  0.00000000000E+00  0.40636300333E+02  0.40636300333E+02  0.00000000000E+00 0. -1.
         21   -1    0    0  501  503 -0.00000000000E+00 -0.00000000000E+00 -0.86321747381E+03  0.86321747381E+03  0.00000000000E+00 0. -1.
          6    2    1    2  501    0 -0.25146549671E+02  0.15041579544E+02 -0.57235051382E+03  0.59820809405E+03  0.17149115149E+03 0.  0.
         24    2    3    3    0    0 -0.39910000131E+02 -0.52269398777E+02 -0.30623450611E+03  0.32327438052E+03  0.80011587987E+02 0.  0.
         -6    2    1    2    0  502  0.25146549671E+02 -0.15041579544E+02 -0.25023065965E+03  0.30564568009E+03  0.17304710530E+03 0.  0.
        -24    2    5    5    0    0  0.15680103027E+02 -0.34555173784E+02 -0.44041183407E+02  0.98265391522E+02  0.79224590052E+02 0.  0.
          5    1    3    3  501    0  0.14763450461E+02  0.67310978321E+02 -0.26611600771E+03  0.27493371352E+03  0.47000000000E+01 0. -1.
        -13    1    4    4    0    0 -0.24038841870E+01  0.62619215102E+01  0.22339238910E+01  0.70697055197E+01  0.00000000000E+00 0.  1.
         14    1    4    4    0    0 -0.37506115944E+02 -0.58531320287E+02 -0.30846843000E+03  0.31620467500E+03  0.00000000000E+00 0. -1.
         -5    1    5    5    0  502  0.94664466434E+01  0.19513594240E+02 -0.20618947625E+03  0.20738028857E+03  0.47000000000E+01 0.  1.
         13    1    6    6    0    0  0.44197463144E+02 -0.26104683644E+02 -0.45348668136E+02  0.68493590636E+02  0.00000000000E+00 0. -1.
        -14    1    6    6    0    0 -0.28517360117E+02 -0.84504901399E+01  0.13074847297E+01  0.29771800885E+02  0.00000000000E+00 0.  1.
<mgrwt>
<rscale>  2 0.17512565E+03</rscale>
<asrwt>0</asrwt>
<pdfrwt beam="1">  1       21 0.62517392E-02 0.17551039E+03</pdfrwt>
<pdfrwt beam="2">  1       21 0.13280267E+00 0.17551039E+03</pdfrwt>
<totfact> 0.75895333E+04</totfact>
</mgrwt>
</event>
<event>
12    1  0.1019868E-001  0.1906444E+03  0.7546771E-02  0.1158474E+00
         21   -1    0    0  501  502  0.00000000000E+00  0.00000000000E+00  0.12240410912E+03  0.12240410912E+03  0.00000000000E+00 0. -1.
         21   -1    0    0  502  503 -0.00000000000E+00 -0.00000000000E+00 -0.32500301864E+03  0.32500301864E+03  0.00000000000E+00 0.  1.
         -6    2    1    2    0  503 -0.11220145126E+02  0.77125323085E+02 -0.17101298202E+03  0.25416388088E+03  0.17111291947E+03 0.  0.
        -24    2    3    3    0    0  0.55781850671E+02  0.42813681072E+02 -0.12981697875E+03  0.16822345440E+03  0.80635330271E+02 0.  0.
          6    2    1    2  501    0  0.11220145126E+02 -0.77125323085E+02 -0.31585927503E+02  0.19324324687E+03  0.17398584577E+03 0.  0.
         24    2    5    5    0    0  0.50005139955E+00 -0.18155252349E+02 -0.81004924021E+02  0.11541833525E+03  0.80185604426E+02 0.  0.
          5    1    5    5  501    0  0.10720093726E+02 -0.58970070735E+02  0.49418996518E+02  0.77824911622E+02  0.47000000000E+01 0. -1.
        -13    1    6    6    0    0 -0.21442826560E+02 -0.36635909600E+02 -0.17844625780E+02  0.46047967950E+02  0.00000000000E+00 0.  1.
         14    1    6    6    0    0  0.21942877960E+02  0.18480657250E+02 -0.63160298241E+02  0.69370367301E+02  0.00000000000E+00 0. -1.
         -5    1    3    3    0  503 -0.67001995796E+02  0.34311642013E+02 -0.41196003269E+02  0.85940426480E+02  0.47000000000E+01 0.  1.
         11    1    4    4    0    0 -0.64828715725E+01  0.19870127705E+02  0.16426465575E+01  0.20965397362E+02  0.00000000000E+00 0. -1.
        -12    1    4    4    0    0  0.62264722243E+02  0.22943553368E+02 -0.13145962531E+03  0.14725805704E+03  0.00000000000E+00 0.  1.
<mgrwt>
<rscale>  2 0.18998643E+03</rscale>
<asrwt>0</asrwt>
<pdfrwt beam="1">  1       21 0.18831401E-01 0.19064439E+03</pdfrwt>
<pdfrwt beam="2">  1       21 0.50000464E-01 0.19064439E+03</pdfrwt>
<totfact> 0.98471251E+04</totfact>
</mgrwt>
</event>
<event>
12    1  0.1019868E-001  0.1778245E+03  0.7546771E-02  0.1169951E+00
         21   -1    0    0  503  502  0.00000000000E+00  0.00000000000E+00  0.20999585278E+02  0.20999585278E+02  0.00000000000E+00 0.  1.
         21   -1    0    0  501  503 -0.00000000000E+00 -0.00000000000E+00 -0.16014553831E+04  0.16014553831E+04  0.00000000000E+00 0.  1.
          6    2    1    2  501    0  0.21173237617E+02 -0.29735661867E+02 -0.98917096477E+03  0.10050091684E+04  0.17393020287E+03 0.  0.
         24    2    3    3    0    0  0.22334848878E+02  0.22553008732E+02 -0.25704759512E+03  0.27100496352E+03  0.79766787682E+02 0.  0.
         -6    2    1    2    0  502 -0.21173237617E+02  0.29735661867E+02 -0.59128483302E+03  0.61744579994E+03  0.17403748596E+03 0.  0.
        -24    2    5    5    0    0 -0.75441645263E+02  0.12110267804E+02 -0.28949204289E+03  0.31027045464E+03  0.81388031662E+02 0.  0.
          5    1    3    3  501    0 -0.11616112612E+01 -0.52288670598E+02 -0.73212336965E+03  0.73400420489E+03  0.47000000000E+01 0. -1.
        -13    1    4    4    0    0 -0.15299271178E+02  0.17292451611E+02 -0.20639732696E+03  0.20768474464E+03  0.00000000000E+00 0.  1.
         14    1    4    4    0    0  0.37634120056E+02  0.52605571210E+01 -0.50650268159E+02  0.63320218873E+02  0.00000000000E+00 0. -1.
         -5    1    5    5    0  502  0.54268407646E+02  0.17625394062E+02 -0.30179279013E+03  0.30717534530E+03  0.47000000000E+01 0.  1.
         13    1    6    6    0    0 -0.67248833987E+01  0.37287227467E+02 -0.84472977718E+02  0.92581020482E+02  0.00000000000E+00 0. -1.
        -14    1    6    6    0    0 -0.68716761864E+02 -0.25176959662E+02 -0.20501906517E+03  0.21768943416E+03  0.00000000000E+00 0.  1.
<mgrwt>
<rscale>  2 0.17779827E+03</rscale>
<asrwt>0</asrwt>
<pdfrwt beam="1">  1       21 0.32307052E-02 0.17782453E+03</pdfrwt>
<pdfrwt beam="2">  1       21 0.24637777E+00 0.17782453E+03</pdfrwt>
<totfact> 0.39555538E+04</totfact>
</mgrwt>
</event>
<event>
12    1  0.1019868E-001  0.2145133E+03  0.7546771E-02  0.1138153E+00
         21   -1    0    0  501  502  0.00000000000E+00  0.00000000000E+00  0.23373259702E+02  0.23373259702E+02  0.00000000000E+00 0.  1.
         21   -1    0    0  502  503 -0.00000000000E+00 -0.00000000000E+00 -0.19667274871E+04  0.19667274871E+04  0.00000000000E+00 0. -1.
         -6    2    1    2    0  503 -0.78809655999E+02  0.98657767637E+02 -0.10137580547E+04  0.10362052541E+04  0.17341170142E+03 0.  0.
        -24    2    3    3    0    0  0.22591150064E+02  0.67108996617E+02 -0.43888544529E+03  0.45158738279E+03  0.79352080741E+02 0.  0.
          6    2    1    2  501    0  0.78809655999E+02 -0.98657767637E+02 -0.92959617270E+03  0.95389549269E+03  0.17269409278E+03 0.  0.
         24    2    5    5    0    0  0.36728959982E+02  0.10064199381E+02 -0.26455537794E+03  0.27869729973E+03  0.78945121864E+02 0.  0.
          5    1    5    5  501    0  0.42080696017E+02 -0.10872196702E+03 -0.66504079475E+03  0.67519819296E+03  0.47000000000E+01 0. -1.
        -11    1    6    6    0    0  0.51929773963E+02 -0.14110308762E+02 -0.12247629953E+03  0.13377685220E+03  0.00000000000E+00 0.  1.
         12    1    6    6    0    0 -0.15200813981E+02  0.24174508143E+02 -0.14207907841E+03  0.14492044753E+03  0.00000000000E+00 0. -1.
         -5    1    3    3    0  503 -0.10140080606E+03  0.31548771020E+02 -0.57487260944E+03  0.58461787136E+03  0.47000000000E+01 0.  1.
         13    1    4    4    0    0  0.18686253803E+02  0.64778812684E+02 -0.44131261652E+03  0.44643285738E+03  0.00000000000E+00 0. -1.
        -14    1    4    4    0    0  0.39048962611E+01  0.23301839332E+01  0.24271712281E+01  0.51545254042E+01  0.00000000000E+00 0.  1.
<mgrwt>
<rscale>  2 0.21436818E+03</rscale>
<asrwt>0</asrwt>
<pdfrwt beam="1">  1       21 0.35958850E-02 0.21451325E+03</pdfrwt>
<pdfrwt beam="2">  1       21 0.30257356E+00 0.21451325E+03</pdfrwt>
<totfact> 0.15116411E+04</totfact>
</mgrwt>
</event>
<event>
12    1  0.1019868E-001  0.2770025E+03  0.7546771E-02  0.1097474E+00
         21   -1    0    0  501  502  0.00000000000E+00  0.00000000000E+00  0.33210568545E+03  0.33210568545E+03  0.00000000000E+00 0. -1.
         21   -1    0    0  502  503 -0.00000000000E+00 -0.00000000000E+00 -0.33082568004E+03  0.33082568004E+03  0.00000000000E+00 0. -1.
         -6    2    1    2    0  503  0.13501236377E+03 -0.16927076227E+03 -0.18214387402E+03  0.33152192569E+03  0.17276998304E+03 0.  0.
        -24    2    3    3    0    0  0.14785129994E+03 -0.15293672380E+03 -0.10487296873E+03  0.25136881035E+03  0.83296403668E+02 0.  0.
          6    2    1    2  501    0 -0.13501236377E+03  0.16927076227E+03  0.18342387943E+03  0.33140943981E+03  0.17119277998E+03 0.  0.
         24    2    5    5    0    0 -0.12930374878E+03  0.53493556701E+02  0.11576223727E+03  0.19710702943E+03  0.76611131149E+02 0.  0.
          5    1    5    5  501    0 -0.57086149942E+01  0.11577720556E+03  0.67661642165E+02  0.13430241038E+03  0.47000000000E+01 0. -1.
        -13    1    6    6    0    0 -0.26603583661E+02  0.20050070803E+02  0.74277517151E+02  0.81405807882E+02  0.00000000000E+00 0.  1.
         14    1    6    6    0    0 -0.10270016512E+03  0.33443485898E+02  0.41484720117E+02  0.11570122154E+03  0.00000000000E+00 0. -1.
         -5    1    3    3    0  503 -0.12838936169E+02 -0.16334038463E+02 -0.77270905292E+02  0.80153115343E+02  0.47000000000E+01 0.  1.
         11    1    4    4    0    0  0.15839837614E+02 -0.30522215403E+02  0.12346565633E+02  0.36536882347E+02  0.00000000000E+00 0. -1.
        -12    1    4    4    0    0  0.13201146233E+03 -0.12241450840E+03 -0.11721953436E+03  0.21483192800E+03  0.00000000000E+00 0.  1.
<mgrwt>
<rscale>  2 0.27675695E+03</rscale>
<asrwt>0</asrwt>
<pdfrwt beam="1">  1       21 0.51093183E-01 0.27700252E+03</pdfrwt>
<pdfrwt beam="2">  1       21 0.50896258E-01 0.27700252E+03</pdfrwt>
<totfact> 0.12752874E+04</totfact>
</mgrwt>
</event>
<event>
12    1  0.1019868E-001  0.1826248E+03  0.7546771E-02  0.1165355E+00
         21   -1    0    0  503  502  0.00000000000E+00  0.00000000000E+00  0.13913027889E+03  0.13913027889E+03  0.00000000000E+00 0.  1.
         21   -1    0    0  501  503 -0.00000000000E+00 -0.00000000000E+00 -0.34961914589E+03  0.34961914589E+03  0.00000000000E+00 0.  1.
          6    2    1    2  501    0  0.54656806031E+02  0.11371693883E+02 -0.24243485910E+03  0.30335152817E+03  0.17358227693E+03 0.  0.
         24    2    3    3    0    0  0.95948055691E+02  0.38599809674E+02 -0.19431214746E+03  0.23418345053E+03  0.79929363519E+02 0.  0.
         -6    2    1    2    0  502 -0.54656806031E+02 -0.11371693883E+02  0.31945992105E+02  0.18539789661E+03  0.17388258047E+03 0.  0.
        -24    2    5    5    0    0 -0.30612383451E+01 -0.76416774562E+02  0.13525031511E+02  0.10022520783E+03  0.63350384310E+02 0.  0.
          5    1    3    3  501    0 -0.41291249661E+02 -0.27228115792E+02 -0.48122711641E+02  0.69168077636E+02  0.47000000000E+01 0. -1.
        -11    1    4    4    0    0  0.79978745641E+02 -0.84602189566E+01 -0.13067468563E+03  0.15344070035E+03  0.00000000000E+00 0.  1.
         12    1    4    4    0    0  0.15969310051E+02  0.47060028631E+02 -0.63637461835E+02  0.80742750183E+02  0.00000000000E+00 0. -1.
         -5    1    5    5    0  502 -0.51595567686E+02  0.65045080679E+02  0.18420960593E+02  0.85172688783E+02  0.47000000000E+01 0.  1.
         11    1    6    6    0    0  0.97403229007E+01 -0.24913727514E+02 -0.23426457692E+02  0.35557933416E+02  0.00000000000E+00 0. -1.
        -12    1    6    6    0    0 -0.12801561246E+02 -0.51503047048E+02  0.36951489203E+02  0.64667274412E+02  0.00000000000E+00 0.  1.
<mgrwt>
<rscale>  2 0.18255333E+03</rscale>
<asrwt>0</asrwt>
<pdfrwt beam="1">  1       21 0.21404659E-01 0.18262484E+03</pdfrwt>
<pdfrwt beam="2">  1       21 0.53787560E-01 0.18262484E+03</pdfrwt>
<totfact> 0.66745561E+04</totfact>
</mgrwt>
</event>
<event>
12    1  0.1019868E-001  0.1891514E+03  0.7546771E-02  0.1159566E+00
         21   -1    0    0  501  502  0.00000000000E+00  0.00000000000E+00  0.16518589655E+03  0.16518589655E+03  0.00000000000E+00 0.  1.
         21   -1    0    0  502  503 -0.00000000000E+00 -0.00000000000E+00 -0.21535665814E+03  0.21535665814E+03  0.00000000000E+00 0.  1.
         -6    2    1    2    0  503  0.45005653441E+02  0.55689443784E+02 -0.33706576704E+02  0.19067597700E+03  0.17347729506E+03 0.  0.
        -24    2    3    3    0    0 -0.93719957868E+01  0.59540435115E+02 -0.73097980964E+02  0.12325541931E+03  0.78839621062E+02 0.  0.
          6    2    1    2  501    0 -0.45005653441E+02 -0.55689443784E+02 -0.16464184886E+02  0.18986657770E+03  0.17507548359E+03 0.  0.
         24    2    5    5    0    0 -0.54149676937E+02 -0.66343401758E+02  0.45289277251E+02  0.12636303392E+03  0.81134846024E+02 0.  0.
          5    1    5    5  501    0  0.91440234957E+01  0.10653957974E+02 -0.61753462137E+02  0.63503543776E+02  0.47000000000E+01 0. -1.
        -11    1    6    6    0    0 -0.70462283200E+02 -0.38133999660E+02  0.48440134590E+02  0.93624686504E+02  0.00000000000E+00 0.  1.
         12    1    6    6    0    0  0.16312606264E+02 -0.28209402097E+02 -0.31508573389E+01  0.32738347420E+02  0.00000000000E+00 0. -1.
         -5    1    3    3    0  503  0.54377649228E+02 -0.38509913310E+01  0.39391404259E+02  0.67420557690E+02  0.47000000000E+01 0.  1.
         11    1    4    4    0    0 -0.11576892713E+02 -0.60191135209E+01 -0.53097862988E+02  0.54677575169E+02  0.00000000000E+00 0. -1.
        -12    1    4    4    0    0  0.22048969264E+01  0.65559548636E+02 -0.20000117976E+02  0.68577844140E+02  0.00000000000E+00 0.  1.
<mgrwt>
<rscale>  2 0.18878073E+03</rscale>
<asrwt>0</asrwt>
<pdfrwt beam="1">  1       21 0.25413215E-01 0.18915139E+03</pdfrwt>
<pdfrwt beam="2">  1       21 0.33131794E-01 0.18915139E+03</pdfrwt>
<totfact> 0.12891741E+05</totfact>
</mgrwt>
</event>
<event>
12    1  0.1019868E-001  0.1992097E+03  0.7546771E-02  0.1151637E+00
         21   -1    0    0  503  502  0.00000000000E+00  0.00000000000E+00  0.45206541334E+02  0.45206541334E+02  0.00000000000E+00 0.  1.
         21   -1    0    0  501  503 -0.00000000000E+00 -0.00000000000E+00 -0.94442548040E+03  0.94442548040E+03  0.00000000000E+00 0. -1.
          6    2    1    2  501    0 -0.86412895381E+02  0.44051997022E+02 -0.59775076781E+03  0.62829066152E+03  0.16743777354E+03 0.  0.
         24    2    3    3    0    0 -0.79476383746E+02  0.80225827014E+02 -0.55370111879E+03  0.57067883332E+03  0.79603536080E+02 0.  0.
         -6    2    1    2    0  502  0.86412895381E+02 -0.44051997022E+02 -0.30146817126E+03  0.36134136021E+03  0.17400216490E+03 0.  0.
        -24    2    5    5    0    0  0.10218444188E+03  0.46107992439E+01 -0.13549983629E+03  0.18760481360E+03  0.79827569282E+02 0.  0.
          5    1    3    3  501    0 -0.69365116349E+01 -0.36173829992E+02 -0.44049649019E+02  0.57611828201E+02  0.47000000000E+01 0. -1.
        -13    1    4    4    0    0  0.56275666312E+01  0.19936149742E+02 -0.28563015140E+02  0.35284067319E+02  0.00000000000E+00 0.  1.
         14    1    4    4    0    0 -0.85103950377E+02  0.60289677272E+02 -0.52513810365E+03  0.53539476600E+03  0.00000000000E+00 0. -1.
         -5    1    5    5    0  502 -0.15771546499E+02 -0.48662796266E+02 -0.16596833496E+03  0.17373654662E+03  0.47000000000E+01 0.  1.
         11    1    6    6    0    0 -0.93862649001E+01 -0.12638445405E+02 -0.25579235033E+02  0.30035471295E+02  0.00000000000E+00 0. -1.
        -12    1    6    6    0    0  0.11157070678E+03  0.17249244648E+02 -0.10992060126E+03  0.15756934230E+03  0.00000000000E+00 0.  1.
<mgrwt>
<rscale>  2 0.19776731E+03</rscale>
<asrwt>0</asrwt>
<pdfrwt beam="1">  1       21 0.69548518E-02 0.19920974E+03</pdfrwt>
<pdfrwt beam="2">  1       21 0.14529624E+00 0.19920974E+03</pdfrwt>
<totfact> 0.49519950E+04</totfact>
</mgrwt>
</event>
<event>
12    1  0.1019868E-001  0.2308774E+03  0.7546771E-02  0.1126244E+00
         21   -1    0    0  501  502  0.00000000000E+00  0.00000000000E+00  0.10474188519E+03  0.10474188519E+03  0.00000000000E+00 0.  1.
         21   -1    0    0  502  503 -0.00000000000E+00 -0.00000000000E+00 -0.51273787971E+03  0.51273787971E+03  0.00000000000E+00 0.  1.
         -6    2    1    2    0  503  0.51103798107E+02  0.14373490143E+03 -0.23954874331E+03  0.33269801924E+03  0.17330046599E+03 0.  0.
        -24    2    3    3    0    0  0.45226956578E+01  0.29949600513E+02 -0.16778832547E+03  0.19026016831E+03  0.84430895599E+02 0.  0.
          6    2    1    2  501    0 -0.51103798107E+02 -0.14373490143E+03 -0.16844725122E+03  0.28478174567E+03  0.17162414211E+03 0.  0.
         24    2    5    5    0    0 -0.10089474961E+03 -0.79364813607E+02 -0.11928742552E+03  0.18959022546E+03  0.72363247339E+02 0.  0.
          5    1    5    5  501    0  0.49790951501E+02 -0.64370087820E+02 -0.49159825700E+02  0.95191520211E+02  0.47000000000E+01 0. -1.
        -11    1    6    6    0    0 -0.33975190517E+02  0.94851991812E+00 -0.44202502173E+01  0.34274653502E+02  0.00000000000E+00 0.  1.
         12    1    6    6    0    0 -0.66919559091E+02 -0.80313333525E+02 -0.11486717530E+03  0.15531557196E+03  0.00000000000E+00 0. -1.
         -5    1    3    3    0  503  0.46581102449E+02  0.11378530091E+03 -0.71760417835E+02  0.14243785093E+03  0.47000000000E+01 0.  1.
         13    1    4    4    0    0  0.16522389302E+01  0.56294851091E+02 -0.14410154496E+03  0.15471617696E+03  0.00000000000E+00 0. -1.
        -14    1    4    4    0    0  0.28704567276E+01 -0.26345250577E+02 -0.23686780515E+02  0.35543991348E+02  0.00000000000E+00 0.  1.
<mgrwt>
<rscale>  2 0.23056285E+03</rscale>
<asrwt>0</asrwt>
<pdfrwt beam="1">  1       21 0.16114136E-01 0.23087740E+03</pdfrwt>
<pdfrwt beam="2">  1       21 0.78882751E-01 0.23087740E+03</pdfrwt>
<totfact> 0.47976804E+04</totfact>
</mgrwt>
</event>
<event>
12    1  0.1019868E-001  0.3268316E+03  0.7546771E-02  0.1072553E+00
         21   -1    0    0  503  502  0.00000000000E+00  0.00000000000E+00  0.12580774958E+04  0.12580774958E+04  0.00000000000E+00 0. -1.
         21   -1    0    0  501  503 -0.00000000000E+00 -0.00000000000E+00 -0.10756939264E+04  0.10756939264E+04  0.00000000000E+00 0.  1.
          6    2    1    2  501    0 -0.22398409083E+03 -0.16322831048E+03 -0.10287016602E+04  0.10793729621E+04  0.17322393434E+03 0.  0.
         24    2    3    3    0    0 -0.35847795671E+02 -0.83317164170E+02 -0.34457634528E+03  0.36534873751E+03  0.80746690151E+02 0.  0.
         -6    2    1    2    0  502  0.22398409083E+03  0.16322831048E+03  0.12110852295E+04  0.12543984601E+04  0.17313494549E+03 0.  0.
        -24    2    5    5    0    0  0.22628903021E+03  0.97569658526E+02  0.92731380445E+03  0.96308302456E+03  0.83014798735E+02 0.  0.
          5    1    3    3  501    0 -0.18813629516E+03 -0.79911146307E+02 -0.68412531488E+03  0.71402422460E+03  0.47000000000E+01 0. -1.
        -11    1    4    4    0    0 -0.81834466058E+01 -0.43055550103E+02 -0.28479254607E+03  0.28814500427E+03  0.00000000000E+00 0.  1.
         12    1    4    4    0    0 -0.27664349065E+02 -0.40261614067E+02 -0.59783799214E+02  0.77203733231E+02  0.00000000000E+00 0. -1.
         -5    1    5    5    0  502 -0.23049393774E+01  0.65658651951E+02  0.28377142504E+03  0.29131543555E+03  0.47000000000E+01 0.  1.
         11    1    6    6    0    0  0.31021244602E+02  0.99403271066E-01  0.23883908863E+03  0.24084525686E+03  0.00000000000E+00 0. -1.
        -12    1    6    6    0    0  0.19526778561E+03  0.97470255255E+02  0.68847471582E+03  0.72223776769E+03  0.00000000000E+00 0.  1.
<mgrwt>
<rscale>  2 0.32681980E+03</rscale>
<asrwt>0</asrwt>
<pdfrwt beam="1">  1       21 0.19355038E+00 0.32683159E+03</pdfrwt>
<pdfrwt beam="2">  1       21 0.16549137E+00 0.32683159E+03</pdfrwt>
<totfact> 0.28734199E+01</totfact>
</mgrwt>
</event>
<event>
12    1  0.1019868E-001  0.2098035E+03  0.7546771E-02  0.1141887E+00
         21   -1    0    0  501  502  0.00000000000E+00  0.00000000000E+00  0.43602339847E+03  0.43602339847E+03  0.00000000000E+00 0.  1.
         21   -1    0    0  502  503 -0.00000000000E+00 -0.00000000000E+00 -0.23978920493E+03  0.23978920493E+03  0.00000000000E+00 0. -1.
         -6    2    1    2    0  503 -0.10975146326E+03  0.39815797945E+02  0.35552442273E+03  0.41239110636E+03  0.17331511184E+03 0.  0.
        -24    2    3    3    0    0 -0.91928927994E+02  0.88691246841E+02  0.30249710348E+03  0.33795698209E+03  0.79958483377E+02 0.  0.
          6    2    1    2  501    0  0.10975146326E+03 -0.39815797945E+02 -0.15929022920E+03  0.26342149704E+03  0.17431817614E+03 0.  0.
         24    2    5    5    0    0  0.54908455324E+02 -0.52040342384E+02 -0.19299995471E+02  0.11250247721E+03  0.81001122541E+02 0.  0.
          5    1    5    5  501    0  0.54843007938E+02  0.12224544439E+02 -0.13999023373E+03  0.15091901983E+03  0.47000000000E+01 0. -1.
        -13    1    6    6    0    0  0.24796151435E+02 -0.14904793797E+02  0.31481463466E+02  0.42756105366E+02  0.00000000000E+00 0.  1.
         14    1    6    6    0    0  0.30112303889E+02 -0.37135548586E+02 -0.50781458937E+02  0.69746371849E+02  0.00000000000E+00 0. -1.
         -5    1    3    3    0  503 -0.17822535268E+02 -0.48875448896E+02  0.53027319252E+02  0.74434124266E+02  0.47000000000E+01 0.  1.
         11    1    4    4    0    0 -0.46885278248E+02  0.47231012625E+02  0.66242000971E+02  0.93898884778E+02  0.00000000000E+00 0. -1.
        -12    1    4    4    0    0 -0.45043649746E+02  0.41460234215E+02  0.23625510251E+03  0.24405809732E+03  0.00000000000E+00 0.  1.
<mgrwt>
<rscale>  2 0.20959502E+03</rscale>
<asrwt>0</asrwt>
<pdfrwt beam="1">  1       21 0.67080523E-01 0.20980350E+03</pdfrwt>
<pdfrwt beam="2">  1       21 0.36890647E-01 0.20980350E+03</pdfrwt>
<totfact> 0.14261973E+04</totfact>
</mgrwt>
</event>
<event>
12    1  0.1019868E-001  0.1977667E+03  0.7546771E-02  0.1151845E+00
         21   -1    0    0  501  502  0.00000000000E+00  0.00000000000E+00  0.45736163862E+03  0.45736163862E+03  0.00000000000E+00 0. -1.
         21   -1    0    0  502  503 -0.00000000000E+00 -0.00000000000E+00 -0.15778592544E+03  0.15778592544E+03  0.00000000000E+00 0. -1.
         -6    2    1    2    0  503  0.56867743664E+02 -0.77337469188E+02 -0.58773510528E+02  0.20631532361E+03  0.17290651465E+03 0.  0.
        -24    2    3    3    0    0  0.44640286237E+02  0.62059653749E+01 -0.72222840163E+02  0.12068827975E+03  0.85546788750E+02 0.  0.
          6    2    1    2  501    0 -0.56867743664E+02  0.77337469188E+02  0.35834922371E+03  0.40883224045E+03  0.17179816730E+03 0.  0.
         24    2    5    5    0    0 -0.51795086132E+02  0.40565693573E+02  0.35587534192E+03  0.37133416813E+03  0.83147453347E+02 0.  0.
          5    1    5    5  501    0 -0.50726575319E+01  0.36771775614E+02  0.24738817973E+01  0.37498072316E+02  0.47000000000E+01 0. -1.
        -11    1    6    6    0    0 -0.26717813049E+02  0.47291374928E+02  0.97101011330E+02  0.11126060434E+03  0.00000000000E+00 0.  1.
         12    1    6    6    0    0 -0.25077273083E+02 -0.67256813547E+01  0.25877433059E+03  0.26007356380E+03  0.00000000000E+00 0. -1.
         -5    1    3    3    0  503  0.12227457426E+02 -0.83543434563E+02  0.13449329635E+02  0.85627043866E+02  0.47000000000E+01 0.  1.
         13    1    4    4    0    0  0.40624035276E+02 -0.22571381278E+02 -0.78253178667E+02  0.91012853303E+02  0.00000000000E+00 0. -1.
        -14    1    4    4    0    0  0.40162509611E+01  0.28777346653E+02  0.60303385034E+01  0.29675426444E+02  0.00000000000E+00 0.  1.
<mgrwt>
<rscale>  2 0.19752423E+03</rscale>
<asrwt>0</asrwt>
<pdfrwt beam="1">  1       21 0.70363328E-01 0.19776675E+03</pdfrwt>
<pdfrwt beam="2">  1       21 0.24274758E-01 0.19776675E+03</pdfrwt>
<totfact> 0.29264837E+04</totfact>
</mgrwt>
</event>
<event>
12    1  0.1019868E-001  0.2666396E+03  0.7546771E-02  0.1103414E+00
         21   -1    0    0  501  502  0.00000000000E+00  0.00000000000E+00  0.68139091891E+02  0.68139091891E+02  0.00000000000E+00 0.  1.
         21   -1    0    0  502  503 -0.00000000000E+00 -0.00000000000E+00 -0.11596387823E+04  0.11596387823E+04  0.00000000000E+00 0.  1.
         -6    2    1    2    0  503  0.12688189079E+03  0.15626505733E+03 -0.74320964143E+03  0.78914060757E+03  0.17281361362E+03 0.  0.
        -24    2    3    3    0    0  0.10463777841E+03  0.47579040010E+02 -0.27625645717E+03  0.30916684039E+03  0.77805368374E+02 0.  0.
          6    2    1    2  501    0 -0.12688189079E+03 -0.15626505733E+03 -0.34829004900E+03  0.43863726664E+03  0.17486826784E+03 0.  0.
         24    2    5    5    0    0 -0.20523195338E+02 -0.13479611611E+03 -0.20701151490E+03  0.26043849635E+03  0.79895235238E+02 0.  0.
          5    1    5    5  501    0 -0.10635869546E+03 -0.21468941222E+02 -0.14127853410E+03  0.17819877029E+03  0.47000000000E+01 0. -1.
        -11    1    6    6    0    0 -0.77337328481E+01 -0.51980060155E+02 -0.21315537125E+02  0.56710575737E+02  0.00000000000E+00 0.  1.
         12    1    6    6    0    0 -0.12789462490E+02 -0.82816055953E+02 -0.18569597777E+03  0.20372792061E+03  0.00000000000E+00 0. -1.
         -5    1    3    3    0  503  0.22244112381E+02  0.10868601732E+03 -0.46695318426E+03  0.47997376718E+03  0.47000000000E+01 0.  1.
         11    1    4    4    0    0  0.29764447919E+01  0.35670749421E+02 -0.59062296858E+02  0.69062410166E+02  0.00000000000E+00 0. -1.
        -12    1    4    4    0    0  0.10166133362E+03  0.11908290589E+02 -0.21719416031E+03  0.24010443022E+03  0.00000000000E+00 0.  1.
<mgrwt>
<rscale>  2 0.26630326E+03</rscale>
<asrwt>0</asrwt>
<pdfrwt beam="1">  1       21 0.10482938E-01 0.26663963E+03</pdfrwt>
<pdfrwt beam="2">  1       21 0.17840596E+00 0.26663963E+03</pdfrwt>
<totfact> 0.13254870E+04</totfact>
</mgrwt>
</event>
<event>
12    1  0.1019868E-001  0.2105984E+03  0.7546771E-02  0.1143094E+00
         21   -1    0    0  501  502  0.00000000000E+00  0.00000000000E+00  0.17359408523E+04  0.17359408523E+04  0.00000000000E+00 0. -1.
         21   -1    0    0  502  503 -0.00000000000E+00 -0.00000000000E+00 -0.32359782847E+02  0.32359782847E+02  0.00000000000E+00 0. -1.
         -6    2    1    2    0  503  0.11520076749E+03 -0.32228791694E+02  0.42779962909E+03  0.47682722232E+03  0.17332560530E+03 0.  0.
        -24    2    3    3    0    0  0.72182487569E+02  0.24918362866E+02  0.36497698216E+03  0.38151119718E+03  0.80692996877E+02 0.  0.
          6    2    1    2  501    0 -0.11520076749E+03  0.32228791694E+02  0.12757814404E+04  0.12914734129E+04  0.16116879542E+03 0.  0.
         24    2    5    5    0    0 -0.30182047780E+02 -0.18226537444E+02  0.36347190151E+03  0.37381078003E+03  0.79871856161E+02 0.  0.
          5    1    5    5  501    0 -0.85018719713E+02  0.50455329139E+02  0.91230953888E+03  0.91766263282E+03  0.47000000000E+01 0. -1.
        -13    1    6    6    0    0  0.12240126440E+02 -0.25707723901E+02  0.26242390418E+03  0.26396403779E+03  0.00000000000E+00 0.  1.
         14    1    6    6    0    0 -0.42422174220E+02  0.74811864560E+01  0.10104799733E+03  0.10984674224E+03  0.00000000000E+00 0. -1.
         -5    1    3    3    0  503  0.43018279924E+02 -0.57147154560E+02  0.62822646926E+02  0.95316025141E+02  0.47000000000E+01 0.  1.
         11    1    4    4    0    0  0.54954430181E+02  0.48053447294E+02  0.17904767544E+03  0.19335768222E+03  0.00000000000E+00 0. -1.
        -12    1    4    4    0    0  0.17228057388E+02 -0.23135084428E+02  0.18592930672E+03  0.18815351496E+03  0.00000000000E+00 0.  1.
<mgrwt>
<rscale>  2 0.20808203E+03</rscale>
<asrwt>0</asrwt>
<pdfrwt beam="1">  1       21 0.26706775E+00 0.21059838E+03</pdfrwt>
<pdfrwt beam="2">  1       21 0.49784295E-02 0.21059838E+03</pdfrwt>
<totfact> 0.14087911E+04</totfact>
</mgrwt>
</event>
<event>
12    1  0.1019868E-001  0.1849576E+03  0.7546771E-02  0.1163888E+00
         21   -1    0    0  501  502  0.00000000000E+00  0.00000000000E+00  0.34823877392E+03  0.34823877392E+03  0.00000000000E+00 0. -1.
         21   -1    0    0  502  503 -0.00000000000E+00 -0.00000000000E+00 -0.21757741501E+03  0.21757741501E+03  0.00000000000E+00 0. -1.
         -6    2    1    2    0  503  0.61693350818E+02  0.21729294242E+02 -0.14548763765E+03  0.23532095032E+03  0.17300596865E+03 0.  0.
        -24    2    3    3    0    0  0.17787987556E+02 -0.18465562926E+02 -0.15330798258E+03  0.17510006308E+03  0.80618267485E+02 0.  0.
          6    2    1    2  501    0 -0.61693350818E+02 -0.21729294242E+02  0.27614899656E+03  0.33049523861E+03  0.16938300588E+03 0.  0.
         24    2    5    5    0    0  0.37853989368E+01 -0.88043559830E+01  0.24342011335E+03  0.25601174719E+03  0.78719865248E+02 0.  0.
          5    1    5    5  501    0 -0.65478749755E+02 -0.12924938259E+02  0.32728883204E+02  0.74483491421E+02  0.47000000000E+01 0. -1.
        -13    1    6    6    0    0  0.29272370916E+02 -0.14269860910E+02  0.43186393289E+02  0.54088494107E+02  0.00000000000E+00 0.  1.
         14    1    6    6    0    0 -0.25486971979E+02  0.54655049269E+01  0.20023372006E+03  0.20192325308E+03  0.00000000000E+00 0. -1.
         -5    1    3    3    0  503  0.43905363262E+02  0.40194857167E+02  0.78203449279E+01  0.60220887245E+02  0.47000000000E+01 0.  1.
         11    1    4    4    0    0  0.38685985550E+02 -0.18701647767E+02 -0.36328299326E+02  0.56268129870E+02  0.00000000000E+00 0. -1.
        -12    1    4    4    0    0 -0.20897997993E+02  0.23608484101E+00 -0.11697968325E+03  0.11883193321E+03  0.00000000000E+00 0.  1.
<mgrwt>
<rscale>  2 0.18410560E+03</rscale>
<asrwt>0</asrwt>
<pdfrwt beam="1">  1       21 0.53575196E-01 0.18495755E+03</pdfrwt>
<pdfrwt beam="2">  1       21 0.33473448E-01 0.18495755E+03</pdfrwt>
<totfact> 0.28458059E+04</totfact>
</mgrwt>
</event>
<event>
12    1  0.1019868E-001  0.2179703E+03  0.7546771E-02  0.1135473E+00
         21   -1    0    0  503  502  0.00000000000E+00  0.00000000000E+00  0.46205151333E+02  0.46205151333E+02  0.00000000000E+00 0. -1.
         21   -1    0    0  501  503 -0.00000000000E+00 -0.00000000000E+00 -0.10266429977E+04  0.10266429977E+04  0.00000000000E+00 0. -1.
          6    2    1    2  501    0  0.23064793362E+02  0.12988676943E+03 -0.48578109540E+03  0.53229625384E+03  0.17307071283E+03 0.  0.
         24    2    3    3    0    0  0.84945258903E+01 -0.23541656293E+01 -0.12192455599E+03  0.14485125275E+03  0.77708358650E+02 0.  0.
         -6    2    1    2    0  502 -0.23064793362E+02 -0.12988676943E+03 -0.49465675098E+03  0.54055189520E+03  0.17351798912E+03 0.  0.
        -24    2    5    5    0    0  0.41773821855E+02 -0.12321048069E+03 -0.33516243107E+03  0.36818847989E+03  0.79391603960E+02 0.  0.
          5    1    3    3  501    0  0.14570267471E+02  0.13224093506E+03 -0.36385653941E+03  0.38744500109E+03  0.47000000000E+01 0. -1.
        -13    1    4    4    0    0 -0.25050731541E+02  0.14665245198E+02 -0.92929193592E+02  0.97357298592E+02  0.00000000000E+00 0.  1.
         14    1    4    4    0    0  0.33545257432E+02 -0.17019410827E+02 -0.28995362400E+02  0.47493954160E+02  0.00000000000E+00 0. -1.
         -5    1    5    5    0  502 -0.64838615217E+02 -0.66762887485E+01 -0.15949431991E+03  0.17236341531E+03  0.47000000000E+01 0.  1.
         13    1    6    6    0    0 -0.15627437691E+02 -0.58726286723E+01 -0.77831221032E+02  0.79601529782E+02  0.00000000000E+00 0. -1.
        -14    1    6    6    0    0  0.57401259546E+02 -0.11733785201E+03 -0.25733121004E+03  0.28858695011E+03  0.00000000000E+00 0.  1.
<mgrwt>
<rscale>  2 0.21788127E+03</rscale>
<asrwt>0</asrwt>
<pdfrwt beam="1">  1       21 0.71084854E-02 0.21797030E+03</pdfrwt>
<pdfrwt beam="2">  1       21 0.15794506E+00 0.21797030E+03</pdfrwt>
<totfact> 0.37812092E+04</totfact>
</mgrwt>
</event>
<event>
12    1  0.1019868E-001  0.1822273E+03  0.7546771E-02  0.1166103E+00
         21   -1    0    0  503  502  0.00000000000E+00  0.00000000000E+00  0.57540902603E+02  0.57540902603E+02  0.00000000000E+00 0.  1.
         21   -1    0    0  501  503 -0.00000000000E+00 -0.00000000000E+00 -0.60332631005E+03  0.60332631005E+03  0.00000000000E+00 0.  1.
          6    2    1    2  501    0  0.38474698152E+02 -0.38186745685E+02 -0.19547595585E+03  0.26599571229E+03  0.17205911686E+03 0.  0.
         24    2    3    3    0    0 -0.19896323936E+02 -0.64589615032E+02 -0.74434847976E+02  0.12896532323E+03  0.80770204449E+02 0.  0.
         -6    2    1    2    0  502 -0.38474698152E+02  0.38186745685E+02 -0.35030945160E+03  0.39487150037E+03  0.17397775714E+03 0.  0.
        -24    2    5    5    0    0  0.23419369119E+01 -0.22531038063E+02 -0.81936609048E+02  0.11666524670E+03  0.79900184861E+02 0.  0.
          5    1    3    3  501    0  0.58371022088E+02  0.26402869347E+02 -0.12104110788E+03  0.13703038906E+03  0.47000000000E+01 0. -1.
        -11    1    4    4    0    0 -0.31805687326E+02 -0.35935773349E+02  0.35826406469E+00  0.47990727287E+02  0.00000000000E+00 0.  1.
         12    1    4    4    0    0  0.11909363389E+02 -0.28653841684E+02 -0.74793112040E+02  0.80974595944E+02  0.00000000000E+00 0. -1.
         -5    1    5    5    0  502 -0.40816635064E+02  0.60717783748E+02 -0.26837284255E+03  0.27820625366E+03  0.47000000000E+01 0.  1.
         13    1    6    6    0    0 -0.22092561197E+02 -0.35760689649E+02 -0.15760044190E+02  0.44891950028E+02  0.00000000000E+00 0. -1.
        -14    1    6    6    0    0  0.24434498109E+02  0.13229651587E+02 -0.66176564858E+02  0.71773296673E+02  0.00000000000E+00 0.  1.
<mgrwt>
<rscale>  2 0.18176785E+03</rscale>
<asrwt>0</asrwt>
<pdfrwt beam="1">  1       21 0.88524465E-02 0.18222730E+03</pdfrwt>
<pdfrwt beam="2">  1       21 0.92819432E-01 0.18222730E+03</pdfrwt>
<totfact> 0.98755445E+04</totfact>
</mgrwt>
</event>
<event>
12    1  0.1019868E-001  0.2077714E+03  0.7546771E-02  0.1144349E+00
         21   -1    0    0  501  502  0.00000000000E+00  0.00000000000E+00  0.13019233048E+04  0.13019233048E+04  0.00000000000E+00 0. -1.
         21   -1    0    0  502  503 -0.00000000000E+00 -0.00000000000E+00 -0.51261751227E+02  0.51261751227E+02  0.00000000000E+00 0. -1.
         -6    2    1    2    0  503  0.10471189563E+03  0.37525989406E+02  0.21940066428E+03  0.30216816451E+03  0.17548836768E+03 0.  0.
        -24    2    3    3    0    0  0.10443992320E+03  0.86940994242E+02  0.17015715244E+03  0.23224727972E+03  0.80739757085E+02 0.  0.
          6    2    1    2  501    0 -0.10471189563E+03 -0.37525989406E+02  0.10312608893E+04  0.10510168915E+04  0.16960160226E+03 0.  0.
         24    2    5    5    0    0 -0.10873918703E+03  0.50475568645E+01  0.94553978534E+03  0.95510587243E+03  0.79574199713E+02 0.  0.
          5    1    5    5  501    0  0.40272914021E+01 -0.42573546270E+02  0.85721103916E+02  0.95911019047E+02  0.47000000000E+01 0. -1.
        -11    1    6    6    0    0 -0.55557197556E+02 -0.16528160411E+02  0.22720993544E+03  0.23448696563E+03  0.00000000000E+00 0.  1.
         12    1    6    6    0    0 -0.53181989474E+02  0.21575717276E+02  0.71832984990E+03  0.72061890680E+03  0.00000000000E+00 0. -1.
         -5    1    3    3    0  503  0.27197243190E+00 -0.49415004836E+02  0.49243511841E+02  0.69920884794E+02  0.47000000000E+01 0.  1.
         11    1    4    4    0    0  0.98118815465E+02  0.33417275380E+02  0.10285228670E+03  0.14602263222E+03  0.00000000000E+00 0. -1.
        -12    1    4    4    0    0  0.63211077311E+01  0.53523718862E+02  0.67304865735E+02  0.86224647493E+02  0.00000000000E+00 0.  1.
<mgrwt>
<rscale>  2 0.20652328E+03</rscale>
<asrwt>0</asrwt>
<pdfrwt beam="1">  1       21 0.20029587E+00 0.20777138E+03</pdfrwt>
<pdfrwt beam="2">  1       21 0.78864242E-02 0.20777138E+03</pdfrwt>
<totfact> 0.16255036E+04</totfact>
</mgrwt>
</event>
<event>
12    1  0.1019868E-001  0.1970910E+03  0.7546771E-02  0.1152267E+00
         21   -1    0    0  503  502  0.00000000000E+00  0.00000000000E+00  0.48348676129E+02  0.48348676129E+02  0.00000000000E+00 0.  1.
         21   -1    0    0  501  503 -0.00000000000E+00 -0.00000000000E+00 -0.91998692085E+03  0.91998692085E+03  0.00000000000E+00 0. -1.
          6    2    1    2  501    0 -0.49566616659E+02 -0.79842168153E+02 -0.60907131146E+03  0.64016617347E+03  0.17324331417E+03 0.  0.
         24    2    3    3    0    0  0.91179612757E+01 -0.70280345421E+02 -0.20404658810E+03  0.23077342234E+03  0.81233602490E+02 0.  0.
         -6    2    1    2    0  502  0.49566616659E+02  0.79842168153E+02 -0.26256693326E+03  0.32816942351E+03  0.17298021501E+03 0.  0.
        -24    2    5    5    0    0 -0.20028309050E+02  0.93498060741E+02 -0.15127558579E+03  0.19611719479E+03  0.80216149954E+02 0.  0.
          5    1    3    3  501    0 -0.58684577934E+02 -0.95618227322E+01 -0.40502472336E+03  0.40939275113E+03  0.47000000000E+01 0. -1.
        -11    1    4    4    0    0 -0.92850628521E+01 -0.66355732518E+02 -0.20079354302E+03  0.21167744932E+03  0.00000000000E+00 0.  1.
         12    1    4    4    0    0  0.18403024128E+02 -0.39246129021E+01 -0.32530450792E+01  0.19095973025E+02  0.00000000000E+00 0. -1.
         -5    1    5    5    0  502  0.69594925708E+02 -0.13655892588E+02 -0.11129134748E+03  0.13205222872E+03  0.47000000000E+01 0.  1.
         11    1    6    6    0    0  0.20151556353E+02  0.43251700297E+02 -0.10940084566E+03  0.11935384298E+03  0.00000000000E+00 0. -1.
        -12    1    6    6    0    0 -0.40179865403E+02  0.50246360444E+02 -0.41874740124E+02  0.76763351817E+02  0.00000000000E+00 0.  1.
<mgrwt>
<rscale>  2 0.19703318E+03</rscale>
<asrwt>0</asrwt>
<pdfrwt beam="1">  1       21 0.74382584E-02 0.19709101E+03</pdfrwt>
<pdfrwt beam="2">  1       21 0.14153644E+00 0.19709101E+03</pdfrwt>
<totfact> 0.47253493E+04</totfact>
</mgrwt>
</event>
<event>
11    1  0.1019868E-001  0.2652686E+03  0.7546771E-02  0.1104392E+00
         21   -1    0    0  501  502  0.00000000000E+00  0.00000000000E+00  0.13287574414E+04  0.13287574414E+04  0.00000000000E+00 0. -1.
         21   -1    0    0  502  503 -0.00000000000E+00 -0.00000000000E+00 -0.95420012043E+02  0.95420012043E+02  0.00000000000E+00 0. -1.
         -6    2    1    2    0  503  0.80728898946E+02 -0.18008049133E+03  0.14045390843E+03  0.30015787600E+03  0.17726057558E+03 0.  0.
        -24    2    3    3    0    0  0.60003658501E+02 -0.15621914395E+03  0.17334821404E+03  0.25429912731E+03  0.81323937872E+02 0.  0.
          6    2    1    2  501    0 -0.80728898946E+02  0.18008049133E+03  0.10928835209E+04  0.11240195774E+04  0.17343437279E+03 0.  0.
          5    1    5    5  501    0 -0.16806221087E+02  0.18276867326E+03  0.78149426260E+03  0.80277157988E+03  0.47000000000E+01 0. -1.
        -13    1    5    5    0    0 -0.65648275548E+02 -0.65508681560E+01  0.30977073242E+03  0.31671835536E+03  0.00000000000E+00 0.  1.
         14    1    5    5    0    0  0.17255976887E+01  0.38626862173E+01  0.16185258898E+01  0.45296421770E+01  0.00000000000E+00 0. -1.
         -5    1    3    3    0  503  0.20725240445E+02 -0.23861347377E+02 -0.32894305611E+02  0.45858748694E+02  0.47000000000E+01 0.  1.
         11    1    4    4    0    0  0.31572112237E+02 -0.80627749760E+02  0.33573354529E+02  0.92869814455E+02  0.00000000000E+00 0. -1.
        -12    1    4    4    0    0  0.28431546265E+02 -0.75591394189E+02  0.13977485951E+03  0.16142931286E+03  0.00000000000E+00 0.  1.
<mgrwt>
<rscale>  2 0.26463100E+03</rscale>
<asrwt>0</asrwt>
<pdfrwt beam="1">  1       21 0.20442421E+00 0.26526864E+03</pdfrwt>
<pdfrwt beam="2">  1       21 0.14680003E-01 0.26526864E+03</pdfrwt>
<totfact> 0.48391330E+03</totfact>
</mgrwt>
</event>
<event>
12    1  0.1019868E-001  0.2373699E+03  0.7546771E-02  0.1121578E+00
         21   -1    0    0  503  502  0.00000000000E+00  0.00000000000E+00  0.95139563139E+03  0.95139563139E+03  0.00000000000E+00 0.  1.
         21   -1    0    0  501  503 -0.00000000000E+00 -0.00000000000E+00 -0.22261265695E+03  0.22261265695E+03  0.00000000000E+00 0.  1.
          6    2    1    2  501    0  0.15691277577E+03 -0.42568357684E+02 -0.13857794596E+03  0.27475336218E+03  0.17277696215E+03 0.  0.
         24    2    3    3    0    0  0.16943028338E+03  0.42980345713E+01 -0.11582557619E+03  0.22096761082E+03  0.81768128899E+02 0.  0.
         -6    2    1    2    0  502 -0.15691277577E+03  0.42568357684E+02  0.86736092040E+03  0.89925492615E+03  0.17294730900E+03 0.  0.
        -24    2    5    5    0    0 -0.49879064627E+01  0.23371834057E+02  0.32653223179E+03  0.33714512116E+03  0.80451305091E+02 0.  0.
          5    1    3    3  501    0 -0.12517507609E+02 -0.46866392255E+02 -0.22752369770E+02  0.53785751365E+02  0.47000000000E+01 0. -1.
        -11    1    4    4    0    0  0.11668471814E+03 -0.35647695862E+02 -0.74307860606E+02  0.14285566077E+03  0.00000000000E+00 0.  1.
         12    1    4    4    0    0  0.52745565244E+02  0.39945730433E+02 -0.41517715583E+02  0.78111950046E+02  0.00000000000E+00 0. -1.
         -5    1    5    5    0  502 -0.15192486931E+03  0.19196523627E+02  0.54082868862E+03  0.56210980499E+03  0.47000000000E+01 0.  1.
         13    1    6    6    0    0 -0.15582217112E+02 -0.67162165066E+01  0.11490400904E+02  0.20492495388E+02  0.00000000000E+00 0. -1.
        -14    1    6    6    0    0  0.10594310649E+02  0.30088050563E+02  0.31504183088E+03  0.31665262577E+03  0.00000000000E+00 0.  1.
<mgrwt>
<rscale>  2 0.23733884E+03</rscale>
<asrwt>0</asrwt>
<pdfrwt beam="1">  1       21 0.14636856E+00 0.23736987E+03</pdfrwt>
<pdfrwt beam="2">  1       21 0.34248102E-01 0.23736987E+03</pdfrwt>
<totfact> 0.25207481E+03</totfact>
</mgrwt>
</event>
<event>
12    1  0.1019868E-001  0.2390163E+03  0.7546771E-02  0.1120502E+00
         21   -1    0    0  501  502  0.00000000000E+00  0.00000000000E+00  0.10176329570E+04  0.10176329570E+04  0.00000000000E+00 0.  1.
         21   -1    0    0  502  503 -0.00000000000E+00 -0.00000000000E+00 -0.64060711624E+02  0.64060711624E+02  0.00000000000E+00 0. -1.
         -6    2    1    2    0  503  0.59834102600E+02  0.15371031329E+03  0.28545840200E+03  0.37211288504E+03  0.17255294750E+03 0.  0.
        -24    2    3    3    0    0  0.34712957717E+02  0.15234500777E+03  0.29621401957E+03  0.34435123363E+03  0.80131366433E+02 0.  0.
          6    2    1    2  501    0 -0.59834102600E+02 -0.15371031329E+03  0.66811384342E+03  0.70958078363E+03  0.17297919092E+03 0.  0.
         24    2    5    5    0    0 -0.47142821011E+02 -0.52515917328E+02  0.51257522018E+03  0.52352775969E+03  0.79797190862E+02 0.  0.
          5    1    5    5  501    0 -0.12691281589E+02 -0.10119439596E+03  0.15553862323E+03  0.18605302395E+03  0.47000000000E+01 0. -1.
        -11    1    6    6    0    0 -0.49482386467E+02 -0.63865021906E+02  0.30157007439E+03  0.31220467223E+03  0.00000000000E+00 0.  1.
         12    1    6    6    0    0  0.23395654561E+01  0.11349104578E+02  0.21100514579E+03  0.21132308745E+03  0.00000000000E+00 0. -1.
         -5    1    3    3    0  503  0.25121144883E+02  0.13653055229E+01 -0.10755617570E+02  0.27761651405E+02  0.47000000000E+01 0.  1.
         11    1    4    4    0    0 -0.21871591538E+02  0.13591632862E+02  0.43787858588E+02  0.50798381470E+02  0.00000000000E+00 0. -1.
        -12    1    4    4    0    0  0.56584549256E+02  0.13875337490E+03  0.25242616099E+03  0.29355285216E+03  0.00000000000E+00 0.  1.
<mgrwt>
<rscale>  2 0.23893917E+03</rscale>
<asrwt>0</asrwt>
<pdfrwt beam="1">  1       21 0.15655890E+00 0.23901628E+03</pdfrwt>
<pdfrwt beam="2">  1       21 0.98554948E-02 0.23901628E+03</pdfrwt>
<totfact> 0.21579532E+04</totfact>
</mgrwt>
</event>
<event>
12    1  0.1019868E-001  0.2252412E+03  0.7546771E-02  0.1130250E+00
         21   -1    0    0  501  502  0.00000000000E+00  0.00000000000E+00  0.47071505788E+03  0.47071505788E+03  0.00000000000E+00 0.  1.
         21   -1    0    0  502  503 -0.00000000000E+00 -0.00000000000E+00 -0.12281640876E+03  0.12281640876E+03  0.00000000000E+00 0.  1.
         -6    2    1    2    0  503 -0.50384335572E+02 -0.13309576112E+03  0.68567847486E+02  0.23544666680E+03  0.17458671284E+03 0.  0.
        -24    2    3    3    0    0 -0.91171572343E+02 -0.13756657331E+03  0.50327214521E+02  0.19029805069E+03  0.80272672076E+02 0.  0.
          6    2    1    2  501    0  0.50384335572E+02  0.13309576112E+03  0.27933080163E+03  0.35808479984E+03  0.17304902266E+03 0.  0.
         24    2    5    5    0    0 -0.36022515118E+02  0.81990854734E+02  0.14173846967E+03  0.18769819498E+03  0.84384221034E+02 0.  0.
          5    1    5    5  501    0  0.86406850690E+02  0.51104906382E+02  0.13759233196E+03  0.17038660487E+03  0.47000000000E+01 0. -1.
        -11    1    6    6    0    0 -0.13318193838E+02  0.45396567062E+02  0.13631654041E+03  0.14429283342E+03  0.00000000000E+00 0.  1.
         12    1    6    6    0    0 -0.22704321281E+02  0.36594287673E+02  0.54219292587E+01  0.43405361558E+02  0.00000000000E+00 0. -1.
         -5    1    3    3    0  503  0.40787236771E+02  0.44708121894E+01  0.18240632965E+02  0.45148616103E+02  0.47000000000E+01 0.  1.
         11    1    4    4    0    0 -0.20104735144E+02 -0.10154183577E+03  0.34110535419E+02  0.10898840954E+03  0.00000000000E+00 0. -1.
        -12    1    4    4    0    0 -0.71066837199E+02 -0.36024737534E+02  0.16216679102E+02  0.81309641156E+02  0.00000000000E+00 0.  1.
<mgrwt>
<rscale>  2 0.22494313E+03</rscale>
<asrwt>0</asrwt>
<pdfrwt beam="1">  1       21 0.72417700E-01 0.22524117E+03</pdfrwt>
<pdfrwt beam="2">  1       21 0.18894832E-01 0.22524117E+03</pdfrwt>
<totfact> 0.43406673E+04</totfact>
</mgrwt>
</event>
<event>
12    1  0.1019868E-001  0.2122235E+03  0.7546771E-02  0.1140277E+00
         21   -1    0    0  501  502  0.00000000000E+00  0.00000000000E+00  0.14663974590E+04  0.14663974590E+04  0.00000000000E+00 0. -1.
         21   -1    0    0  502  503 -0.00000000000E+00 -0.00000000000E+00 -0.30521503166E+02  0.30521503166E+02  0.00000000000E+00 0. -1.
         -6    2    1    2    0  503  0.11890042056E+03 -0.61554100726E+01  0.77356152854E+03  0.80214478790E+03  0.17568045774E+03 0.  0.
        -24    2    3    3    0    0  0.88603509143E+02 -0.71975708527E+02  0.47320534256E+03  0.49313646603E+03  0.78925239601E+02 0.  0.
          6    2    1    2  501    0 -0.11890042056E+03  0.61554100726E+01  0.66231442730E+03  0.69477417428E+03  0.17284546145E+03 0.  0.
         24    2    5    5    0    0 -0.13076764849E+03  0.48914333667E+02  0.56505937369E+03  0.58777047294E+03  0.81787793352E+02 0.  0.
          5    1    5    5  501    0  0.11867227924E+02 -0.42758923595E+02  0.97255053618E+02  0.10700370134E+03  0.47000000000E+01 0. -1.
        -11    1    6    6    0    0 -0.80262778873E+01  0.51673919590E+01  0.19005609137E+01  0.97332013320E+01  0.00000000000E+00 0.  1.
         12    1    6    6    0    0 -0.12274137060E+03  0.43746941708E+02  0.56315881277E+03  0.57803727161E+03  0.00000000000E+00 0. -1.
         -5    1    3    3    0  503  0.30296911419E+02  0.65820298455E+02  0.30035618598E+03  0.30900832188E+03  0.47000000000E+01 0.  1.
         13    1    4    4    0    0 -0.19100040660E+01 -0.15925622720E+02  0.12626409534E+02  0.20413225915E+02  0.00000000000E+00 0. -1.
        -14    1    4    4    0    0  0.90513513209E+02 -0.56050085807E+02  0.46057893303E+03  0.47272324011E+03  0.00000000000E+00 0.  1.
<mgrwt>
<rscale>  2 0.21163588E+03</rscale>
<asrwt>0</asrwt>
<pdfrwt beam="1">  1       21 0.22559955E+00 0.21222352E+03</pdfrwt>
<pdfrwt beam="2">  1       21 0.46956170E-02 0.21222352E+03</pdfrwt>
<totfact> 0.27406410E+04</totfact>
</mgrwt>
</event>
<event>
12    1  0.1019868E-001  0.1944575E+03  0.7546771E-02  0.1154697E+00
         21   -1    0    0  503  502  0.00000000000E+00  0.00000000000E+00  0.11743540630E+04  0.11743540630E+04  0.00000000000E+00 0.  1.
         21   -1    0    0  501  503 -0.00000000000E+00 -0.00000000000E+00 -0.60319981067E+02  0.60319981067E+02  0.00000000000E+00 0.  1.
          6    2    1    2  501    0 -0.78833341664E+02 -0.45481767993E+02  0.13372563967E+03  0.23526503345E+03  0.17083267334E+03 0.  0.
         24    2    3    3    0    0 -0.94100959410E+02  0.17892490900E+02  0.66831735843E+02  0.14174347865E+03  0.80309408119E+02 0.  0.
         -6    2    1    2    0  502  0.78833341664E+02  0.45481767993E+02  0.98030844224E+03  0.99940901059E+03  0.17184423632E+03 0.  0.
        -24    2    5    5    0    0  0.21885562591E+02  0.91782342852E+02  0.59320339325E+03  0.60537956788E+03  0.75439904119E+02 0.  0.
          5    1    3    3  501    0  0.15267617746E+02 -0.63374258893E+02  0.66893903829E+02  0.93521554796E+02  0.47000000000E+01 0. -1.
        -13    1    4    4    0    0 -0.19068453802E+02  0.41931930094E+02  0.21378157040E+02  0.50783051210E+02  0.00000000000E+00 0.  1.
         14    1    4    4    0    0 -0.75032505608E+02 -0.24039439194E+02  0.45453578803E+02  0.90960427443E+02  0.00000000000E+00 0. -1.
         -5    1    5    5    0  502  0.56947779073E+02 -0.46300574859E+02  0.38710504898E+03  0.39402944271E+03  0.47000000000E+01 0.  1.
         11    1    6    6    0    0  0.12018356271E+02  0.89641975678E+02  0.33546136649E+03  0.34743985537E+03  0.00000000000E+00 0. -1.
        -12    1    6    6    0    0  0.98672063205E+01  0.21403671742E+01  0.25774202676E+03  0.25793971251E+03  0.00000000000E+00 0.  1.
<mgrwt>
<rscale>  2 0.19423380E+03</rscale>
<asrwt>0</asrwt>
<pdfrwt beam="1">  1       21 0.18066984E+00 0.19445752E+03</pdfrwt>
<pdfrwt beam="2">  1       21 0.92799980E-02 0.19445752E+03</pdfrwt>
<totfact> 0.16645557E+04</totfact>
</mgrwt>
</event>
<event>
12    1  0.1019868E-001  0.2119607E+03  0.7546771E-02  0.1140803E+00
         21   -1    0    0  501  502  0.00000000000E+00  0.00000000000E+00  0.43173112218E+02  0.43173112218E+02  0.00000000000E+00 0.  1.
         21   -1    0    0  502  503 -0.00000000000E+00 -0.00000000000E+00 -0.14496840321E+04  0.14496840321E+04  0.00000000000E+00 0. -1.
         -6    2    1    2    0  503 -0.54088163223E+02 -0.10029353714E+03 -0.11136465967E+04  0.11336384276E+04  0.17872610086E+03 0.  0.
        -24    2    3    3    0    0 -0.10279147956E+03 -0.82067059379E+02 -0.93155615713E+03  0.94420971882E+03  0.80212397623E+02 0.  0.
          6    2    1    2  501    0  0.54088163223E+02  0.10029353714E+03 -0.29286432314E+03  0.35921871671E+03  0.17402371009E+03 0.  0.
         24    2    5    5    0    0  0.72440354696E+02  0.13062791294E+03 -0.21192579774E+03  0.27073079560E+03  0.77918953499E+02 0.  0.
          5    1    5    5  501    0 -0.18352191473E+02 -0.30334375800E+02 -0.80938525401E+02  0.88487921103E+02  0.47000000000E+01 0. -1.
        -13    1    6    6    0    0  0.52325901393E+02  0.26137695823E+02 -0.49881724011E+02  0.76872397451E+02  0.00000000000E+00 0.  1.
         14    1    6    6    0    0  0.20114453303E+02  0.10449021711E+03 -0.16204407373E+03  0.19385839815E+03  0.00000000000E+00 0. -1.
         -5    1    3    3    0  503  0.48703316337E+02 -0.18226477757E+02 -0.18209043959E+03  0.18942870876E+03  0.47000000000E+01 0.  1.
         13    1    4    4    0    0 -0.81123928392E+02 -0.56756149845E+02 -0.85505362925E+03  0.86076655441E+03  0.00000000000E+00 0. -1.
        -14    1    4    4    0    0 -0.21667551168E+02 -0.25310909535E+02 -0.76502527880E+02  0.83443164413E+02  0.00000000000E+00 0.  1.
<mgrwt>
<rscale>  2 0.21096630E+03</rscale>
<asrwt>0</asrwt>
<pdfrwt beam="1">  1       21 0.66420168E-02 0.21196071E+03</pdfrwt>
<pdfrwt beam="2">  1       21 0.22302833E+00 0.21196071E+03</pdfrwt>
<totfact> 0.15713250E+04</totfact>
</mgrwt>
</event>
<event>
12    1  0.1019868E-001  0.1783554E+03  0.7546771E-02  0.1169637E+00
         21   -1    0    0  503  502  0.00000000000E+00  0.00000000000E+00  0.40825926360E+03  0.40825926360E+03  0.00000000000E+00 0.  1.
         21   -1    0    0  501  503 -0.00000000000E+00 -0.00000000000E+00 -0.17978283113E+03  0.17978283113E+03  0.00000000000E+00 0.  1.
          6    2    1    2  501    0  0.72501651142E+00  0.41106575829E+02 -0.10766016923E+03  0.20751818022E+03  0.17257695923E+03 0.  0.
         24    2    3    3    0    0  0.25076516470E+02  0.78989904071E+02 -0.11409386384E+03  0.16178389838E+03  0.79299327774E+02 0.  0.
         -6    2    1    2    0  502 -0.72501651142E+00 -0.41106575829E+02  0.33613660170E+03  0.38052391452E+03  0.17355217743E+03 0.  0.
        -24    2    5    5    0    0 -0.54716879151E+02 -0.62810106081E+02  0.25269498410E+03  0.27868699585E+03  0.82901389455E+02 0.  0.
          5    1    3    3  501    0 -0.24351499959E+02 -0.37883328242E+02  0.64336946105E+01  0.45734281838E+02  0.47000000000E+01 0. -1.
        -11    1    4    4    0    0 -0.10875338051E+02  0.67246104239E+02 -0.41059179556E+02  0.79537209776E+02  0.00000000000E+00 0.  1.
         12    1    4    4    0    0  0.35951854521E+02  0.11743799832E+02 -0.73034684280E+02  0.82246688601E+02  0.00000000000E+00 0. -1.
         -5    1    5    5    0  502  0.53991862639E+02  0.21703530252E+02  0.83441617599E+02  0.10183691867E+03  0.47000000000E+01 0.  1.
         13    1    6    6    0    0 -0.51802881859E+02  0.24248253038E+01  0.12282255363E+03  0.13332215880E+03  0.00000000000E+00 0. -1.
        -14    1    6    6    0    0 -0.29139972916E+01 -0.65234931385E+02  0.12987243047E+03  0.14536483704E+03  0.00000000000E+00 0.  1.
<mgrwt>
<rscale>  2 0.17811768E+03</rscale>
<asrwt>0</asrwt>
<pdfrwt beam="1">  1       21 0.62809118E-01 0.17835536E+03</pdfrwt>
<pdfrwt beam="2">  1       21 0.27658897E-01 0.17835536E+03</pdfrwt>
<totfact> 0.29520922E+04</totfact>
</mgrwt>
</event>
<event>
12    1  0.1019868E-001  0.3280848E+03  0.7546771E-02  0.1072579E+00
         21   -1    0    0  503  502  0.00000000000E+00  0.00000000000E+00  0.28877732699E+03  0.28877732699E+03  0.00000000000E+00 0. -1.
         21   -1    0    0  501  503 -0.00000000000E+00 -0.00000000000E+00 -0.50381811630E+03  0.50381811630E+03  0.00000000000E+00 0. -1.
          6    2    1    2  501    0 -0.24034600272E+03  0.14162145752E+03 -0.31482690937E+03  0.45470386927E+03  0.17267538218E+03 0.  0.
         24    2    3    3    0    0 -0.95698888246E+02  0.18423404728E+02 -0.74086580916E+02  0.14798161106E+03  0.83138659398E+02 0.  0.
         -6    2    1    2    0  502  0.24034600272E+03 -0.14162145752E+03  0.99786120061E+02  0.33789157402E+03  0.16245186297E+03 0.  0.
        -24    2    5    5    0    0  0.15514240575E+03 -0.97503470742E+02  0.12827751704E+03  0.23769227563E+03  0.80413951838E+02 0.  0.
          5    1    3    3  501    0 -0.14464711447E+03  0.12319805279E+03 -0.24074032846E+03  0.30672225821E+03  0.47000000000E+01 0. -1.
        -13    1    4    4    0    0 -0.74275059221E+02 -0.20094371961E+02 -0.69469140965E+02  0.10366547040E+03  0.00000000000E+00 0.  1.
         14    1    4    4    0    0 -0.21423829025E+02  0.38517776690E+02 -0.46174399507E+01  0.44316140659E+02  0.00000000000E+00 0. -1.
         -5    1    5    5    0  502  0.85203596971E+02 -0.44117986781E+02 -0.28491396982E+02  0.10019929838E+03  0.47000000000E+01 0.  1.
         13    1    6    6    0    0  0.15100507752E+03 -0.93447010738E+02  0.13899461003E+03  0.22550915474E+03  0.00000000000E+00 0. -1.
        -14    1    6    6    0    0  0.41373282256E+01 -0.40564600041E+01 -0.10717092990E+02  0.12183120896E+02  0.00000000000E+00 0.  1.
<mgrwt>
<rscale>  2 0.32676086E+03</rscale>
<asrwt>0</asrwt>
<pdfrwt beam="1">  1       21 0.44427281E-01 0.32808478E+03</pdfrwt>
<pdfrwt beam="2">  1       21 0.77510480E-01 0.32808478E+03</pdfrwt>
<totfact> 0.66461802E+03</totfact>
</mgrwt>
</event>
<event>
12    1  0.1019868E-001  0.1899357E+03  0.7546771E-02  0.1158551E+00
         21   -1    0    0  503  502  0.00000000000E+00  0.00000000000E+00  0.54666950422E+03  0.54666950422E+03  0.00000000000E+00 0. -1.
         21   -1    0    0  501  503 -0.00000000000E+00 -0.00000000000E+00 -0.17150686974E+03  0.17150686974E+03  0.00000000000E+00 0. -1.
          6    2    1    2  501    0  0.67030316813E+02  0.39959813724E+02 -0.94165720998E+02  0.21187144787E+03  0.17301004978E+03 0.  0.
         24    2    3    3    0    0  0.48151929172E+02  0.93343352984E+02 -0.62489118961E+02  0.14681998439E+03  0.81361096347E+02 0.  0.
         -6    2    1    2    0  502 -0.67030316813E+02 -0.39959813724E+02  0.46932835548E+03  0.50630492609E+03  0.17316386124E+03 0.  0.
        -24    2    5    5    0    0 -0.74131013474E+02 -0.84583828547E+02  0.40112111018E+03  0.42435347153E+03  0.80795374628E+02 0.  0.
          5    1    3    3  501    0  0.18878387642E+02 -0.53383539260E+02 -0.31676602038E+02  0.65051463477E+02  0.47000000000E+01 0. -1.
        -11    1    4    4    0    0  0.59013563291E+02  0.88880284415E+02 -0.27876570102E+02  0.11026970922E+03  0.00000000000E+00 0.  1.
         12    1    4    4    0    0 -0.10861634120E+02  0.44630685692E+01 -0.34612548859E+02  0.36550275174E+02  0.00000000000E+00 0. -1.
         -5    1    5    5    0  502  0.71006966606E+01  0.44624014823E+02  0.68207245304E+02  0.81951454557E+02  0.47000000000E+01 0.  1.
         13    1    6    6    0    0 -0.21829291100E+01 -0.15144834016E+02  0.19144432846E+03  0.19205484132E+03  0.00000000000E+00 0. -1.
        -14    1    6    6    0    0 -0.71948084364E+02 -0.69438994531E+02  0.20967678172E+03  0.23229863021E+03  0.00000000000E+00 0.  1.
<mgrwt>
<rscale>  2 0.18990064E+03</rscale>
<asrwt>0</asrwt>
<pdfrwt beam="1">  1       21 0.84103000E-01 0.18993571E+03</pdfrwt>
<pdfrwt beam="2">  1       21 0.26385673E-01 0.18993571E+03</pdfrwt>
<totfact> 0.16799316E+04</totfact>
</mgrwt>
</event>
<event>
12    1  0.1019868E-001  0.1856209E+03  0.7546771E-02  0.1162820E+00
         21   -1    0    0  501  502  0.00000000000E+00  0.00000000000E+00  0.13634960813E+03  0.13634960813E+03  0.00000000000E+00 0.  1.
         21   -1    0    0  502  503 -0.00000000000E+00 -0.00000000000E+00 -0.25183261066E+03  0.25183261066E+03  0.00000000000E+00 0. -1.
         -6    2    1    2    0  503  0.61857132376E+02  0.25620287957E+02 -0.44771250263E+02  0.19094390773E+03  0.17312540850E+03 0.  0.
        -24    2    3    3    0    0  0.40200216784E+02 -0.23321408809E+02  0.31885332620E+02  0.97334969187E+02  0.79356639622E+02 0.  0.
          6    2    1    2  501    0 -0.61857132376E+02 -0.25620287957E+02 -0.70711752266E+02  0.19723831107E+03  0.17152287155E+03 0.  0.
         24    2    5    5    0    0 -0.31961813339E+02  0.15214085381E+02  0.24597205432E+02  0.89224128834E+02  0.78121039069E+02 0.  0.
          5    1    5    5  501    0 -0.29895319036E+02 -0.40834373338E+02 -0.95308957698E+02  0.10801418223E+03  0.47000000000E+01 0. -1.
        -13    1    6    6    0    0 -0.32302355793E+01 -0.14620125318E+02  0.41779962564E+02  0.44381840408E+02  0.00000000000E+00 0.  1.
         14    1    6    6    0    0 -0.28731577760E+02  0.29834210700E+02 -0.17182757131E+02  0.44842288426E+02  0.00000000000E+00 0. -1.
         -5    1    3    3    0  503  0.21656915592E+02  0.48941696766E+02 -0.76656582883E+02  0.93608938540E+02  0.47000000000E+01 0.  1.
         13    1    4    4    0    0 -0.18623612331E+02 -0.15227663123E+01  0.29046567374E+02  0.34537817385E+02  0.00000000000E+00 0. -1.
        -14    1    4    4    0    0  0.58823829114E+02 -0.21798642496E+02  0.28387652455E+01  0.62797151802E+02  0.00000000000E+00 0.  1.
<mgrwt>
<rscale>  2 0.18524631E+03</rscale>
<asrwt>0</asrwt>
<pdfrwt beam="1">  1       21 0.20976863E-01 0.18562088E+03</pdfrwt>
<pdfrwt beam="2">  1       21 0.38743478E-01 0.18562088E+03</pdfrwt>
<totfact> 0.13593448E+05</totfact>
</mgrwt>
</event>
<event>
12    1  0.1019868E-001  0.2415788E+03  0.7546771E-02  0.1119188E+00
         21   -1    0    0  501  502  0.00000000000E+00  0.00000000000E+00  0.82652648993E+03  0.82652648993E+03  0.00000000000E+00 0. -1.
         21   -1    0    0  502  503 -0.00000000000E+00 -0.00000000000E+00 -0.80752588659E+02  0.80752588659E+02  0.00000000000E+00 0.  1.
         -6    2    1    2    0  503 -0.14643996542E+03  0.82287564721E+02  0.54149096227E+03  0.59293570929E+03  0.17362138794E+03 0.  0.
        -24    2    3    3    0    0 -0.17816061845E+03  0.73239422455E+02  0.46736932186E+03  0.51166962606E+03  0.79161254717E+02 0.  0.
          6    2    1    2  501    0  0.14643996542E+03 -0.82287564721E+02  0.20428293900E+03  0.31434336929E+03  0.16989504958E+03 0.  0.
         24    2    5    5    0    0  0.13758521547E+02 -0.76084766604E+01  0.44996674683E+02  0.93944785492E+02  0.80955149042E+02 0.  0.
          5    1    5    5  501    0  0.13268144388E+03 -0.74679088060E+02  0.15928626431E+03  0.22039858380E+03  0.47000000000E+01 0. -1.
        -13    1    6    6    0    0  0.34282932439E+02 -0.26062478944E+02  0.23284185218E+01  0.43127645405E+02  0.00000000000E+00 0.  1.
         14    1    6    6    0    0 -0.20524410892E+02  0.18454002284E+02  0.42668256161E+02  0.50817140087E+02  0.00000000000E+00 0. -1.
         -5    1    3    3    0  503  0.31720653025E+02  0.90481422662E+01  0.74121640413E+02  0.81266083235E+02  0.47000000000E+01 0.  1.
         13    1    4    4    0    0 -0.16392239379E+03  0.38953437966E+02  0.41076097402E+03  0.44397353446E+03  0.00000000000E+00 0. -1.
        -14    1    4    4    0    0 -0.14238224658E+02  0.34285984489E+02  0.56608347835E+02  0.67696091604E+02  0.00000000000E+00 0.  1.
<mgrwt>
<rscale>  2 0.24090997E+03</rscale>
<asrwt>0</asrwt>
<pdfrwt beam="1">  1       21 0.12715792E+00 0.24157875E+03</pdfrwt>
<pdfrwt beam="2">  1       21 0.12423476E-01 0.24157875E+03</pdfrwt>
<totfact> 0.24501991E+04</totfact>
</mgrwt>
</event>
<event>
12    1  0.1019868E-001  0.1927596E+03  0.7546771E-02  0.1156007E+00
         21   -1    0    0  501  502  0.00000000000E+00  0.00000000000E+00  0.47273601993E+03  0.47273601993E+03  0.00000000000E+00 0. -1.
         21   -1    0    0  502  503 -0.00000000000E+00 -0.00000000000E+00 -0.11454806753E+03  0.11454806753E+03  0.00000000000E+00 0. -1.
         -6    2    1    2    0  503  0.73871605440E+02 -0.40888447041E+02  0.14528276317E+02  0.19325585886E+03  0.17322781815E+03 0.  0.
        -24    2    3    3    0    0 -0.24669013894E+01  0.26229799202E+01 -0.40265677800E+02  0.89596419792E+02  0.79957663827E+02 0.  0.
          6    2    1    2  501    0 -0.73871605440E+02  0.40888447041E+02  0.34365967608E+03  0.39402822860E+03  0.17328413884E+03 0.  0.
         24    2    5    5    0    0  0.22216189592E+01  0.41953118741E+02  0.28410474859E+03  0.29728014482E+03  0.76778750784E+02 0.  0.
          5    1    5    5  501    0 -0.76093224400E+02 -0.10646717005E+01  0.59554927492E+02  0.96748083774E+02  0.47000000000E+01 0. -1.
        -13    1    6    6    0    0 -0.41886919384E+01  0.18129579949E+02  0.83003973368E+01  0.20374577424E+02  0.00000000000E+00 0.  1.
         14    1    6    6    0    0  0.64103108976E+01  0.23823538792E+02  0.27580435125E+03  0.27690556740E+03  0.00000000000E+00 0. -1.
         -5    1    3    3    0  503  0.76338506830E+02 -0.43511426961E+02  0.54793954117E+02  0.10365943907E+03  0.47000000000E+01 0.  1.
         13    1    4    4    0    0  0.16218282100E+02  0.29355900960E+02  0.48908115817E+01  0.33892796187E+02  0.00000000000E+00 0. -1.
        -14    1    4    4    0    0 -0.18685183489E+02 -0.26732921040E+02 -0.45156489382E+02  0.55703623605E+02  0.00000000000E+00 0.  1.
<mgrwt>
<rscale>  2 0.19274696E+03</rscale>
<asrwt>0</asrwt>
<pdfrwt beam="1">  1       21 0.72728618E-01 0.19275962E+03</pdfrwt>
<pdfrwt beam="2">  1       21 0.17622780E-01 0.19275962E+03</pdfrwt>
<totfact> 0.49709361E+04</totfact>
</mgrwt>
</event>
<event>
12    1  0.1019868E-001  0.1909728E+03  0.7546771E-02  0.1158028E+00
         21   -1    0    0  501  502  0.00000000000E+00  0.00000000000E+00  0.77214442087E+02  0.77214442087E+02  0.00000000000E+00 0. -1.
         21   -1    0    0  502  503 -0.00000000000E+00 -0.00000000000E+00 -0.54802390389E+03  0.54802390389E+03  0.00000000000E+00 0.  1.
         -6    2    1    2    0  503 -0.39140611041E+02  0.65349407646E+02 -0.35420548827E+03  0.40148156518E+03  0.17298377597E+03 0.  0.
        -24    2    3    3    0    0 -0.34298976469E+02  0.81862495776E+02 -0.13435349689E+03  0.18090706162E+03  0.82453713187E+02 0.  0.
          6    2    1    2  501    0  0.39140611041E+02 -0.65349407646E+02 -0.11660397353E+03  0.22375678079E+03  0.17512303616E+03 0.  0.
         24    2    5    5    0    0 -0.42698064528E+02 -0.25798737785E+02 -0.83937858667E+02  0.12705626701E+03  0.81295948753E+02 0.  0.
          5    1    5    5  501    0  0.81838675569E+02 -0.39550669861E+02 -0.32666114867E+02  0.96700513783E+02  0.47000000000E+01 0. -1.
        -11    1    6    6    0    0 -0.10827468189E+02  0.28361425413E+02 -0.40707544584E+02  0.50780987632E+02  0.00000000000E+00 0.  1.
         12    1    6    6    0    0 -0.31870596339E+02 -0.54160163198E+02 -0.43230314083E+02  0.76275279379E+02  0.00000000000E+00 0. -1.
         -5    1    3    3    0  503 -0.48416345718E+01 -0.16513088130E+02 -0.21985199138E+03  0.22057450356E+03  0.47000000000E+01 0.  1.
         11    1    4    4    0    0 -0.40435505945E+02  0.49658768380E+01 -0.67434087465E+02  0.78784809615E+02  0.00000000000E+00 0. -1.
        -12    1    4    4    0    0  0.61365294757E+01  0.76896618938E+02 -0.66919409420E+02  0.10212225201E+03  0.00000000000E+00 0.  1.
<mgrwt>
<rscale>  2 0.19048096E+03</rscale>
<asrwt>0</asrwt>
<pdfrwt beam="1">  1       21 0.11879145E-01 0.19097280E+03</pdfrwt>
<pdfrwt beam="2">  1       21 0.84311371E-01 0.19097280E+03</pdfrwt>
<totfact> 0.73000140E+04</totfact>
</mgrwt>
</event>
<event>
12    1  0.1019868E-001  0.1754368E+03  0.7546771E-02  0.1172395E+00
         21   -1    0    0  501  502  0.00000000000E+00  0.00000000000E+00  0.28619245288E+04  0.28619245288E+04  0.00000000000E+00 0. -1.
         21   -1    0    0  502  503 -0.00000000000E+00 -0.00000000000E+00 -0.14793828946E+02  0.14793828946E+02  0.00000000000E+00 0. -1.
         -6    2    1    2    0  503 -0.22990320260E+02 -0.12965933916E+02  0.67085350942E+03  0.69341366938E+03  0.17343994787E+03 0.  0.
        -24    2    3    3    0    0 -0.11105000626E+02  0.58104595747E+02  0.45515834706E+03  0.46595208126E+03  0.80266780419E+02 0.  0.
          6    2    1    2  501    0  0.22990320260E+02  0.12965933916E+02  0.21762771904E+04  0.21833046883E+04  0.17303260489E+03 0.  0.
         24    2    5    5    0    0  0.63093961136E+02  0.51097416597E+02  0.16876421589E+04  0.16915236435E+04  0.80773673420E+02 0.  0.
          5    1    5    5  501    0 -0.40103640875E+02 -0.38131482682E+02  0.48863503155E+03  0.49178104481E+03  0.47000000000E+01 0. -1.
        -13    1    6    6    0    0  0.38542176784E+02 -0.49410655810E+01  0.29631216881E+03  0.29884915076E+03  0.00000000000E+00 0.  1.
         14    1    6    6    0    0  0.24551784352E+02  0.56038482178E+02  0.13913299900E+04  0.13926744928E+04  0.00000000000E+00 0. -1.
         -5    1    3    3    0  503 -0.11885319634E+02 -0.71070529662E+02  0.21569516235E+03  0.22746158812E+03  0.47000000000E+01 0.  1.
         13    1    4    4    0    0  0.57761196900E+01  0.69606965105E+01  0.15735842787E+01  0.91810142177E+01  0.00000000000E+00 0. -1.
        -14    1    4    4    0    0 -0.16881120316E+02  0.51143899236E+02  0.45358476279E+03  0.45677106704E+03  0.00000000000E+00 0.  1.
<mgrwt>
<rscale>  2 0.17533608E+03</rscale>
<asrwt>0</asrwt>
<pdfrwt beam="1">  1       21 0.44029564E+00 0.17543684E+03</pdfrwt>
<pdfrwt beam="2">  1       21 0.22759760E-02 0.17543684E+03</pdfrwt>
<totfact> 0.49298248E+03</totfact>
</mgrwt>
</event>
<event>
12    1  0.1019868E-001  0.1882126E+03  0.7546771E-02  0.1160133E+00
         21   -1    0    0  501  502  0.00000000000E+00  0.00000000000E+00  0.52532073292E+03  0.52532073292E+03  0.00000000000E+00 0.  1.
         21   -1    0    0  502  503 -0.00000000000E+00 -0.00000000000E+00 -0.68567123309E+02  0.68567123309E+02  0.00000000000E+00 0.  1.
         -6    2    1    2    0  503 -0.10267402101E+02  0.74946452140E+02  0.26772476620E+03  0.32713725232E+03  0.17210415796E+03 0.  0.
        -24    2    3    3    0    0  0.43296932589E+02  0.90049889309E+02  0.21660353830E+03  0.25142251329E+03  0.79451749185E+02 0.  0.
          6    2    1    2  501    0  0.10267402101E+02 -0.74946452140E+02  0.18902884341E+03  0.26675060390E+03  0.17234149473E+03 0.  0.
         24    2    5    5    0    0 -0.30699437022E+02 -0.10385011402E+03  0.14837651914E+03  0.20203271575E+03  0.84109007755E+02 0.  0.
          5    1    5    5  501    0  0.40966839123E+02  0.28903661885E+02  0.40652324263E+02  0.64717888146E+02  0.47000000000E+01 0. -1.
        -11    1    6    6    0    0 -0.17021016490E+02 -0.93369588652E+01  0.85541980319E+02  0.87717297041E+02  0.00000000000E+00 0.  1.
         12    1    6    6    0    0 -0.13678420532E+02 -0.94513155159E+02  0.62834538824E+02  0.11431541871E+03  0.00000000000E+00 0. -1.
         -5    1    3    3    0  503 -0.53564334690E+02 -0.15103437169E+02  0.51121227902E+02  0.75714739037E+02  0.47000000000E+01 0.  1.
         11    1    4    4    0    0  0.61657011986E+02  0.57590455401E+02  0.11097887173E+03  0.13940788232E+03  0.00000000000E+00 0. -1.
        -12    1    4    4    0    0 -0.18360079397E+02  0.32459433908E+02  0.10562466656E+03  0.11201463097E+03  0.00000000000E+00 0.  1.
<mgrwt>
<rscale>  2 0.18815825E+03</rscale>
<asrwt>0</asrwt>
<pdfrwt beam="1">  1       21 0.80818572E-01 0.18821260E+03</pdfrwt>
<pdfrwt beam="2">  1       21 0.10548789E-01 0.18821260E+03</pdfrwt>
<totfact> 0.99397246E+04</totfact>
</mgrwt>
</event>
<event>
12    1  0.1019868E-001  0.1767582E+03  0.7546771E-02  0.1171313E+00
         21   -1    0    0  503  502  0.00000000000E+00  0.00000000000E+00  0.46891693419E+03  0.46891693419E+03  0.00000000000E+00 0. -1.
         21   -1    0    0  501  503 -0.00000000000E+00 -0.00000000000E+00 -0.79807452525E+02  0.79807452525E+02  0.00000000000E+00 0. -1.
          6    2    1    2  501    0  0.35791067536E+02 -0.28219459353E+01  0.81559233650E+02  0.19466736110E+03  0.17307370970E+03 0.  0.
         24    2    3    3    0    0 -0.42920311620E+02 -0.20724344374E+02  0.42638181959E+02  0.10492932377E+03  0.83189523542E+02 0.  0.
         -6    2    1    2    0  502 -0.35791067536E+02  0.28219459353E+01  0.30755024801E+03  0.35405702562E+03  0.17169816085E+03 0.  0.
        -24    2    5    5    0    0 -0.13542874311E+02  0.50778077888E+02  0.27673233823E+03  0.29268434230E+03  0.79507952859E+02 0.  0.
          5    1    3    3  501    0  0.78711379156E+02  0.17902398439E+02  0.38921051691E+02  0.89738037326E+02  0.47000000000E+01 0. -1.
        -13    1    4    4    0    0  0.22201432260E+01 -0.13876700003E+02  0.55696231423E+02  0.57441814331E+02  0.00000000000E+00 0.  1.
         14    1    4    4    0    0 -0.45140454846E+02 -0.68476443710E+01 -0.13058049464E+02  0.47487509441E+02  0.00000000000E+00 0. -1.
         -5    1    5    5    0  502 -0.22248193224E+02 -0.47956131953E+02  0.30817909781E+02  0.61372683311E+02  0.47000000000E+01 0.  1.
         13    1    6    6    0    0 -0.37932914546E+02  0.52961109712E+02  0.23886695997E+03  0.24759081104E+03  0.00000000000E+00 0. -1.
        -14    1    6    6    0    0  0.24390040235E+02 -0.21830318242E+01  0.37865378264E+02  0.45093531262E+02  0.00000000000E+00 0.  1.
<mgrwt>
<rscale>  2 0.17642060E+03</rscale>
<asrwt>0</asrwt>
<pdfrwt beam="1">  1       21 0.72141065E-01 0.17675823E+03</pdfrwt>
<pdfrwt beam="2">  1       21 0.12278070E-01 0.17675823E+03</pdfrwt>
<totfact> 0.98250887E+04</totfact>
</mgrwt>
</event>
<event>
12    1  0.1019868E-001  0.2325192E+03  0.7546771E-02  0.1124912E+00
         21   -1    0    0  501  502  0.00000000000E+00  0.00000000000E+00  0.31064221513E+03  0.31064221513E+03  0.00000000000E+00 0.  1.
         21   -1    0    0  502  503 -0.00000000000E+00 -0.00000000000E+00 -0.20040493070E+03  0.20040493070E+03  0.00000000000E+00 0.  1.
         -6    2    1    2    0  503 -0.26099361873E+02 -0.15270046585E+03  0.14802520001E+03  0.27547739022E+03  0.17314076275E+03 0.  0.
        -24    2    3    3    0    0  0.24226001166E+02 -0.14623782988E+03  0.14828134414E+03  0.22452090449E+03  0.80311129443E+02 0.  0.
          6    2    1    2  501    0  0.26099361873E+02  0.15270046585E+03 -0.37787915581E+02  0.23556975561E+03  0.17339715751E+03 0.  0.
         24    2    5    5    0    0 -0.48440537488E+01  0.12236185828E+03 -0.86243631920E+02  0.17039328343E+03  0.81240493438E+02 0.  0.
          5    1    5    5  501    0  0.30943415621E+02  0.30338607570E+02  0.48455716338E+02  0.65176472177E+02  0.47000000000E+01 0. -1.
        -13    1    6    6    0    0  0.32127380173E+02  0.25851417848E+02 -0.38998009907E+02  0.56756577929E+02  0.00000000000E+00 0.  1.
         14    1    6    6    0    0 -0.36971433921E+02  0.96510440429E+02 -0.47245622013E+02  0.11363670550E+03  0.00000000000E+00 0. -1.
         -5    1    3    3    0  503 -0.50325363039E+02 -0.64626359631E+01 -0.25614412419E+00  0.50956485734E+02  0.47000000000E+01 0.  1.
         13    1    4    4    0    0  0.54745113883E+00  0.87634509932E+01  0.20315627412E+02  0.22131933788E+02  0.00000000000E+00 0. -1.
        -14    1    4    4    0    0  0.23678550027E+02 -0.15500128088E+03  0.12796571672E+03  0.20238897070E+03  0.00000000000E+00 0.  1.
<mgrwt>
<rscale>  2 0.23247141E+03</rscale>
<asrwt>0</asrwt>
<pdfrwt beam="1">  1       21 0.47791110E-01 0.23251921E+03</pdfrwt>
<pdfrwt beam="2">  1       21 0.30831528E-01 0.23251921E+03</pdfrwt>
<totfact> 0.41477706E+04</totfact>
</mgrwt>
</event>
<event>
12    1  0.1019868E-001  0.2144793E+03  0.7546771E-02  0.1138111E+00
         21   -1    0    0  501  502  0.00000000000E+00  0.00000000000E+00  0.24895311119E+03  0.24895311119E+03  0.00000000000E+00 0. -1.
         21   -1    0    0  502  503 -0.00000000000E+00 -0.00000000000E+00 -0.36254023626E+03  0.36254023626E+03  0.00000000000E+00 0.  1.
         -6    2    1    2    0  503 -0.10349467187E+03 -0.71298770055E+02 -0.27098854318E+03  0.34545470924E+03  0.17352090331E+03 0.  0.
        -24    2    3    3    0    0 -0.31795323205E+02 -0.19273142053E+02 -0.23719943054E+03  0.25052706995E+03  0.71539124605E+02 0.  0.
          6    2    1    2  501    0  0.10349467187E+03  0.71298770055E+02  0.15740141811E+03  0.26603863821E+03  0.17380071600E+03 0.  0.
         24    2    5    5    0    0  0.10895592855E+03  0.32697153791E+02  0.17453008494E+03  0.22319717080E+03  0.80098241371E+02 0.  0.
          5    1    5    5  501    0 -0.54612566874E+01  0.38601616264E+02 -0.17128666828E+02  0.42841467413E+02  0.47000000000E+01 0. -1.
        -13    1    6    6    0    0 -0.79453443911E+01 -0.38277658753E+01 -0.13019779946E+01  0.89148996510E+01  0.00000000000E+00 0.  1.
         14    1    6    6    0    0  0.11690127295E+03  0.36524919666E+02  0.17583206293E+03  0.21428227115E+03  0.00000000000E+00 0. -1.
         -5    1    3    3    0  503 -0.71699348661E+02 -0.52025628002E+02 -0.33789112644E+02  0.94927639288E+02  0.47000000000E+01 0.  1.
         11    1    4    4    0    0  0.23180985776E+02 -0.38995342395E+01 -0.72432553278E+02  0.76151423120E+02  0.00000000000E+00 0. -1.
        -12    1    4    4    0    0 -0.54976308981E+02 -0.15373607813E+02 -0.16476687726E+03  0.17437564683E+03  0.00000000000E+00 0.  1.
<mgrwt>
<rscale>  2 0.21442256E+03</rscale>
<asrwt>0</asrwt>
<pdfrwt beam="1">  1       21 0.38300478E-01 0.21447925E+03</pdfrwt>
<pdfrwt beam="2">  1       21 0.55775421E-01 0.21447925E+03</pdfrwt>
<totfact> 0.19650593E+04</totfact>
</mgrwt>
</event>
<event>
12    1  0.1019868E-001  0.1907703E+03  0.7546771E-02  0.1157773E+00
         21   -1    0    0  501  502  0.00000000000E+00  0.00000000000E+00  0.25959998268E+04  0.25959998268E+04  0.00000000000E+00 0.  1.
         21   -1    0    0  502  503 -0.00000000000E+00 -0.00000000000E+00 -0.14315472398E+02  0.14315472398E+02  0.00000000000E+00 0.  1.
         -6    2    1    2    0  503  0.57186706809E+02  0.57839192742E+02  0.11025732057E+04  0.11189553165E+04  0.17256197374E+03 0.  0.
        -24    2    3    3    0    0  0.21411229337E+02 -0.31027174577E+02  0.67109777396E+03  0.67694824166E+03  0.80408789115E+02 0.  0.
          6    2    1    2  501    0 -0.57186706809E+02 -0.57839192742E+02  0.14791111487E+04  0.14913599827E+04  0.17253728893E+03 0.  0.
         24    2    5    5    0    0 -0.36096487123E+02 -0.10477730228E+03  0.11681109684E+04  0.11760963063E+04  0.80237446070E+02 0.  0.
          5    1    5    5  501    0 -0.21090219686E+02  0.46938109541E+02  0.31100018030E+03  0.31526367638E+03  0.47000000000E+01 0. -1.
        -11    1    6    6    0    0 -0.45096175849E+02 -0.26327951025E+02  0.63840017457E+03  0.64053228566E+03  0.00000000000E+00 0.  1.
         12    1    6    6    0    0  0.89996887262E+01 -0.78449351258E+02  0.52971079383E+03  0.53556402064E+03  0.00000000000E+00 0. -1.
         -5    1    3    3    0  503  0.35775477473E+02  0.88866367320E+02  0.43147543169E+03  0.44200707481E+03  0.47000000000E+01 0.  1.
         11    1    4    4    0    0 -0.19610158267E+02  0.16675235682E+02  0.21323973571E+03  0.21478781781E+03  0.00000000000E+00 0. -1.
        -12    1    4    4    0    0  0.41021387603E+02 -0.47702410259E+02  0.45785803825E+03  0.46216042385E+03  0.00000000000E+00 0.  1.
<mgrwt>
<rscale>  2 0.19076477E+03</rscale>
<asrwt>0</asrwt>
<pdfrwt beam="1">  1       21 0.39938421E+00 0.19077035E+03</pdfrwt>
<pdfrwt beam="2">  1       21 0.22023824E-02 0.19077035E+03</pdfrwt>
<totfact> 0.92669845E+03</totfact>
</mgrwt>
</event>
<event>
12    1  0.1019868E-001  0.1860277E+03  0.7546771E-02  0.1164041E+00
         21   -1    0    0  503  502  0.00000000000E+00  0.00000000000E+00  0.50258319666E+02  0.50258319666E+02  0.00000000000E+00 0.  1.
         21   -1    0    0  501  503 -0.00000000000E+00 -0.00000000000E+00 -0.66417399493E+03  0.66417399493E+03  0.00000000000E+00 0.  1.
          6    2    1    2  501    0  0.47423257201E+02 -0.70525520773E+01 -0.34667054507E+03  0.39342949017E+03  0.17974313088E+03 0.  0.
         24    2    3    3    0    0 -0.22663140637E+02 -0.43753565657E+02 -0.25327081262E+03  0.27093594919E+03  0.82657072204E+02 0.  0.
         -6    2    1    2    0  502 -0.47423257201E+02  0.70525520773E+01 -0.26724513020E+03  0.32100282443E+03  0.17124295567E+03 0.  0.
        -24    2    5    5    0    0 -0.62389095450E+02 -0.79256923640E+01 -0.71491441932E+02  0.12405125529E+03  0.79513972595E+02 0.  0.
          5    1    3    3  501    0  0.70086397837E+02  0.36701013579E+02 -0.93399732447E+02  0.12249354098E+03  0.47000000000E+01 0. -1.
        -11    1    4    4    0    0  0.29540398795E+02 -0.60909942817E+01 -0.58738808350E+02  0.66030167187E+02  0.00000000000E+00 0.  1.
         12    1    4    4    0    0 -0.52203539432E+02 -0.37662571375E+02 -0.19453200427E+03  0.20490578200E+03  0.00000000000E+00 0. -1.
         -5    1    5    5    0  502  0.14965838250E+02  0.14978244441E+02 -0.19575368827E+03  0.19695156915E+03  0.47000000000E+01 0.  1.
         11    1    6    6    0    0 -0.21769162540E+02 -0.41698867037E+02 -0.44395937566E+02  0.64681459648E+02  0.00000000000E+00 0. -1.
        -12    1    6    6    0    0 -0.40619932910E+02  0.33773174673E+02 -0.27095504366E+02  0.59369795637E+02  0.00000000000E+00 0.  1.
<mgrwt>
<rscale>  2 0.18394302E+03</rscale>
<asrwt>0</asrwt>
<pdfrwt beam="1">  1       21 0.77320495E-02 0.18602768E+03</pdfrwt>
<pdfrwt beam="2">  1       21 0.10218061E+00 0.18602768E+03</pdfrwt>
<totfact> 0.99563747E+04</totfact>
</mgrwt>
</event>
<event>
12    1  0.1019868E-001  0.1992685E+03  0.7546771E-02  0.1151433E+00
         21   -1    0    0  503  502  0.00000000000E+00  0.00000000000E+00  0.17148545321E+03  0.17148545321E+03  0.00000000000E+00 0. -1.
         21   -1    0    0  501  503 -0.00000000000E+00 -0.00000000000E+00 -0.56604537966E+03  0.56604537966E+03  0.00000000000E+00 0. -1.
          6    2    1    2  501    0  0.47359392115E+02  0.77292118382E+02 -0.48218544862E+03  0.51984714756E+03  0.17181753805E+03 0.  0.
         24    2    3    3    0    0 -0.53437278258E+01  0.65643683702E+02 -0.14299049583E+03  0.17635244472E+03  0.79474865360E+02 0.  0.
         -6    2    1    2    0  502 -0.47359392115E+02 -0.77292118382E+02  0.87625522168E+02  0.21768368531E+03  0.17745695571E+03 0.  0.
        -24    2    5    5    0    0 -0.39898175682E+02 -0.12397398540E+03  0.69581719950E+02  0.16686503463E+03  0.77723294777E+02 0.  0.
          5    1    3    3  501    0  0.52703119940E+02  0.11648434679E+02 -0.33919495279E+03  0.34349470284E+03  0.47000000000E+01 0. -1.
        -13    1    4    4    0    0 -0.28976166464E+02  0.29808354170E+02 -0.20089961914E+02  0.46171016568E+02  0.00000000000E+00 0.  1.
         14    1    4    4    0    0  0.23632438638E+02  0.35835329533E+02 -0.12290053392E+03  0.13018142815E+03  0.00000000000E+00 0. -1.
         -5    1    5    5    0  502 -0.74612164326E+01  0.46681867019E+02  0.18043802218E+02  0.50818650685E+02  0.47000000000E+01 0.  1.
         11    1    6    6    0    0 -0.37527808402E+02 -0.22753333951E+02  0.44618089552E+02  0.62584539022E+02  0.00000000000E+00 0. -1.
        -12    1    6    6    0    0 -0.23703672805E+01 -0.10122065145E+03  0.24963630398E+02  0.10428049560E+03  0.00000000000E+00 0.  1.
<mgrwt>
<rscale>  2 0.19800529E+03</rscale>
<asrwt>0</asrwt>
<pdfrwt beam="1">  1       21 0.26382378E-01 0.19926855E+03</pdfrwt>
<pdfrwt beam="2">  1       21 0.87083903E-01 0.19926855E+03</pdfrwt>
<totfact> 0.15422018E+04</totfact>
</mgrwt>
</event>
<event>
12    1  0.1019868E-001  0.2037062E+03  0.7546771E-02  0.1147812E+00
         21   -1    0    0  503  502  0.00000000000E+00  0.00000000000E+00  0.34511425470E+03  0.34511425470E+03  0.00000000000E+00 0.  1.
         21   -1    0    0  501  503 -0.00000000000E+00 -0.00000000000E+00 -0.12888619724E+03  0.12888619724E+03  0.00000000000E+00 0.  1.
          6    2    1    2  501    0  0.74058686741E+02 -0.79695226411E+02  0.34722792193E+02  0.20116281200E+03  0.16560430682E+03 0.  0.
         24    2    3    3    0    0  0.10517278483E+03 -0.63710608557E+02  0.54623508822E+02  0.16064462312E+03  0.87764519645E+02 0.  0.
         -6    2    1    2    0  502 -0.74058686741E+02  0.79695226411E+02  0.18150526526E+03  0.27283763994E+03  0.17222136411E+03 0.  0.
        -24    2    5    5    0    0 -0.78120641100E+02  0.99518939847E+02  0.82130768094E+02  0.17131493423E+03  0.81218776572E+02 0.  0.
          5    1    3    3  501    0 -0.31114098090E+02 -0.15984617853E+02 -0.19900716628E+02  0.40518188881E+02  0.47000000000E+01 0. -1.
        -11    1    4    4    0    0  0.45297288641E+02 -0.48491422819E+02 -0.14514452264E+02  0.67925928553E+02  0.00000000000E+00 0.  1.
         12    1    4    4    0    0  0.59875496190E+02 -0.15219185738E+02  0.69137961086E+02  0.92718694564E+02  0.00000000000E+00 0. -1.
         -5    1    5    5    0  502  0.40619543596E+01 -0.19823713436E+02  0.99374497167E+02  0.10152270571E+03  0.47000000000E+01 0.  1.
         11    1    6    6    0    0 -0.50201642047E+02  0.22911131643E+02 -0.56034380509E+00  0.55185494494E+02  0.00000000000E+00 0. -1.
        -12    1    6    6    0    0 -0.27918999053E+02  0.76607808204E+02  0.82691111899E+02  0.11612943973E+03  0.00000000000E+00 0.  1.
<mgrwt>
<rscale>  2 0.20230103E+03</rscale>
<asrwt>0</asrwt>
<pdfrwt beam="1">  1       21 0.53094500E-01 0.20370620E+03</pdfrwt>
<pdfrwt beam="2">  1       21 0.19828646E-01 0.20370620E+03</pdfrwt>
<totfact> 0.78438726E+04</totfact>
</mgrwt>
</event>
<event>
12    1  0.1019868E-001  0.1924150E+03  0.7546771E-02  0.1156388E+00
         21   -1    0    0  501  502  0.00000000000E+00  0.00000000000E+00  0.72740300805E+02  0.72740300805E+02  0.00000000000E+00 0.  1.
         21   -1    0    0  502  503 -0.00000000000E+00 -0.00000000000E+00 -0.53933409867E+03  0.53933409867E+03  0.00000000000E+00 0.  1.
         -6    2    1    2    0  503  0.30884201398E+02  0.76522900403E+02 -0.15923783981E+03  0.24945722120E+03  0.17338577624E+03 0.  0.
        -24    2    3    3    0    0  0.24212087774E+02 -0.26320431290E+02 -0.57033372268E+02  0.10423631651E+03  0.79582748322E+02 0.  0.
          6    2    1    2  501    0 -0.30884201398E+02 -0.76522900403E+02 -0.30735595806E+03  0.36261717827E+03  0.17382158911E+03 0.  0.
         24    2    5    5    0    0 -0.13924019050E+02 -0.10871458775E+03 -0.15731992171E+03  0.20816053476E+03  0.81046348300E+02 0.  0.
          5    1    5    5  501    0 -0.16960182348E+02  0.32191687342E+02 -0.15003603635E+03  0.15445664351E+03  0.47000000000E+01 0. -1.
        -13    1    6    6    0    0 -0.32972912092E+02 -0.11023675230E+03 -0.14621132819E+03  0.18605673055E+03  0.00000000000E+00 0.  1.
         14    1    6    6    0    0  0.19048893042E+02  0.15221645559E+01 -0.11108593514E+02  0.22103804219E+02  0.00000000000E+00 0. -1.
         -5    1    3    3    0  503  0.66721136245E+01  0.10284333169E+03 -0.10220446754E+03  0.14522090469E+03  0.47000000000E+01 0.  1.
         11    1    4    4    0    0  0.16462105408E+02 -0.40260660438E+02  0.15467215004E+01  0.43523718140E+02  0.00000000000E+00 0. -1.
        -12    1    4    4    0    0  0.77499823653E+01  0.13940229148E+02 -0.58580093769E+02  0.60712598374E+02  0.00000000000E+00 0.  1.
<mgrwt>
<rscale>  2 0.19231652E+03</rscale>
<asrwt>0</asrwt>
<pdfrwt beam="1">  1       21 0.11190816E-01 0.19241500E+03</pdfrwt>
<pdfrwt beam="2">  1       21 0.82974475E-01 0.19241500E+03</pdfrwt>
<totfact> 0.84165290E+04</totfact>
</mgrwt>
</event>
<event>
12    1  0.1019868E-001  0.1801744E+03  0.7546771E-02  0.1167819E+00
         21   -1    0    0  501  502  0.00000000000E+00  0.00000000000E+00  0.76697354072E+03  0.76697354072E+03  0.00000000000E+00 0.  1.
         21   -1    0    0  502  503 -0.00000000000E+00 -0.00000000000E+00 -0.48435686565E+02  0.48435686565E+02  0.00000000000E+00 0. -1.
         -6    2    1    2    0  503 -0.41621241468E+01 -0.47397041000E+02  0.21302344412E+03  0.27900144603E+03  0.17377864186E+03 0.  0.
        -24    2    3    3    0    0  0.99036890469E+01  0.36912288940E+02  0.14482281883E+03  0.16955134093E+03  0.79456958323E+02 0.  0.
          6    2    1    2  501    0  0.41621241468E+01  0.47397041000E+02  0.50551441003E+03  0.53640778126E+03  0.17298753212E+03 0.  0.
         24    2    5    5    0    0 -0.41126404278E+02 -0.16705489430E+02  0.18712983432E+03  0.20845806976E+03  0.80416027333E+02 0.  0.
          5    1    5    5  501    0  0.45288528425E+02  0.64102530430E+02  0.31838457572E+03  0.32794971149E+03  0.47000000000E+01 0. -1.
        -13    1    6    6    0    0 -0.43700756632E+01 -0.10511162983E+02  0.16441296496E+03  0.16480656891E+03  0.00000000000E+00 0.  1.
         14    1    6    6    0    0 -0.36756328615E+02 -0.61943264475E+01  0.22716869355E+02  0.43651500852E+02  0.00000000000E+00 0. -1.
         -5    1    3    3    0  503 -0.14065813194E+02 -0.84309329940E+02  0.68200625289E+02  0.10945010510E+03  0.47000000000E+01 0.  1.
         13    1    4    4    0    0  0.28234553483E+02  0.23636123120E+02  0.18483563248E+02  0.41200709180E+02  0.00000000000E+00 0. -1.
        -14    1    4    4    0    0 -0.18330864436E+02  0.13276165819E+02  0.12633925558E+03  0.12835063175E+03  0.00000000000E+00 0.  1.
<mgrwt>
<rscale>  2 0.17998338E+03</rscale>
<asrwt>0</asrwt>
<pdfrwt beam="1">  1       21 0.11799592E+00 0.18017441E+03</pdfrwt>
<pdfrwt beam="2">  1       21 0.74516447E-02 0.18017441E+03</pdfrwt>
<totfact> 0.75175641E+04</totfact>
</mgrwt>
</event>
<event>
12    1  0.1019868E-001  0.2257399E+03  0.7546771E-02  0.1129710E+00
         21   -1    0    0  501  502  0.00000000000E+00  0.00000000000E+00  0.36417941502E+02  0.36417941502E+02  0.00000000000E+00 0. -1.
         21   -1    0    0  502  503 -0.00000000000E+00 -0.00000000000E+00 -0.16983100805E+04  0.16983100805E+04  0.00000000000E+00 0. -1.
         -6    2    1    2    0  503 -0.14454535552E+03  0.62085148593E+01 -0.11953462925E+04  0.12164389740E+04  0.17302922587E+03 0.  0.
        -24    2    3    3    0    0 -0.33031379542E+02  0.22354670470E+02 -0.28000343623E+03  0.29417507483E+03  0.80908881000E+02 0.  0.
          6    2    1    2  501    0  0.14454535552E+03 -0.62085148593E+01 -0.46654584648E+03  0.51828904798E+03  0.17328186558E+03 0.  0.
         24    2    5    5    0    0  0.76272418262E+02  0.39706698540E+02 -0.38255552809E+03  0.40062059696E+03  0.82182887168E+02 0.  0.
          5    1    5    5  501    0  0.68272937255E+02 -0.45915213399E+02 -0.83990318388E+02  0.11766845102E+03  0.47000000000E+01 0. -1.
        -13    1    6    6    0    0 -0.29089617779E+01  0.38029713119E+02 -0.95354303188E+02  0.10269938790E+03  0.00000000000E+00 0.  1.
         14    1    6    6    0    0  0.79181380040E+02  0.16769854208E+01 -0.28720122490E+03  0.29792120906E+03  0.00000000000E+00 0. -1.
         -5    1    3    3    0  503 -0.11151397597E+03 -0.16146155611E+02 -0.91534285631E+03  0.92226389921E+03  0.47000000000E+01 0.  1.
         13    1    4    4    0    0 -0.40001295046E+02  0.40239226941E+02 -0.11685596560E+03  0.12990233134E+03  0.00000000000E+00 0. -1.
        -14    1    4    4    0    0  0.69699155042E+01 -0.17884556471E+02 -0.16314747063E+03  0.16427274349E+03  0.00000000000E+00 0.  1.
<mgrwt>
<rscale>  2 0.22569143E+03</rscale>
<asrwt>0</asrwt>
<pdfrwt beam="1">  1       21 0.56027609E-02 0.22573992E+03</pdfrwt>
<pdfrwt beam="2">  1       21 0.26127844E+00 0.22573992E+03</pdfrwt>
<totfact> 0.12288214E+04</totfact>
</mgrwt>
</event>
<event>
11    1  0.1019868E-001  0.2652750E+03  0.7546771E-02  0.1104374E+00
         21   -1    0    0  501  502  0.00000000000E+00  0.00000000000E+00  0.35286049959E+03  0.35286049959E+03  0.00000000000E+00 0. -1.
         21   -1    0    0  502  503 -0.00000000000E+00 -0.00000000000E+00 -0.22068216203E+03  0.22068216203E+03  0.00000000000E+00 0.  1.
         -6    2    1    2    0  503  0.19049927030E+03 -0.51025434475E+02 -0.26931850952E+02  0.26420973954E+03  0.17374664004E+03 0.  0.
          6    2    1    2  501    0 -0.19049927030E+03  0.51025434475E+02  0.15911018851E+03  0.30933292208E+03  0.17741825625E+03 0.  0.
         24    2    4    4    0    0 -0.16188310986E+03 -0.15245911427E+01  0.53953434326E+02  0.18825268926E+03  0.79496140159E+02 0.  0.
          5    1    4    4  501    0 -0.28616160436E+02  0.52550025617E+02  0.10515675418E+03  0.12108023283E+03  0.47000000000E+01 0. -1.
        -11    1    5    5    0    0 -0.93199347600E+02  0.37041843351E+02  0.41347520491E+02  0.10847964787E+03  0.00000000000E+00 0.  1.
         12    1    5    5    0    0 -0.68683762263E+02 -0.38566434494E+02  0.12605913835E+02  0.79773041385E+02  0.00000000000E+00 0. -1.
         -5    1    3    3    0  503  0.72950264861E+02  0.55911958426E+02 -0.46590643322E+02  0.10315360529E+03  0.47000000000E+01 0.  1.
         11    1    3    3    0    0  0.94589399219E+02 -0.92919050718E+02  0.12277520879E+02  0.13316096256E+03  0.00000000000E+00 0. -1.
        -12    1    3    3    0    0  0.22959606218E+02 -0.14018342183E+02  0.73812714907E+01  0.27895171698E+02  0.00000000000E+00 0.  1.
<mgrwt>
<rscale>  2 0.26466248E+03</rscale>
<asrwt>0</asrwt>
<pdfrwt beam="1">  1       21 0.54286231E-01 0.26527496E+03</pdfrwt>
<pdfrwt beam="2">  1       21 0.33951102E-01 0.26527496E+03</pdfrwt>
<totfact> 0.25843430E+04</totfact>
</mgrwt>
</event>
<event>
12    1  0.1019868E-001  0.1809705E+03  0.7546771E-02  0.1168989E+00
         21   -1    0    0  503  502  0.00000000000E+00  0.00000000000E+00  0.99732657848E+02  0.99732657848E+02  0.00000000000E+00 0. -1.
         21   -1    0    0  501  503 -0.00000000000E+00 -0.00000000000E+00 -0.98609367789E+03  0.98609367789E+03  0.00000000000E+00 0. -1.
          6    2    1    2  501    0 -0.49477840406E+02 -0.23124478931E+02 -0.88827679866E+03  0.90484571842E+03  0.16348487664E+03 0.  0.
         24    2    3    3    0    0 -0.37517801366E+02  0.34712155955E+01 -0.85765224917E+03  0.86229778624E+03  0.81058354888E+02 0.  0.
         -6    2    1    2    0  502  0.49477840406E+02  0.23124478931E+02  0.19157786157E+01  0.18098061732E+03  0.17253265030E+03 0.  0.
        -24    2    5    5    0    0  0.48594620339E+02  0.27965281408E+01 -0.63009194671E+02  0.11277982687E+03  0.79874107451E+02 0.  0.
          5    1    3    3  501    0 -0.11960039040E+02 -0.26595694527E+02 -0.30624549495E+02  0.42547932182E+02  0.47000000000E+01 0. -1.
        -11    1    4    4    0    0 -0.31815504479E+00 -0.68978020070E+01 -0.44342866880E+01  0.82063264371E+01  0.00000000000E+00 0.  1.
         12    1    4    4    0    0 -0.37199646321E+02  0.10369017602E+02 -0.85321796248E+03  0.85409145980E+03  0.00000000000E+00 0. -1.
         -5    1    5    5    0  502  0.88322006696E+00  0.20327950790E+02  0.64924973287E+02  0.68200790445E+02  0.47000000000E+01 0.  1.
         13    1    6    6    0    0  0.21085742941E+02  0.38845694117E+02 -0.14839883452E+02  0.46624228119E+02  0.00000000000E+00 0. -1.
        -14    1    6    6    0    0  0.27508877399E+02 -0.36049165976E+02 -0.48169311219E+02  0.66155598755E+02  0.00000000000E+00 0.  1.
<mgrwt>
<rscale>  2 0.17877995E+03</rscale>
<asrwt>0</asrwt>
<pdfrwt beam="1">  1       21 0.15343486E-01 0.18097048E+03</pdfrwt>
<pdfrwt beam="2">  1       21 0.15170672E+00 0.18097048E+03</pdfrwt>
<totfact> 0.11017728E+04</totfact>
</mgrwt>
</event>
<event>
12    1  0.1019868E-001  0.2637415E+03  0.7546771E-02  0.1105024E+00
         21   -1    0    0  501  502  0.00000000000E+00  0.00000000000E+00  0.86913603711E+03  0.86913603711E+03  0.00000000000E+00 0. -1.
         21   -1    0    0  502  503 -0.00000000000E+00 -0.00000000000E+00 -0.15409891347E+03  0.15409891347E+03  0.00000000000E+00 0. -1.
         -6    2    1    2    0  503 -0.56434378316E+02  0.19005713708E+03  0.20340145628E+01  0.26301588703E+03  0.17281974772E+03 0.  0.
        -24    2    3    3    0    0 -0.10521003645E+03  0.13817879310E+03 -0.10315306652E+01  0.19158819654E+03  0.80885365587E+02 0.  0.
          6    2    1    2  501    0  0.56434378316E+02 -0.19005713708E+03  0.71300310908E+03  0.76021906355E+03  0.17393400077E+03 0.  0.
         24    2    5    5    0    0 -0.36809877984E+01 -0.11181261892E+03  0.23688702472E+03  0.27396328965E+03  0.80154913624E+02 0.  0.
          5    1    5    5  501    0  0.60115366114E+02 -0.78244518169E+02  0.47611608436E+03  0.48625577390E+03  0.47000000000E+01 0. -1.
        -13    1    6    6    0    0 -0.12592759644E+02  0.74026710168E+01  0.10632866717E+02  0.18067511955E+02  0.00000000000E+00 0.  1.
         14    1    6    6    0    0  0.89117718453E+01 -0.11921528993E+03  0.22625415800E+03  0.25589577770E+03  0.00000000000E+00 0. -1.
         -5    1    3    3    0  503  0.48775658136E+02  0.51878343984E+02  0.30655452280E+01  0.71427690490E+02  0.47000000000E+01 0.  1.
         11    1    4    4    0    0 -0.53277292389E+02  0.14560295352E+02 -0.13706324489E+02  0.56906374124E+02  0.00000000000E+00 0. -1.
        -12    1    4    4    0    0 -0.51932744063E+02  0.12361849775E+03  0.12674793824E+02  0.13468182242E+03  0.00000000000E+00 0.  1.
<mgrwt>
<rscale>  2 0.26355796E+03</rscale>
<asrwt>0</asrwt>
<pdfrwt beam="1">  1       21 0.13371323E+00 0.26374152E+03</pdfrwt>
<pdfrwt beam="2">  1       21 0.23707526E-01 0.26374152E+03</pdfrwt>
<totfact> 0.64215928E+03</totfact>
</mgrwt>
</event>
<event>
12    1  0.1019868E-001  0.2148220E+03  0.7546771E-02  0.1139731E+00
         21   -1    0    0  501  502  0.00000000000E+00  0.00000000000E+00  0.21225620376E+03  0.21225620376E+03  0.00000000000E+00 0. -1.
         21   -1    0    0  502  503 -0.00000000000E+00 -0.00000000000E+00 -0.34059170708E+03  0.34059170708E+03  0.00000000000E+00 0. -1.
         -6    2    1    2    0  503 -0.10451600672E+03 -0.21477139658E+02 -0.23593727559E+03  0.31258425047E+03  0.17509326784E+03 0.  0.
        -24    2    3    3    0    0 -0.92781687576E+01  0.38516270956E+02 -0.13069299233E+03  0.15841582226E+03  0.80282793652E+02 0.  0.
          6    2    1    2  501    0  0.10451600672E+03  0.21477139658E+02  0.10760177227E+03  0.24026366037E+03  0.18645005205E+03 0.  0.
         24    2    5    5    0    0  0.13415757769E+03  0.43677243209E+02  0.80576262507E+02  0.19417748560E+03  0.10633157860E+03 0.  0.
          5    1    5    5  501    0 -0.29641570966E+02 -0.22200103551E+02  0.27025509765E+02  0.46086174772E+02  0.47000000000E+01 0. -1.
        -11    1    6    6    0    0  0.11242165363E+03  0.54954436204E+02  0.17295357954E+02  0.12632397900E+03  0.00000000000E+00 0.  1.
         12    1    6    6    0    0  0.21735924055E+02 -0.11277192995E+02  0.63280904553E+02  0.67853506597E+02  0.00000000000E+00 0. -1.
         -5    1    3    3    0  503 -0.95237837962E+02 -0.59993410614E+02 -0.10524428326E+03  0.15416842821E+03  0.47000000000E+01 0.  1.
         11    1    4    4    0    0  0.36639746024E+01 -0.15479253734E+02  0.54383788777E+00  0.15916273613E+02  0.00000000000E+00 0. -1.
        -12    1    4    4    0    0 -0.12942143360E+02  0.53995524690E+02 -0.13123683021E+03  0.14249954865E+03  0.00000000000E+00 0.  1.
<mgrwt>
<rscale>  2 0.21233429E+03</rscale>
<asrwt>0</asrwt>
<pdfrwt beam="1">  1       21 0.32654800E-01 0.21482198E+03</pdfrwt>
<pdfrwt beam="2">  1       21 0.52398724E-01 0.21482198E+03</pdfrwt>
<totfact> 0.30810174E+04</totfact>
</mgrwt>
</event>
<event>
12    1  0.1019868E-001  0.1849762E+03  0.7546771E-02  0.1163140E+00
         21   -1    0    0  503  502  0.00000000000E+00  0.00000000000E+00  0.35338510523E+03  0.35338510523E+03  0.00000000000E+00 0. -1.
         21   -1    0    0  501  503 -0.00000000000E+00 -0.00000000000E+00 -0.13226999821E+03  0.13226999821E+03  0.00000000000E+00 0.  1.
          6    2    1    2  501    0 -0.29987254233E+02  0.58408157286E+02 -0.15477103981E+02  0.18533517750E+03  0.17262340228E+03 0.  0.
         24    2    3    3    0    0 -0.67824721584E+02  0.78183739220E+01  0.20214448715E+02  0.11262357560E+03  0.87258959514E+02 0.  0.
         -6    2    1    2    0  502  0.29987254233E+02 -0.58408157286E+02  0.23659221100E+03  0.30031992594E+03  0.17293188070E+03 0.  0.
        -24    2    5    5    0    0  0.25752535265E+02 -0.56081149814E+01  0.23326180477E+03  0.24703804424E+03  0.76955062931E+02 0.  0.
          5    1    3    3  501    0  0.37837467351E+02  0.50589783364E+02 -0.35691552696E+02  0.72711601896E+02  0.47000000000E+01 0. -1.
        -11    1    4    4    0    0 -0.24171619816E+02 -0.14928250642E+02 -0.30683873658E+02  0.41816503613E+02  0.00000000000E+00 0.  1.
         12    1    4    4    0    0 -0.43653101768E+02  0.22746624564E+02  0.50898322373E+02  0.70807071987E+02  0.00000000000E+00 0. -1.
         -5    1    5    5    0  502  0.42347189674E+01 -0.52800042304E+02  0.33304062232E+01  0.53281881702E+02  0.47000000000E+01 0.  1.
         13    1    6    6    0    0  0.39543513388E+02 -0.28819665757E+02  0.10332094702E+03  0.11432182940E+03  0.00000000000E+00 0. -1.
        -14    1    6    6    0    0 -0.13790978122E+02  0.23211550776E+02  0.12994085776E+03  0.13271621484E+03  0.00000000000E+00 0.  1.
<mgrwt>
<rscale>  2 0.18490404E+03</rscale>
<asrwt>0</asrwt>
<pdfrwt beam="1">  1       21 0.54366939E-01 0.18497617E+03</pdfrwt>
<pdfrwt beam="2">  1       21 0.20349231E-01 0.18497617E+03</pdfrwt>
<totfact> 0.71666211E+04</totfact>
</mgrwt>
</event>
<event>
12    1  0.1019868E-001  0.2023774E+03  0.7546771E-02  0.1147889E+00
         21   -1    0    0  501  502  0.00000000000E+00  0.00000000000E+00  0.52157104222E+02  0.52157104222E+02  0.00000000000E+00 0. -1.
         21   -1    0    0  502  503 -0.00000000000E+00 -0.00000000000E+00 -0.18144057476E+04  0.18144057476E+04  0.00000000000E+00 0. -1.
         -6    2    1    2    0  503 -0.91530698103E+02  0.50096278184E+02 -0.17798009785E+03  0.26950606867E+03  0.17340444064E+03 0.  0.
        -24    2    3    3    0    0 -0.37532036364E+02  0.45608970594E+02 -0.17133865402E+02  0.99713277617E+02  0.78487810756E+02 0.  0.
          6    2    1    2  501    0  0.91530698103E+02 -0.50096278184E+02 -0.15842685455E+04  0.15970567831E+04  0.17261529045E+03 0.  0.
         24    2    5    5    0    0  0.11994567148E+03 -0.73294092209E+02 -0.11838685561E+04  0.11949525792E+04  0.81289116173E+02 0.  0.
          5    1    5    5  501    0 -0.28414973382E+02  0.23197814025E+02 -0.40039998941E+03  0.40210420392E+03  0.47000000000E+01 0. -1.
        -13    1    6    6    0    0  0.64492139436E+02 -0.27691656154E+02 -0.29690323697E+03  0.30508621076E+03  0.00000000000E+00 0.  1.
         14    1    6    6    0    0  0.55453532049E+02 -0.45602436055E+02 -0.88696531911E+03  0.88986636845E+03  0.00000000000E+00 0. -1.
         -5    1    3    3    0  503 -0.53998661739E+02  0.44873075902E+01 -0.16084623245E+03  0.16979279105E+03  0.47000000000E+01 0.  1.
         13    1    4    4    0    0 -0.28430022104E+02  0.64344648762E+02 -0.28598942511E+02  0.75936812508E+02  0.00000000000E+00 0. -1.
        -14    1    4    4    0    0 -0.91020142601E+01 -0.18735678168E+02  0.11465077108E+02  0.23776465109E+02  0.00000000000E+00 0.  1.
<mgrwt>
<rscale>  2 0.20220823E+03</rscale>
<asrwt>0</asrwt>
<pdfrwt beam="1">  1       21 0.80241711E-02 0.20237738E+03</pdfrwt>
<pdfrwt beam="2">  1       21 0.27913930E+00 0.20237738E+03</pdfrwt>
<totfact> 0.53171735E+03</totfact>
</mgrwt>
</event>
<event>
12    1  0.1019868E-001  0.3275499E+03  0.7546771E-02  0.1073062E+00
         21   -1    0    0  501  502  0.00000000000E+00  0.00000000000E+00  0.16862412960E+03  0.16862412960E+03  0.00000000000E+00 0. -1.
         21   -1    0    0  502  503 -0.00000000000E+00 -0.00000000000E+00 -0.15688860441E+04  0.15688860441E+04  0.00000000000E+00 0. -1.
         -6    2    1    2    0  503 -0.20103302965E+03 -0.19264799135E+03 -0.13782032329E+04  0.14165920702E+04  0.17251496909E+03 0.  0.
        -24    2    3    3    0    0 -0.38820914910E+02 -0.11420826413E+03 -0.61099252222E+03  0.62849313886E+03  0.84505457555E+02 0.  0.
          6    2    1    2  501    0  0.20103302965E+03  0.19264799135E+03 -0.22058681652E+02  0.32091810355E+03  0.15803264273E+03 0.  0.
         24    2    5    5    0    0  0.18272339992E+03  0.21134577911E+03 -0.79936718916E+01  0.29083880324E+03  0.80426559365E+02 0.  0.
          5    1    5    5  501    0  0.18309629731E+02 -0.18697787758E+02 -0.14065009760E+02  0.30079300316E+02  0.47000000000E+01 0. -1.
        -13    1    6    6    0    0  0.80938353308E+02  0.10961086664E+03 -0.42724497815E+02  0.14279685514E+03  0.00000000000E+00 0.  1.
         14    1    6    6    0    0  0.10178504661E+03  0.10173491247E+03  0.34730825924E+02  0.14804194810E+03  0.00000000000E+00 0. -1.
         -5    1    3    3    0  503 -0.16221211474E+03 -0.78439727226E+02 -0.76721071065E+03  0.78809893129E+03  0.47000000000E+01 0.  1.
         13    1    4    4    0    0 -0.29568588096E+02 -0.90274784679E+02 -0.58231243371E+03  0.59000983771E+03  0.00000000000E+00 0. -1.
        -14    1    4    4    0    0 -0.92523268132E+01 -0.23933479448E+02 -0.28680088515E+02  0.38483301147E+02  0.00000000000E+00 0.  1.
<mgrwt>
<rscale>  2 0.32568636E+03</rscale>
<asrwt>0</asrwt>
<pdfrwt beam="1">  1       21 0.25942175E-01 0.32754991E+03</pdfrwt>
<pdfrwt beam="2">  1       21 0.24136708E+00 0.32754991E+03</pdfrwt>
<totfact> 0.93166028E+02</totfact>
</mgrwt>
</event>
<event>
12    1  0.1019868E-001  0.2090851E+03  0.7546771E-02  0.1142722E+00
         21   -1    0    0  501  502  0.00000000000E+00  0.00000000000E+00  0.28856565492E+02  0.28856565492E+02  0.00000000000E+00 0.  1.
         21   -1    0    0  502  503 -0.00000000000E+00 -0.00000000000E+00 -0.15891035291E+04  0.15891035291E+04  0.00000000000E+00 0.  1.
         -6    2    1    2    0  503 -0.92831341961E+02 -0.66296916642E+02 -0.97607503296E+03  0.99821794318E+03  0.17522457853E+03 0.  0.
        -24    2    3    3    0    0 -0.62616018315E+02 -0.31878887921E+02 -0.26431129153E+03  0.28496673912E+03  0.80053446708E+02 0.  0.
          6    2    1    2  501    0  0.92831341961E+02  0.66296916642E+02 -0.58417193065E+03  0.61974215141E+03  0.17265732092E+03 0.  0.
         24    2    5    5    0    0  0.11073050102E+03  0.91057970806E+02 -0.37828295643E+03  0.41154549101E+03  0.75623396752E+02 0.  0.
          5    1    5    5  501    0 -0.17899159063E+02 -0.24761054164E+02 -0.20588897422E+03  0.20819666040E+03  0.47000000000E+01 0. -1.
        -11    1    6    6    0    0  0.22468057970E+02  0.62009549015E+02 -0.11810916936E+03  0.13527665609E+03  0.00000000000E+00 0.  1.
         12    1    6    6    0    0  0.88262443053E+02  0.29048421791E+02 -0.26017378708E+03  0.27626883491E+03  0.00000000000E+00 0. -1.
         -5    1    3    3    0  503 -0.30215323646E+02 -0.34418028721E+02 -0.71176374142E+03  0.71325120406E+03  0.47000000000E+01 0.  1.
         13    1    4    4    0    0 -0.81722283305E+02 -0.20503841552E+02 -0.20660596827E+03  0.22312544729E+03  0.00000000000E+00 0. -1.
        -14    1    4    4    0    0  0.19106264990E+02 -0.11375046369E+02 -0.57705323267E+02  0.61841291829E+02  0.00000000000E+00 0.  1.
<mgrwt>
<rscale>  2 0.20854636E+03</rscale>
<asrwt>0</asrwt>
<pdfrwt beam="1">  1       21 0.44394706E-02 0.20908513E+03</pdfrwt>
<pdfrwt beam="2">  1       21 0.24447752E+00 0.20908513E+03</pdfrwt>
<totfact> 0.23253334E+04</totfact>
</mgrwt>
</event>
<event>
12    1  0.1019868E-001  0.2535230E+03  0.7546771E-02  0.1111241E+00
         21   -1    0    0  501  502  0.00000000000E+00  0.00000000000E+00  0.16985790213E+03  0.16985790213E+03  0.00000000000E+00 0. -1.
         21   -1    0    0  502  503 -0.00000000000E+00 -0.00000000000E+00 -0.65184731191E+03  0.65184731191E+03  0.00000000000E+00 0.  1.
         -6    2    1    2    0  503 -0.11912644722E+03 -0.14111488664E+03 -0.50801889423E+03  0.56776500771E+03  0.17369336610E+03 0.  0.
        -24    2    3    3    0    0 -0.81032995983E+02 -0.23913921373E+02 -0.34326264427E+03  0.36196440229E+03  0.77786653786E+02 0.  0.
          6    2    1    2  501    0  0.11912644722E+03  0.14111488664E+03  0.26029484456E+02  0.25394020633E+03  0.17234724445E+03 0.  0.
         24    2    5    5    0    0  0.12561657385E+03  0.40951125447E+02  0.34237240626E+02  0.15312176525E+03  0.69408702947E+02 0.  0.
          5    1    5    5  501    0 -0.64901266320E+01  0.10016376120E+03 -0.82077561703E+01  0.10081844108E+03  0.47000000000E+01 0. -1.
        -11    1    6    6    0    0  0.56156403974E+02  0.49464656279E+02 -0.84630972037E+00  0.74839896901E+02  0.00000000000E+00 0.  1.
         12    1    6    6    0    0  0.69460169879E+02 -0.85135308313E+01  0.35083550347E+02  0.78281868346E+02  0.00000000000E+00 0. -1.
         -5    1    3    3    0  503 -0.38093451238E+02 -0.11720096527E+03 -0.16475624996E+03  0.20580060542E+03  0.47000000000E+01 0.  1.
         11    1    4    4    0    0 -0.51852151775E+02  0.63185590735E+01 -0.81172263101E+02  0.96527229989E+02  0.00000000000E+00 0. -1.
        -12    1    4    4    0    0 -0.29180844208E+02 -0.30232480447E+02 -0.26209038116E+03  0.26543717231E+03  0.00000000000E+00 0.  1.
<mgrwt>
<rscale>  2 0.25329259E+03</rscale>
<asrwt>0</asrwt>
<pdfrwt beam="1">  1       21 0.26131985E-01 0.25352299E+03</pdfrwt>
<pdfrwt beam="2">  1       21 0.10028420E+00 0.25352299E+03</pdfrwt>
<totfact> 0.10925130E+04</totfact>
</mgrwt>
</event>
<event>
12    1  0.1019868E-001  0.1853063E+03  0.7546771E-02  0.1162772E+00
         21   -1    0    0  503  502  0.00000000000E+00  0.00000000000E+00  0.15246192211E+03  0.15246192211E+03  0.00000000000E+00 0.  1.
         21   -1    0    0  501  503 -0.00000000000E+00 -0.00000000000E+00 -0.54226486876E+03  0.54226486876E+03  0.00000000000E+00 0.  1.
          6    2    1    2  501    0  0.18460386241E+02  0.64175825261E+02 -0.46051517465E+03  0.49638704320E+03  0.17281940911E+03 0.  0.
         24    2    3    3    0    0  0.37271261568E+02  0.59505640831E+02 -0.46389023307E+03  0.47615981717E+03  0.81264721271E+02 0.  0.
         -6    2    1    2    0  502 -0.18460386241E+02 -0.64175825261E+02  0.70712227999E+02  0.19833974767E+03  0.17285576041E+03 0.  0.
        -24    2    5    5    0    0 -0.18803458009E+02 -0.99799693670E+02  0.15780334803E+02  0.13269844521E+03  0.83942298659E+02 0.  0.
          5    1    3    3  501    0 -0.18810875328E+02  0.46701844300E+01  0.33750584238E+01  0.20227226023E+02  0.47000000000E+01 0.  1.
        -11    1    4    4    0    0  0.60789072162E+02  0.31431966908E+02 -0.34635674505E+03  0.35305279305E+03  0.00000000000E+00 0.  1.
         12    1    4    4    0    0 -0.23517810594E+02  0.28073673923E+02 -0.11753348802E+03  0.12310702412E+03  0.00000000000E+00 0. -1.
         -5    1    5    5    0  502  0.34307176857E+00  0.35623868409E+02  0.54931893195E+02  0.65641302460E+02  0.47000000000E+01 0.  1.
         11    1    6    6    0    0 -0.36078976710E+01  0.12591548869E+02 -0.98937398574E+01  0.16414935787E+02  0.00000000000E+00 0. -1.
        -12    1    6    6    0    0 -0.15195560338E+02 -0.11239124254E+03  0.25674074661E+02  0.11628350942E+03  0.00000000000E+00 0.  1.
<mgrwt>
<rscale>  2 0.18529785E+03</rscale>
<asrwt>0</asrwt>
<pdfrwt beam="1">  1       21 0.23455680E-01 0.18530633E+03</pdfrwt>
<pdfrwt beam="2">  1       21 0.83425366E-01 0.18530633E+03</pdfrwt>
<totfact> 0.21478308E+04</totfact>
</mgrwt>
</event>
<event>
12    1  0.1019868E-001  0.1843258E+03  0.7546771E-02  0.1163948E+00
         21   -1    0    0  503  502  0.00000000000E+00  0.00000000000E+00  0.25614351644E+03  0.25614351644E+03  0.00000000000E+00 0. -1.
         21   -1    0    0  501  503 -0.00000000000E+00 -0.00000000000E+00 -0.13186269983E+03  0.13186269983E+03  0.00000000000E+00 0. -1.
          6    2    1    2  501    0 -0.45679778935E+02 -0.44328878052E+02  0.65021882848E+02  0.19438904410E+03  0.17177765741E+03 0.  0.
         24    2    3    3    0    0  0.33613502985E+02  0.11130320310E+02  0.35308126401E+02  0.93057190461E+02  0.78480731989E+02 0.  0.
         -6    2    1    2    0  502  0.45679778935E+02  0.44328878052E+02  0.59258933764E+02  0.19361717216E+03  0.17298640551E+03 0.  0.
        -24    2    5    5    0    0  0.11623303186E+02 -0.29176179951E+02  0.81720835013E+02  0.10941821670E+03  0.65633075637E+02 0.  0.
          5    1    3    3  501    0 -0.79293281920E+02 -0.55459198361E+02  0.29713756447E+02  0.10133185364E+03  0.47000000000E+01 0. -1.
        -11    1    4    4    0    0  0.22799191332E+02 -0.28456287270E+01 -0.22771473532E+02  0.32348736220E+02  0.00000000000E+00 0.  1.
         12    1    4    4    0    0  0.10814311653E+02  0.13975949037E+02  0.58079599933E+02  0.60708454241E+02  0.00000000000E+00 0. -1.
         -5    1    5    5    0  502  0.34056475750E+02  0.73505058003E+02 -0.22461901248E+02  0.84198955458E+02  0.47000000000E+01 0.  1.
         13    1    6    6    0    0  0.13769505142E+02  0.12564569901E+02  0.58939439472E+02  0.61816868361E+02  0.00000000000E+00 0. -1.
        -14    1    6    6    0    0 -0.21462019567E+01 -0.41740749852E+02  0.22781395540E+02  0.47601348341E+02  0.00000000000E+00 0.  1.
<mgrwt>
<rscale>  2 0.18404163E+03</rscale>
<asrwt>0</asrwt>
<pdfrwt beam="1">  1       21 0.39406695E-01 0.18432577E+03</pdfrwt>
<pdfrwt beam="2">  1       21 0.20286569E-01 0.18432577E+03</pdfrwt>
<totfact> 0.13992307E+05</totfact>
</mgrwt>
</event>
<event>
12    1  0.1019868E-001  0.2309286E+03  0.7546771E-02  0.1126072E+00
         21   -1    0    0  503  502  0.00000000000E+00  0.00000000000E+00  0.93262264666E+03  0.93262264666E+03  0.00000000000E+00 0. -1.
         21   -1    0    0  501  503 -0.00000000000E+00 -0.00000000000E+00 -0.26272439418E+03  0.26272439418E+03  0.00000000000E+00 0. -1.
          6    2    1    2  501    0  0.30261209809E+02  0.14998724482E+03 -0.19392623685E+03  0.30118778615E+03  0.17232174198E+03 0.  0.
         24    2    3    3    0    0 -0.43478387758E+02  0.10968656356E+03 -0.14822380213E+03  0.20541474349E+03  0.79394010489E+02 0.  0.
         -6    2    1    2    0  502 -0.30261209809E+02 -0.14998724482E+03  0.86382448933E+03  0.89415925469E+03  0.17296274152E+03 0.  0.
        -24    2    5    5    0    0 -0.84616086655E+02 -0.10035144673E+03  0.50966461400E+03  0.53240039525E+03  0.80385739519E+02 0.  0.
          5    1    3    3  501    0  0.73739597568E+02  0.40300681263E+02 -0.45702434728E+02  0.95773042657E+02  0.47000000000E+01 0. -1.
        -11    1    4    4    0    0 -0.27517388326E+02  0.49212540245E+02 -0.12769164240E+03  0.13958594599E+03  0.00000000000E+00 0.  1.
         12    1    4    4    0    0 -0.15960999433E+02  0.60474023311E+02 -0.20532159722E+02  0.65828797506E+02  0.00000000000E+00 0. -1.
         -5    1    5    5    0  502  0.54354876846E+02 -0.49635798086E+02  0.35415987533E+03  0.36175885944E+03  0.47000000000E+01 0.  1.
         11    1    6    6    0    0 -0.24433736448E+02 -0.20428767299E+02  0.28109667182E+03  0.28289517655E+03  0.00000000000E+00 0. -1.
        -12    1    6    6    0    0 -0.60182350207E+02 -0.79922679433E+02  0.22856794218E+03  0.24950521870E+03  0.00000000000E+00 0.  1.
<mgrwt>
<rscale>  2 0.23080859E+03</rscale>
<asrwt>0</asrwt>
<pdfrwt beam="1">  1       21 0.14348041E+00 0.23092861E+03</pdfrwt>
<pdfrwt beam="2">  1       21 0.40419138E-01 0.23092861E+03</pdfrwt>
<totfact> 0.19135862E+03</totfact>
</mgrwt>
</event>
<event>
12    1  0.1019868E-001  0.2262331E+03  0.7546771E-02  0.1129844E+00
         21   -1    0    0  503  502  0.00000000000E+00  0.00000000000E+00  0.14703826236E+03  0.14703826236E+03  0.00000000000E+00 0.  1.
         21   -1    0    0  501  503 -0.00000000000E+00 -0.00000000000E+00 -0.52457175612E+03  0.52457175612E+03  0.00000000000E+00 0.  1.
          6    2    1    2  501    0 -0.14426894812E+03  0.25234796110E+02 -0.38677655419E+03  0.44808204090E+03  0.17242705178E+03 0.  0.
         24    2    3    3    0    0 -0.41718967281E+02  0.43930169620E+02 -0.28019939183E+03  0.29892843854E+03  0.84712337679E+02 0.  0.
         -6    2    1    2    0  502  0.14426894812E+03 -0.25234796110E+02  0.92430604242E+01  0.22352797758E+03  0.16860901004E+03 0.  0.
        -24    2    5    5    0    0  0.14280101650E+03 -0.85516557366E+01 -0.41597060939E+02  0.16979446907E+03  0.81452962624E+02 0.  0.
          5    1    3    3  501    0 -0.10254998084E+03 -0.18695373510E+02 -0.10657716236E+03  0.14915360236E+03  0.47000000000E+01 0. -1.
        -11    1    4    4    0    0 -0.65581090120E+02  0.45966895839E+02 -0.22135432734E+03  0.23539662939E+03  0.00000000000E+00 0.  1.
         12    1    4    4    0    0  0.23862122839E+02 -0.20367262197E+01 -0.58845064486E+02  0.63531809154E+02  0.00000000000E+00 0. -1.
         -5    1    5    5    0  502  0.14679316187E+01 -0.16683140373E+02  0.50840121363E+02  0.53733508504E+02  0.47000000000E+01 0.  1.
         13    1    6    6    0    0  0.10078399388E+03  0.31673739203E+02 -0.18721048273E+02  0.10728987290E+03  0.00000000000E+00 0. -1.
        -14    1    6    6    0    0  0.42017022616E+02 -0.40225394939E+02 -0.22876012666E+02  0.62504596175E+02  0.00000000000E+00 0.  1.
<mgrwt>
<rscale>  2 0.22550552E+03</rscale>
<asrwt>0</asrwt>
<pdfrwt beam="1">  1       21 0.22621272E-01 0.22623309E+03</pdfrwt>
<pdfrwt beam="2">  1       21 0.80703345E-01 0.22623309E+03</pdfrwt>
<totfact> 0.24234310E+04</totfact>
</mgrwt>
</event>
<event>
11    1  0.1019868E-001  0.2126553E+03  0.7546771E-02  0.1141280E+00
         21   -1    0    0  503  502  0.00000000000E+00  0.00000000000E+00  0.26957961069E+03  0.26957961069E+03  0.00000000000E+00 0.  1.
         21   -1    0    0  501  503 -0.00000000000E+00 -0.00000000000E+00 -0.18348951867E+03  0.18348951867E+03  0.00000000000E+00 0. -1.
          6    2    1    2  501    0  0.47725309055E+02 -0.95502605897E+02 -0.37580496959E+02  0.20706768678E+03  0.17339630993E+03 0.  0.
         24    2    3    3    0    0 -0.19310280151E+02 -0.77104977123E+02 -0.66824352377E+02  0.13150621482E+03  0.80686591504E+02 0.  0.
         -6    2    1    2    0  502 -0.47725309055E+02  0.95502605897E+02  0.12367058897E+03  0.24600144258E+03  0.18391259423E+03 0.  0.
          5    1    3    3  501    0  0.67035589206E+02 -0.18397628774E+02  0.29243855419E+02  0.75561471958E+02  0.47000000000E+01 0. -1.
        -11    1    4    4    0    0  0.64947221065E+01 -0.21983395301E+02  0.16555422852E+02  0.28276016516E+02  0.00000000000E+00 0.  1.
         12    1    4    4    0    0 -0.25805002258E+02 -0.55121581821E+02 -0.83379775230E+02  0.10323019830E+03  0.00000000000E+00 0. -1.
         -5    1    5    5    0  502 -0.25161247670E+02  0.47006401628E+02  0.15770658952E+03  0.16654173218E+03  0.47000000000E+01 0.  1.
         11    1    5    5    0    0  0.13855402559E+02  0.19165636155E+02 -0.42805386744E+01  0.24033659743E+02  0.00000000000E+00 0. -1.
        -12    1    5    5    0    0 -0.36419463944E+02  0.29330568113E+02 -0.29755461877E+02  0.55426050656E+02  0.00000000000E+00 0.  1.
<mgrwt>
<rscale>  2 0.21036190E+03</rscale>
<asrwt>0</asrwt>
<pdfrwt beam="1">  1       21 0.41473787E-01 0.21265534E+03</pdfrwt>
<pdfrwt beam="2">  1       21 0.28229156E-01 0.21265534E+03</pdfrwt>
<totfact> 0.66537841E+04</totfact>
</mgrwt>
</event>
<event>
12    1  0.1019868E-001  0.2560001E+03  0.7546771E-02  0.1109571E+00
         21   -1    0    0  501  502  0.00000000000E+00  0.00000000000E+00  0.35329428016E+03  0.35329428016E+03  0.00000000000E+00 0. -1.
         21   -1    0    0  502  503 -0.00000000000E+00 -0.00000000000E+00 -0.30313966527E+03  0.30313966527E+03  0.00000000000E+00 0.  1.
         -6    2    1    2    0  503 -0.13068200205E+01 -0.18963888603E+03 -0.17938855058E+03  0.31259369129E+03  0.17195914887E+03 0.  0.
        -24    2    3    3    0    0  0.33428086475E+02 -0.17046500754E+03 -0.84656548720E+02  0.20978127218E+03  0.81643708611E+02 0.  0.
          6    2    1    2  501    0  0.13068200205E+01  0.18963888603E+03  0.22954316546E+03  0.34384025414E+03  0.17196348650E+03 0.  0.
         24    2    5    5    0    0 -0.30250798704E+02  0.11928549113E+03  0.61003967676E+02  0.15844059216E+03  0.78979731296E+02 0.  0.
          5    1    5    5  501    0  0.31557618724E+02  0.70353394894E+02  0.16853919779E+03  0.18539966198E+03  0.47000000000E+01 0. -1.
        -11    1    6    6    0    0  0.23812800859E+01  0.80108069644E+02  0.16053000259E+01  0.80159530345E+02  0.00000000000E+00 0.  1.
         12    1    6    6    0    0 -0.32632078790E+02  0.39177421488E+02  0.59398667650E+02  0.78281061817E+02  0.00000000000E+00 0. -1.
         -5    1    3    3    0  503 -0.34734906495E+02 -0.19173878485E+02 -0.94732001861E+02  0.10281241910E+03  0.47000000000E+01 0.  1.
         13    1    4    4    0    0  0.28929719807E+02 -0.23838194690E+02 -0.43496129112E+02  0.57420392387E+02  0.00000000000E+00 0. -1.
        -14    1    4    4    0    0  0.44983666682E+01 -0.14662681285E+03 -0.41160419608E+02  0.15236087979E+03  0.00000000000E+00 0.  1.
<mgrwt>
<rscale>  2 0.25599938E+03</rscale>
<asrwt>0</asrwt>
<pdfrwt beam="1">  1       21 0.54352966E-01 0.25600011E+03</pdfrwt>
<pdfrwt beam="2">  1       21 0.46636872E-01 0.25600011E+03</pdfrwt>
<totfact> 0.13571842E+04</totfact>
</mgrwt>
</event>
<event>
12    1  0.1019868E-001  0.2026418E+03  0.7546771E-02  0.1148519E+00
         21   -1    0    0  503  502  0.00000000000E+00  0.00000000000E+00  0.27515392834E+02  0.27515392834E+02  0.00000000000E+00 0. -1.
         21   -1    0    0  501  503 -0.00000000000E+00 -0.00000000000E+00 -0.17020362687E+04  0.17020362687E+04  0.00000000000E+00 0.  1.
          6    2    1    2  501    0  0.81525226401E+02  0.53587168794E+02 -0.11563357801E+04  0.11731529946E+04  0.17221371953E+03 0.  0.
         24    2    3    3    0    0  0.68011138480E+02  0.97793132524E+02 -0.71004050161E+03  0.72444555829E+03  0.80466398347E+02 0.  0.
         -6    2    1    2    0  502 -0.81525226401E+02 -0.53587168794E+02 -0.51818509577E+03  0.55639866694E+03  0.17761119305E+03 0.  0.
        -24    2    5    5    0    0 -0.54950975219E+02 -0.16754525202E+02 -0.12328893325E+03  0.15887143060E+03  0.82095350701E+02 0.  0.
          5    1    3    3  501    0  0.13514087922E+02 -0.44205963730E+02 -0.44629527845E+03  0.44870743628E+03  0.47000000000E+01 0. -1.
        -13    1    4    4    0    0  0.43539936505E+02  0.53276696992E+01 -0.31231927866E+03  0.31538459372E+03  0.00000000000E+00 0.  1.
         14    1    4    4    0    0  0.24471201974E+02  0.92465462825E+02 -0.39772122295E+03  0.40906096456E+03  0.00000000000E+00 0. -1.
         -5    1    5    5    0  502 -0.26574251182E+02 -0.36832643592E+02 -0.39489616252E+03  0.39752723634E+03  0.47000000000E+01 0.  1.
         13    1    6    6    0    0 -0.42741992609E+02 -0.45942984253E+02 -0.10501379744E+03  0.12233369686E+03  0.00000000000E+00 0. -1.
        -14    1    6    6    0    0 -0.12208982611E+02  0.29188459051E+02 -0.18275135812E+02  0.36537733743E+02  0.00000000000E+00 0.  1.
<mgrwt>
<rscale>  2 0.20145291E+03</rscale>
<asrwt>0</asrwt>
<pdfrwt beam="1">  1       21 0.42331366E-02 0.20264176E+03</pdfrwt>
<pdfrwt beam="2">  1       21 0.26185178E+00 0.20264176E+03</pdfrwt>
<totfact> 0.20017833E+04</totfact>
</mgrwt>
</event>
<event>
12    1  0.1019868E-001  0.1779940E+03  0.7546771E-02  0.1169926E+00
         21   -1    0    0  501  502  0.00000000000E+00  0.00000000000E+00  0.81381769134E+02  0.81381769134E+02  0.00000000000E+00 0. -1.
         21   -1    0    0  502  503 -0.00000000000E+00 -0.00000000000E+00 -0.60105083847E+03  0.60105083847E+03  0.00000000000E+00 0. -1.
         -6    2    1    2    0  503  0.34085044497E+02  0.17862863093E+02 -0.46339358896E+03  0.49640253538E+03  0.17378431087E+03 0.  0.
        -24    2    3    3    0    0 -0.22396557197E+02  0.55770505374E+02 -0.18376914237E+03  0.20858474266E+03  0.78259454000E+02 0.  0.
          6    2    1    2  501    0 -0.34085044497E+02 -0.17862863093E+02 -0.56275480379E+02  0.18603007223E+03  0.17308779837E+03 0.  0.
         24    2    5    5    0    0  0.30332345557E+02 -0.54893831912E+02 -0.22431315280E+02  0.10424737049E+03  0.80193306323E+02 0.  0.
          5    1    5    5  501    0 -0.64417390054E+02  0.37030968820E+02 -0.33844165100E+02  0.81782701743E+02  0.47000000000E+01 0. -1.
        -13    1    6    6    0    0  0.16360076709E+02 -0.40494331338E+02 -0.52379907929E+02  0.68198956994E+02  0.00000000000E+00 0.  1.
         14    1    6    6    0    0  0.13972268848E+02 -0.14399500575E+02  0.29948592650E+02  0.36048413491E+02  0.00000000000E+00 0. -1.
         -5    1    3    3    0  503  0.56481601694E+02 -0.37907642281E+02 -0.27962444659E+03  0.28781779272E+03  0.47000000000E+01 0.  1.
         11    1    4    4    0    0 -0.32511195462E+02  0.26870892379E+02 -0.16974590841E+03  0.17490767881E+03  0.00000000000E+00 0. -1.
        -12    1    4    4    0    0  0.10114638265E+02  0.28899612995E+02 -0.14023233959E+02  0.33677063844E+02  0.00000000000E+00 0.  1.
<mgrwt>
<rscale>  2 0.17782375E+03</rscale>
<asrwt>0</asrwt>
<pdfrwt beam="1">  1       21 0.12520272E-01 0.17799399E+03</pdfrwt>
<pdfrwt beam="2">  1       21 0.92469359E-01 0.17799399E+03</pdfrwt>
<totfact> 0.54039338E+04</totfact>
</mgrwt>
</event>
<event>
12    1  0.1019868E-001  0.3910256E+03  0.7546771E-02  0.1047006E+00
         21   -1    0    0  503  502  0.00000000000E+00  0.00000000000E+00  0.54652757861E+03  0.54652757861E+03  0.00000000000E+00 0. -1.
         21   -1    0    0  501  503 -0.00000000000E+00 -0.00000000000E+00 -0.28803945508E+03  0.28803945508E+03  0.00000000000E+00 0. -1.
          6    2    1    2  501    0  0.24818891984E+03 -0.24762150369E+03  0.55903187507E+02  0.39417892225E+03  0.17128253663E+03 0.  0.
         24    2    3    3    0    0  0.59507417046E+02 -0.94787413155E+02  0.66927888096E+02  0.15106865355E+03  0.76266699835E+02 0.  0.
         -6    2    1    2    0  502 -0.24818891984E+03  0.24762150369E+03  0.20258493603E+03  0.44038811143E+03  0.17316721215E+03 0.  0.
        -24    2    5    5    0    0 -0.15656100416E+03  0.11502466742E+03  0.18253730959E+03  0.27790244054E+03  0.78535819369E+02 0.  0.
          5    1    3    3  501    0  0.18868150279E+03 -0.15283409054E+03 -0.11024700589E+02  0.24311026870E+03  0.47000000000E+01 0. -1.
        -13    1    4    4    0    0  0.37378719393E+02 -0.79067138575E+02  0.82114572949E+02  0.11996492886E+03  0.00000000000E+00 0.  1.
         14    1    4    4    0    0  0.22128697653E+02 -0.15720274580E+02 -0.15186684852E+02  0.31103724688E+02  0.00000000000E+00 0. -1.
         -5    1    5    5    0  502 -0.91627915678E+02  0.13259683627E+03  0.20047626436E+02  0.16248567090E+03  0.47000000000E+01 0.  1.
         11    1    6    6    0    0 -0.11372747331E+03  0.10084481289E+03  0.94509937882E+02  0.17898531457E+03  0.00000000000E+00 0. -1.
        -12    1    6    6    0    0 -0.42833530856E+02  0.14179854525E+02  0.88027371710E+02  0.98917125970E+02  0.00000000000E+00 0.  1.
<mgrwt>
<rscale>  2 0.39081771E+03</rscale>
<asrwt>0</asrwt>
<pdfrwt beam="1">  1       21 0.84081166E-01 0.39102562E+03</pdfrwt>
<pdfrwt beam="2">  1       21 0.44313762E-01 0.39102562E+03</pdfrwt>
<totfact> 0.53997994E+03</totfact>
</mgrwt>
</event>
<event>
12    1  0.1019868E-001  0.1919748E+03  0.7546771E-02  0.1160214E+00
         21   -1    0    0  501  502  0.00000000000E+00  0.00000000000E+00  0.53816779340E+02  0.53816779340E+02  0.00000000000E+00 0.  1.
         21   -1    0    0  502  503 -0.00000000000E+00 -0.00000000000E+00 -0.66610738125E+03  0.66610738125E+03  0.00000000000E+00 0.  1.
         -6    2    1    2    0  503  0.18565339718E+01  0.33389649074E+02 -0.23648972889E+03  0.30460094357E+03  0.18903975130E+03 0.  0.
        -24    2    3    3    0    0 -0.28062202038E+02  0.81826625710E+02 -0.20932654525E+03  0.24134590413E+03  0.83349619284E+02 0.  0.
          6    2    1    2  501    0 -0.18565339718E+01 -0.33389649074E+02 -0.37580087303E+03  0.41532321702E+03  0.17363399161E+03 0.  0.
         24    2    5    5    0    0 -0.21330375228E+02  0.91604872783E+01 -0.16261696377E+03  0.19701331398E+03  0.10877072008E+03 0.  0.
          5    1    5    5  501    0  0.19473841256E+02 -0.42550136353E+02 -0.21318390926E+03  0.21830990304E+03  0.47000000000E+01 0. -1.
        -13    1    6    6    0    0  0.42482443571E+02  0.18892916329E+02 -0.62669842471E+02  0.78033386794E+02  0.00000000000E+00 0.  1.
         14    1    6    6    0    0 -0.63812818799E+02 -0.97324290511E+01 -0.99947121297E+02  0.11897992719E+03  0.00000000000E+00 0. -1.
         -5    1    3    3    0  503  0.29918736010E+02 -0.48436976636E+02 -0.27163183638E+02  0.63255039447E+02  0.47000000000E+01 0.  1.
         13    1    4    4    0    0  0.18705999838E+02  0.65851282414E+02 -0.97995698101E+02  0.11953854053E+03  0.00000000000E+00 0. -1.
        -14    1    4    4    0    0 -0.46768201876E+02  0.15975343296E+02 -0.11133084715E+03  0.12180736360E+03  0.00000000000E+00 0.  1.
<mgrwt>
<rscale>  2 0.18806984E+03</rscale>
<asrwt>0</asrwt>
<pdfrwt beam="1">  1       21 0.82795047E-02 0.19197485E+03</pdfrwt>
<pdfrwt beam="2">  1       21 0.10247806E+00 0.19197485E+03</pdfrwt>
<totfact> 0.87564159E+04</totfact>
</mgrwt>
</event>
<event>
12    1  0.1019868E-001  0.2199581E+03  0.7546771E-02  0.1135859E+00
         21   -1    0    0  503  502  0.00000000000E+00  0.00000000000E+00  0.21135132564E+04  0.21135132564E+04  0.00000000000E+00 0. -1.
         21   -1    0    0  501  503 -0.00000000000E+00 -0.00000000000E+00 -0.23261579544E+02  0.23261579544E+02  0.00000000000E+00 0.  1.
          6    2    1    2  501    0  0.12703424050E+03  0.48548665995E+02  0.80478843050E+03  0.83430569397E+03  0.17287828636E+03 0.  0.
         24    2    3    3    0    0  0.19517040624E+02 -0.16859186289E+02  0.21025515192E+03  0.22658039027E+03  0.80413290641E+02 0.  0.
         -6    2    1    2    0  502 -0.12703424050E+03 -0.48548665995E+02  0.12854632463E+04  0.13024691419E+04  0.15973552151E+03 0.  0.
        -24    2    5    5    0    0 -0.51242682702E+02 -0.59811165355E+02  0.52745272718E+03  0.54058119660E+03  0.88422071203E+02 0.  0.
          5    1    3    3  501    0  0.10751719988E+03  0.65407852284E+02  0.59453327858E+03  0.60772530370E+03  0.47000000000E+01 0. -1.
        -11    1    4    4    0    0 -0.10819900364E+02 -0.35248241074E+02  0.16504515877E+03  0.16911361027E+03  0.00000000000E+00 0.  1.
         12    1    4    4    0    0  0.30336940988E+02  0.18389054785E+02  0.45209993145E+02  0.57466780009E+02  0.00000000000E+00 0. -1.
         -5    1    5    5    0  502 -0.75791557801E+02  0.11262499360E+02  0.75801051915E+03  0.76188794535E+03  0.47000000000E+01 0.  1.
         13    1    6    6    0    0 -0.19979146410E+02  0.22306020832E+02  0.15909077964E+03  0.16188452991E+03  0.00000000000E+00 0. -1.
        -14    1    6    6    0    0 -0.31263536292E+02 -0.82117186188E+02  0.36836194753E+03  0.37869666669E+03  0.00000000000E+00 0.  1.
<mgrwt>
<rscale>  2 0.21736972E+03</rscale>
<asrwt>0</asrwt>
<pdfrwt beam="1">  1       21 0.32515573E+00 0.21995812E+03</pdfrwt>
<pdfrwt beam="2">  1       21 0.35787062E-02 0.21995812E+03</pdfrwt>
<totfact> 0.11202443E+04</totfact>
</mgrwt>
</event>
<event>
12    1  0.1019868E-001  0.2565678E+03  0.7546771E-02  0.1109259E+00
         21   -1    0    0  501  502  0.00000000000E+00  0.00000000000E+00  0.50637293285E+03  0.50637293285E+03  0.00000000000E+00 0. -1.
         21   -1    0    0  502  503 -0.00000000000E+00 -0.00000000000E+00 -0.13278010635E+03  0.13278010635E+03  0.00000000000E+00 0.  1.
         -6    2    1    2    0  503  0.61385720049E+02 -0.17969620379E+03  0.23395773777E+03  0.34704860421E+03  0.17218472157E+03 0.  0.
        -24    2    3    3    0    0 -0.30614805262E+02 -0.74692693301E+02  0.84169426510E+02  0.14223536718E+03  0.81425687499E+02 0.  0.
          6    2    1    2  501    0 -0.61385720049E+02  0.17969620379E+03  0.13963508873E+03  0.29210443499E+03  0.17253437527E+03 0.  0.
         24    2    5    5    0    0 -0.48903536941E+02  0.15421635329E+03  0.17155083542E+03  0.24914244524E+03  0.80424059465E+02 0.  0.
          5    1    5    5  501    0 -0.12482183108E+02  0.25479850499E+02 -0.31915746683E+02  0.42961989746E+02  0.47000000000E+01 0. -1.
        -13    1    6    6    0    0 -0.34540950692E+02  0.13425332532E+03  0.93250680240E+02  0.16707100886E+03  0.00000000000E+00 0.  1.
         14    1    6    6    0    0 -0.14362586249E+02  0.19963027965E+02  0.78300155176E+02  0.82071436382E+02  0.00000000000E+00 0. -1.
         -5    1    3    3    0  503  0.92000525311E+02 -0.10500351049E+03  0.14978831126E+03  0.20481323703E+03  0.47000000000E+01 0.  1.
         13    1    4    4    0    0 -0.47072215845E+02 -0.65991345748E+02  0.91488140045E+02  0.12223228292E+03  0.00000000000E+00 0. -1.
        -14    1    4    4    0    0  0.16457410583E+02 -0.87013475535E+01 -0.73187135347E+01  0.20003084266E+02  0.00000000000E+00 0.  1.
<mgrwt>
<rscale>  2 0.25650904E+03</rscale>
<asrwt>0</asrwt>
<pdfrwt beam="1">  1       21 0.77903527E-01 0.25656781E+03</pdfrwt>
<pdfrwt beam="2">  1       21 0.20427709E-01 0.25656781E+03</pdfrwt>
<totfact> 0.31386455E+04</totfact>
</mgrwt>
</event>
<event>
12    1  0.1019868E-001  0.2403862E+03  0.7546771E-02  0.1119599E+00
         21   -1    0    0  503  502  0.00000000000E+00  0.00000000000E+00  0.73483800636E+02  0.73483800636E+02  0.00000000000E+00 0.  1.
         21   -1    0    0  501  503 -0.00000000000E+00 -0.00000000000E+00 -0.10472568891E+04  0.10472568891E+04  0.00000000000E+00 0.  1.
          6    2    1    2  501    0  0.11699499120E+03  0.11833940741E+03 -0.76752606440E+03  0.80428961879E+03  0.17347474757E+03 0.  0.
         24    2    3    3    0    0  0.11620993821E+03  0.59169443896E+02 -0.34483273115E+03  0.37744837797E+03  0.80943762752E+02 0.  0.
         -6    2    1    2    0  502 -0.11699499120E+03 -0.11833940741E+03 -0.20624702402E+03  0.31645107091E+03  0.17294913139E+03 0.  0.
        -24    2    5    5    0    0 -0.56677613474E+02 -0.12042494864E+02 -0.35135408154E+02  0.10612157997E+03  0.81669573757E+02 0.  0.
          5    1    3    3  501    0  0.78505298710E+00  0.59169963514E+02 -0.42269333325E+03  0.42684124082E+03  0.47000000000E+01 0. -1.
        -13    1    4    4    0    0  0.88752963286E+02  0.55516580045E+02 -0.32962467510E+03  0.34584910812E+03  0.00000000000E+00 0.  1.
         14    1    4    4    0    0  0.27456974924E+02  0.36528638511E+01 -0.15208056055E+02  0.31599269854E+02  0.00000000000E+00 0. -1.
         -5    1    5    5    0  502 -0.60317377724E+02 -0.10629691255E+03 -0.17111161587E+03  0.21032949094E+03  0.47000000000E+01 0.  1.
         13    1    6    6    0    0 -0.46445357075E+01 -0.40087015047E+02 -0.82727663872E+01  0.41194406793E+02  0.00000000000E+00 0. -1.
        -14    1    6    6    0    0 -0.52033077766E+02  0.28044520183E+02 -0.26862641767E+02  0.64927173178E+02  0.00000000000E+00 0.  1.
<mgrwt>
<rscale>  2 0.24029140E+03</rscale>
<asrwt>0</asrwt>
<pdfrwt beam="1">  1       21 0.11305201E-01 0.24038621E+03</pdfrwt>
<pdfrwt beam="2">  1       21 0.16111644E+00 0.24038621E+03</pdfrwt>
<totfact> 0.15619353E+04</totfact>
</mgrwt>
</event>
<event>
12    1  0.1019868E-001  0.2350018E+03  0.7546771E-02  0.1123233E+00
         21   -1    0    0  503  502  0.00000000000E+00  0.00000000000E+00  0.26658333708E+03  0.26658333708E+03  0.00000000000E+00 0.  1.
         21   -1    0    0  501  503 -0.00000000000E+00 -0.00000000000E+00 -0.21782013231E+03  0.21782013231E+03  0.00000000000E+00 0.  1.
          6    2    1    2  501    0  0.65437480784E+02  0.14354197797E+03 -0.30044678073E+02  0.23653951911E+03  0.17367181144E+03 0.  0.
         24    2    3    3    0    0  0.17235787236E+02  0.11631730882E+03 -0.78797810596E+02  0.16262373052E+03  0.80066185634E+02 0.  0.
         -6    2    1    2    0  502 -0.65437480784E+02 -0.14354197797E+03  0.78807882845E+02  0.24786395029E+03  0.17418235308E+03 0.  0.
        -24    2    5    5    0    0 -0.94536316479E+02 -0.65864241579E+02  0.85391308143E+02  0.16452125740E+03  0.80624780178E+02 0.  0.
          5    1    3    3  501    0  0.48201693548E+02  0.27224669151E+02  0.48753132524E+02  0.73915788585E+02  0.47000000000E+01 0. -1.
        -11    1    4    4    0    0  0.24517355325E+02  0.11666160679E+03 -0.44000635011E+02  0.12707118907E+03  0.00000000000E+00 0.  1.
         12    1    4    4    0    0 -0.72815680888E+01 -0.34429797072E+00 -0.34797175586E+02  0.35552541452E+02  0.00000000000E+00 0. -1.
         -5    1    5    5    0  502  0.29098835695E+02 -0.77677736387E+02 -0.65834252984E+01  0.83342692887E+02  0.47000000000E+01 0.  1.
         13    1    6    6    0    0 -0.34804587837E+02 -0.11984028568E+02 -0.11523063944E+02  0.38571456777E+02  0.00000000000E+00 0. -1.
        -14    1    6    6    0    0 -0.59731728642E+02 -0.53880213011E+02  0.96914372087E+02  0.12594980063E+03  0.00000000000E+00 0.  1.
<mgrwt>
<rscale>  2 0.23490722E+03</rscale>
<asrwt>0</asrwt>
<pdfrwt beam="1">  1       21 0.41012821E-01 0.23500182E+03</pdfrwt>
<pdfrwt beam="2">  1       21 0.33510790E-01 0.23500182E+03</pdfrwt>
<totfact> 0.48159848E+04</totfact>
</mgrwt>
</event>
<event>
12    1  0.1019868E-001  0.2062016E+03  0.7546771E-02  0.1144681E+00
         21   -1    0    0  503  502  0.00000000000E+00  0.00000000000E+00  0.60182524695E+03  0.60182524695E+03  0.00000000000E+00 0.  1.
         21   -1    0    0  501  503 -0.00000000000E+00 -0.00000000000E+00 -0.94612474053E+02  0.94612474053E+02  0.00000000000E+00 0.  1.
          6    2    1    2  501    0 -0.10023640178E+03  0.49236924751E+02  0.42912849839E+03  0.47594676542E+03  0.17292323264E+03 0.  0.
         24    2    3    3    0    0 -0.31423314617E+02  0.58720387808E+02  0.12568631528E+03  0.16461988652E+03  0.82868260169E+02 0.  0.
         -6    2    1    2    0  502  0.10023640178E+03 -0.49236924751E+02  0.78084274512E+02  0.22049095558E+03  0.17334213731E+03 0.  0.
        -24    2    5    5    0    0  0.75824478140E+02 -0.74125647701E+02 -0.14853402306E+01  0.13349208124E+03  0.81079999920E+02 0.  0.
          5    1    3    3  501    0 -0.68813087167E+02 -0.94834630573E+01  0.30344218311E+03  0.31132687890E+03  0.47000000000E+01 0. -1.
        -11    1    4    4    0    0  0.22371977157E+02  0.43958098437E+02  0.71408969395E+02  0.86787445464E+02  0.00000000000E+00 0.  1.
         12    1    4    4    0    0 -0.53795291773E+02  0.14762289372E+02  0.54277345882E+02  0.77832441054E+02  0.00000000000E+00 0. -1.
         -5    1    5    5    0  502  0.24411923644E+02  0.24888722950E+02  0.79569614743E+02  0.86998874340E+02  0.47000000000E+01 0.  1.
         13    1    6    6    0    0  0.16821280971E+02 -0.43685157351E+02  0.34334009631E+02  0.58053188401E+02  0.00000000000E+00 0. -1.
        -14    1    6    6    0    0  0.59003197168E+02 -0.30440490351E+02 -0.35819349861E+02  0.75438892843E+02  0.00000000000E+00 0.  1.
<mgrwt>
<rscale>  2 0.20611356E+03</rscale>
<asrwt>0</asrwt>
<pdfrwt beam="1">  1       21 0.92588497E-01 0.20620162E+03</pdfrwt>
<pdfrwt beam="2">  1       21 0.14555766E-01 0.20620162E+03</pdfrwt>
<totfact> 0.40463870E+04</totfact>
</mgrwt>
</event>
<event>
12    1  0.1019868E-001  0.1863839E+03  0.7546771E-02  0.1163828E+00
         21   -1    0    0  503  502  0.00000000000E+00  0.00000000000E+00  0.57563331038E+02  0.57563331038E+02  0.00000000000E+00 0.  1.
         21   -1    0    0  501  503 -0.00000000000E+00 -0.00000000000E+00 -0.17048661514E+04  0.17048661514E+04  0.00000000000E+00 0.  1.
          6    2    1    2  501    0  0.35028712279E+02  0.74841302391E+00 -0.15341119575E+04  0.15443672309E+04  0.17419263732E+03 0.  0.
         24    2    3    3    0    0 -0.73721511824E+00  0.63769700239E+02 -0.10427177683E+04  0.10476366969E+04  0.78836452469E+02 0.  0.
         -6    2    1    2    0  502 -0.35028712279E+02 -0.74841302391E+00 -0.11319086285E+03  0.21806225153E+03  0.18306120098E+03 0.  0.
        -24    2    5    5    0    0 -0.36885307709E+02  0.69144017414E+02 -0.50400840547E+02  0.12397146729E+03  0.81775662058E+02 0.  0.
          5    1    3    3  501    0  0.35765927397E+02 -0.63021287215E+02 -0.49139418921E+03  0.49673053399E+03  0.47000000000E+01 0. -1.
        -13    1    4    4    0    0 -0.35019145368E+02  0.17698221169E+02 -0.27653220474E+03  0.27930203693E+03  0.00000000000E+00 0.  1.
         14    1    4    4    0    0  0.34281930249E+02  0.46071479070E+02 -0.76618556356E+03  0.76833465998E+03  0.00000000000E+00 0. -1.
         -5    1    5    5    0  502  0.18565954301E+01 -0.69892430438E+02 -0.62790022299E+02  0.94090784243E+02  0.47000000000E+01 0.  1.
         13    1    6    6    0    0 -0.38173654838E+02  0.38791419892E+02  0.10946227530E+02  0.55514161059E+02  0.00000000000E+00 0. -1.
        -14    1    6    6    0    0  0.12883471289E+01  0.30352597522E+02 -0.61347068077E+02  0.68457306230E+02  0.00000000000E+00 0.  1.
<mgrwt>
<rscale>  2 0.18416912E+03</rscale>
<asrwt>0</asrwt>
<pdfrwt beam="1">  1       21 0.88558966E-02 0.18638394E+03</pdfrwt>
<pdfrwt beam="2">  1       21 0.26228711E+00 0.18638394E+03</pdfrwt>
<totfact> 0.57008842E+03</totfact>
</mgrwt>
</event>
<event>
12    1  0.1019868E-001  0.1803900E+03  0.7546771E-02  0.1167491E+00
         21   -1    0    0  503  502  0.00000000000E+00  0.00000000000E+00  0.31848587769E+03  0.31848587769E+03  0.00000000000E+00 0. -1.
         21   -1    0    0  501  503 -0.00000000000E+00 -0.00000000000E+00 -0.25467528964E+03  0.25467528964E+03  0.00000000000E+00 0. -1.
          6    2    1    2  501    0 -0.13384361228E+02 -0.44828891500E+02 -0.18997972515E+03  0.26179308015E+03  0.17393835175E+03 0.  0.
         24    2    3    3    0    0  0.10877692796E+02  0.38937435699E+02 -0.83565832659E+02  0.12412880972E+03  0.82403063751E+02 0.  0.
         -6    2    1    2    0  502  0.13384361228E+02  0.44828891500E+02  0.25379031320E+03  0.31136808719E+03  0.17421765698E+03 0.  0.
        -24    2    5    5    0    0  0.22549695095E+02  0.17745218689E+02  0.26621269052E+03  0.27984136620E+03  0.81354853009E+02 0.  0.
          5    1    3    3  501    0 -0.24262054024E+02 -0.83766327199E+02 -0.10641389249E+03  0.13766427043E+03  0.47000000000E+01 0. -1.
        -11    1    4    4    0    0 -0.16071821467E+01  0.39006379928E+02  0.59792817271E+00  0.39044054959E+02  0.00000000000E+00 0.  1.
         12    1    4    4    0    0  0.12484874942E+02 -0.68944228898E-01 -0.84163760832E+02  0.85084754763E+02  0.00000000000E+00 0. -1.
         -5    1    5    5    0  502 -0.91653338666E+01  0.27083672811E+02 -0.12422377318E+02  0.31526720985E+02  0.47000000000E+01 0.  1.
         11    1    6    6    0    0  0.10041447643E+02 -0.25566397553E+02  0.18436073818E+03  0.18639568969E+03  0.00000000000E+00 0. -1.
        -12    1    6    6    0    0  0.12508247452E+02  0.43311616242E+02  0.81851952342E+02  0.93445676507E+02  0.00000000000E+00 0.  1.
<mgrwt>
<rscale>  2 0.18032256E+03</rscale>
<asrwt>0</asrwt>
<pdfrwt beam="1">  1       21 0.48997827E-01 0.18039003E+03</pdfrwt>
<pdfrwt beam="2">  1       21 0.39180814E-01 0.18039003E+03</pdfrwt>
<totfact> 0.25134180E+04</totfact>
</mgrwt>
</event>
<event>
12    1  0.1019868E-001  0.2240210E+03  0.7546771E-02  0.1132204E+00
         21   -1    0    0  501  502  0.00000000000E+00  0.00000000000E+00  0.18682436223E+03  0.18682436223E+03  0.00000000000E+00 0. -1.
         21   -1    0    0  502  503 -0.00000000000E+00 -0.00000000000E+00 -0.26112723731E+03  0.26112723731E+03  0.00000000000E+00 0.  1.
         -6    2    1    2    0  503 -0.13752411028E+03 -0.10370780059E+02 -0.24526538879E+02  0.21846715963E+03  0.16764818741E+03 0.  0.
        -24    2    3    3    0    0 -0.11556700636E+03 -0.57827553759E+02  0.14838317852E+02  0.15284748478E+03  0.80264680857E+02 0.  0.
          6    2    1    2  501    0  0.13752411028E+03  0.10370780059E+02 -0.49776336199E+02  0.22948443991E+03  0.17653608847E+03 0.  0.
         24    2    5    5    0    0  0.37362206418E+02  0.40401017206E+02  0.33354645900E+02  0.95816671501E+02  0.70993841104E+02 0.  0.
          5    1    5    5  501    0  0.10016190386E+03 -0.30030237147E+02 -0.83130982100E+02  0.13366776841E+03  0.47000000000E+01 0. -1.
        -11    1    6    6    0    0 -0.91566884782E+01 -0.11263850693E+02  0.20495966540E+02  0.25115810175E+02  0.00000000000E+00 0.  1.
         12    1    6    6    0    0  0.46518894896E+02  0.51664867899E+02  0.12858679360E+02  0.70700861326E+02  0.00000000000E+00 0. -1.
         -5    1    3    3    0  503 -0.21957103917E+02  0.47456773701E+02 -0.39364856731E+02  0.65619674854E+02  0.47000000000E+01 0.  1.
         11    1    4    4    0    0  0.86849826335E+01  0.77397027583E+01  0.13247043886E+01  0.11708405692E+02  0.00000000000E+00 0. -1.
        -12    1    4    4    0    0 -0.12425198899E+03 -0.65567256518E+02  0.13513613463E+02  0.14113907908E+03  0.00000000000E+00 0.  1.
<mgrwt>
<rscale>  2 0.22226679E+03</rscale>
<asrwt>0</asrwt>
<pdfrwt beam="1">  1       21 0.28742210E-01 0.22402104E+03</pdfrwt>
<pdfrwt beam="2">  1       21 0.40173421E-01 0.22402104E+03</pdfrwt>
<totfact> 0.68221662E+04</totfact>
</mgrwt>
</event>
<event>
12    1  0.1019868E-001  0.3418081E+03  0.7546771E-02  0.1066294E+00
         21   -1    0    0  503  502  0.00000000000E+00  0.00000000000E+00  0.57182192361E+03  0.57182192361E+03  0.00000000000E+00 0.  1.
         21   -1    0    0  501  503 -0.00000000000E+00 -0.00000000000E+00 -0.26665866247E+03  0.26665866247E+03  0.00000000000E+00 0. -1.
          6    2    1    2  501    0 -0.41178773992E+02 -0.28944773836E+03 -0.52963597576E+02  0.34341733613E+03  0.17220522470E+03 0.  0.
         24    2    3    3    0    0  0.57856843130E+01 -0.27465665773E+03 -0.26827653054E+02  0.28747438299E+03  0.80324617191E+02 0.  0.
         -6    2    1    2    0  502  0.41178773992E+02  0.28944773836E+03  0.35812685872E+03  0.49506324996E+03  0.17707933210E+03 0.  0.
        -24    2    5    5    0    0 -0.30682955125E+01  0.10588880122E+03  0.22858698064E+03  0.26603408898E+03  0.85441653334E+02 0.  0.
          5    1    3    3  501    0 -0.46964458305E+02 -0.14791080632E+02 -0.26135944523E+02  0.55942953142E+02  0.47000000000E+01 0. -1.
        -11    1    4    4    0    0  0.99366724190E+01 -0.70309139074E+02  0.27241359160E+02  0.76053955486E+02  0.00000000000E+00 0.  1.
         12    1    4    4    0    0 -0.41509881060E+01 -0.20434751865E+03 -0.54069012213E+02  0.21142042750E+03  0.00000000000E+00 0. -1.
         -5    1    5    5    0  502  0.44247069504E+02  0.18355893714E+03  0.12953987808E+03  0.22902916097E+03  0.47000000000E+01 0.  1.
         13    1    6    6    0    0  0.37842992740E+02  0.77484327763E+02  0.14865081741E+03  0.17185161817E+03  0.00000000000E+00 0. -1.
        -14    1    6    6    0    0 -0.40911288253E+02  0.28404473458E+02  0.79936163221E+02  0.94182470819E+02  0.00000000000E+00 0.  1.
<mgrwt>
<rscale>  2 0.34118150E+03</rscale>
<asrwt>0</asrwt>
<pdfrwt beam="1">  1       21 0.87972604E-01 0.34180810E+03</pdfrwt>
<pdfrwt beam="2">  1       21 0.41024410E-01 0.34180810E+03</pdfrwt>
<totfact> 0.58142587E+03</totfact>
</mgrwt>
</event>
<event>
12    1  0.1019868E-001  0.3249880E+03  0.7546771E-02  0.1073464E+00
         21   -1    0    0  501  502  0.00000000000E+00  0.00000000000E+00  0.19239749354E+04  0.19239749354E+04  0.00000000000E+00 0. -1.
         21   -1    0    0  502  503 -0.00000000000E+00 -0.00000000000E+00 -0.11101167068E+03  0.11101167068E+03  0.00000000000E+00 0.  1.
         -6    2    1    2    0  503  0.13642557643E+03 -0.23773955643E+03  0.18167234608E+03  0.37163839355E+03  0.17314219483E+03 0.  0.
        -24    2    3    3    0    0  0.12612465319E+03 -0.22371204956E+03  0.20723553738E+03  0.34035826059E+03  0.83322675999E+02 0.  0.
          6    2    1    2  501    0 -0.13642557643E+03  0.23773955643E+03  0.16312909186E+04  0.16633482125E+04  0.17460005819E+03 0.  0.
         24    2    5    5    0    0 -0.15499313219E+03  0.20210692624E+03  0.15465359527E+04  0.15694337157E+04  0.80490088782E+02 0.  0.
          5    1    5    5  501    0  0.18567555759E+02  0.35632630189E+02  0.84754965966E+02  0.93914496841E+02  0.47000000000E+01 0. -1.
        -13    1    6    6    0    0 -0.14235959412E+02  0.52541636540E+02  0.19797463023E+03  0.20532228405E+03  0.00000000000E+00 0.  1.
         14    1    6    6    0    0 -0.14075717278E+03  0.14956528970E+03  0.13485613224E+04  0.13641114317E+04  0.00000000000E+00 0. -1.
         -5    1    3    3    0  503  0.10300923240E+02 -0.14027506871E+02 -0.25563191298E+02  0.31280132959E+02  0.47000000000E+01 0.  1.
         11    1    4    4    0    0  0.44912217269E+02 -0.17330356544E+02  0.34042050765E+02  0.58960238621E+02  0.00000000000E+00 0. -1.
        -12    1    4    4    0    0  0.81212435924E+02 -0.20638169302E+03  0.17319348661E+03  0.28139802197E+03  0.00000000000E+00 0.  1.
<mgrwt>
<rscale>  2 0.32479262E+03</rscale>
<asrwt>0</asrwt>
<pdfrwt beam="1">  1       21 0.29599612E+00 0.32498802E+03</pdfrwt>
<pdfrwt beam="2">  1       21 0.17078720E-01 0.32498802E+03</pdfrwt>
<totfact> 0.97369890E+02</totfact>
</mgrwt>
</event>
<event>
12    1  0.1019868E-001  0.2842722E+03  0.7546771E-02  0.1093654E+00
         21   -1    0    0  503  502  0.00000000000E+00  0.00000000000E+00  0.98161220728E+03  0.98161220728E+03  0.00000000000E+00 0. -1.
         21   -1    0    0  501  503 -0.00000000000E+00 -0.00000000000E+00 -0.92254599604E+02  0.92254599604E+02  0.00000000000E+00 0.  1.
          6    2    1    2  501    0 -0.11781064080E+03  0.19144035502E+03  0.26475769165E+03  0.38846790992E+03  0.17401702541E+03 0.  0.
         24    2    3    3    0    0 -0.11553511587E+03  0.13955639471E+03  0.11311685845E+03  0.22811157034E+03  0.80094410250E+02 0.  0.
         -6    2    1    2    0  502  0.11781064080E+03 -0.19144035502E+03  0.62459991603E+03  0.68539889697E+03  0.17063949205E+03 0.  0.
        -24    2    5    5    0    0  0.15151310357E+03 -0.15772200395E+03  0.53979463957E+03  0.58799865000E+03  0.80818985420E+02 0.  0.
          5    1    3    3  501    0 -0.22755249341E+01  0.51883960308E+02  0.15164083320E+03  0.16035633958E+03  0.47000000000E+01 0. -1.
        -11    1    4    4    0    0 -0.25927805430E+02  0.49500778021E+02  0.78645935125E+02  0.96476739325E+02  0.00000000000E+00 0.  1.
         12    1    4    4    0    0 -0.89607310436E+02  0.90055616686E+02  0.34470923328E+02  0.13163483101E+03  0.00000000000E+00 0. -1.
         -5    1    5    5    0  502 -0.33702462768E+02 -0.33718351070E+02  0.84805276454E+02  0.97400246970E+02  0.47000000000E+01 0.  1.
         11    1    6    6    0    0  0.14702469311E+03 -0.16719516654E+03  0.51754021782E+03  0.56339893607E+03  0.00000000000E+00 0. -1.
        -12    1    6    6    0    0  0.44884104561E+01  0.94731625925E+01  0.22254421753E+02  0.24599713931E+02  0.00000000000E+00 0.  1.
<mgrwt>
<rscale>  2 0.28375707E+03</rscale>
<asrwt>0</asrwt>
<pdfrwt beam="1">  1       21 0.15101726E+00 0.28427220E+03</pdfrwt>
<pdfrwt beam="2">  1       21 0.14193016E-01 0.28427220E+03</pdfrwt>
<totfact> 0.12032172E+04</totfact>
</mgrwt>
</event>
<event>
12    1  0.1019868E-001  0.1768214E+03  0.7546771E-02  0.1171475E+00
         21   -1    0    0  503  502  0.00000000000E+00  0.00000000000E+00  0.82268763073E+02  0.82268763073E+02  0.00000000000E+00 0.  1.
         21   -1    0    0  501  503 -0.00000000000E+00 -0.00000000000E+00 -0.39736465145E+03  0.39736465145E+03  0.00000000000E+00 0.  1.
          6    2    1    2  501    0 -0.10942944813E+02 -0.37193501352E+00 -0.21318744931E+03  0.27554730498E+03  0.17423415957E+03 0.  0.
         24    2    3    3    0    0 -0.32799902960E+02  0.55017417288E+02 -0.81096013098E+02  0.13057853424E+03  0.79821303083E+02 0.  0.
         -6    2    1    2    0  502  0.10942944813E+02  0.37193501352E+00 -0.10190843907E+03  0.20408610955E+03  0.17648207779E+03 0.  0.
        -24    2    5    5    0    0  0.10526978937E+02 -0.70439950664E+02 -0.58191627765E+02  0.12073297061E+03  0.78214964773E+02 0.  0.
          5    1    3    3  501    0  0.21856958147E+02 -0.55389352301E+02 -0.13209143621E+03  0.14496877073E+03  0.47000000000E+01 0. -1.
        -13    1    4    4    0    0 -0.56600588346E+02  0.31179953674E+02 -0.69629404047E+02  0.94995105243E+02  0.00000000000E+00 0.  1.
         14    1    4    4    0    0  0.23800685386E+02  0.23837463614E+02 -0.11466609051E+02  0.35583429002E+02  0.00000000000E+00 0. -1.
         -5    1    5    5    0  502  0.41596587599E+00  0.70811885678E+02 -0.43716811309E+02  0.83353138945E+02  0.47000000000E+01 0.  1.
         11    1    6    6    0    0 -0.17956217944E+01  0.16538578641E+02 -0.16729023977E+02  0.23592564174E+02  0.00000000000E+00 0. -1.
        -12    1    6    6    0    0  0.12322600731E+02 -0.86978529306E+02 -0.41462603788E+02  0.97140406432E+02  0.00000000000E+00 0.  1.
<mgrwt>
<rscale>  2 0.17625783E+03</rscale>
<asrwt>0</asrwt>
<pdfrwt beam="1">  1       21 0.12656733E-01 0.17682141E+03</pdfrwt>
<pdfrwt beam="2">  1       21 0.61133024E-01 0.17682141E+03</pdfrwt>
<totfact> 0.13348859E+05</totfact>
</mgrwt>
</event>
<event>
12    1  0.1019868E-001  0.3366220E+03  0.7546771E-02  0.1068426E+00
         21   -1    0    0  501  502  0.00000000000E+00  0.00000000000E+00  0.14838609058E+04  0.14838609058E+04  0.00000000000E+00 0. -1.
         21   -1    0    0  502  503 -0.00000000000E+00 -0.00000000000E+00 -0.85462109370E+02  0.85462109370E+02  0.00000000000E+00 0.  1.
         -6    2    1    2    0  503  0.13674130902E+03  0.25511257738E+03  0.43631530122E+03  0.55004924092E+03  0.16853045016E+03 0.  0.
        -24    2    3    3    0    0  0.99953432630E+02  0.26646595544E+03  0.37636994360E+03  0.47865048083E+03  0.80356420119E+02 0.  0.
          6    2    1    2  501    0 -0.13674130902E+03 -0.25511257738E+03  0.96208349518E+03  0.10192737742E+04  0.17185389836E+03 0.  0.
         24    2    5    5    0    0 -0.13111133917E+03 -0.14035874872E+03  0.74762857127E+03  0.77593626757E+03  0.78980055386E+02 0.  0.
          5    1    5    5  501    0 -0.56299698471E+01 -0.11475382866E+03  0.21445492392E+03  0.24333750666E+03  0.47000000000E+01 0. -1.
        -13    1    6    6    0    0 -0.39595937440E+02 -0.25799632140E+02  0.84761026891E+02  0.97045818869E+02  0.00000000000E+00 0.  1.
         14    1    6    6    0    0 -0.91515401729E+02 -0.11455911658E+03  0.66286754438E+03  0.67889044870E+03  0.00000000000E+00 0. -1.
         -5    1    3    3    0  503  0.36787876386E+02 -0.11353378055E+02  0.59945357622E+02  0.71398760092E+02  0.47000000000E+01 0.  1.
         13    1    4    4    0    0  0.10398067898E+03  0.18122761184E+03  0.28796386062E+03  0.35577888346E+03  0.00000000000E+00 0. -1.
        -14    1    4    4    0    0 -0.40272463507E+01  0.85238343599E+02  0.88406082978E+02  0.12287159737E+03  0.00000000000E+00 0.  1.
<mgrwt>
<rscale>  2 0.33620009E+03</rscale>
<asrwt>0</asrwt>
<pdfrwt beam="1">  1       21 0.22828627E+00 0.33662201E+03</pdfrwt>
<pdfrwt beam="2">  1       21 0.13148018E-01 0.33662201E+03</pdfrwt>
<totfact> 0.39981393E+03</totfact>
</mgrwt>
</event>
<event>
12    1  0.1019868E-001  0.1891880E+03  0.7546771E-02  0.1159579E+00
         21   -1    0    0  501  502  0.00000000000E+00  0.00000000000E+00  0.32921684310E+02  0.32921684310E+02  0.00000000000E+00 0. -1.
         21   -1    0    0  502  503 -0.00000000000E+00 -0.00000000000E+00 -0.10884650459E+04  0.10884650459E+04  0.00000000000E+00 0. -1.
         -6    2    1    2    0  503 -0.46240344355E+02 -0.59843315340E+02 -0.58157315974E+03  0.61105366766E+03  0.17158045576E+03 0.  0.
        -24    2    3    3    0    0 -0.16814088610E+02 -0.55385097005E+02 -0.15464029573E+03  0.18305887726E+03  0.79036124242E+02 0.  0.
          6    2    1    2  501    0  0.46240344355E+02  0.59843315340E+02 -0.47397020184E+03  0.51033306253E+03  0.17341479363E+03 0.  0.
         24    2    5    5    0    0  0.33789209115E+02  0.94934305174E+02 -0.22676159458E+03  0.26029187825E+03  0.78592672401E+02 0.  0.
          5    1    5    5  501    0  0.12451135240E+02 -0.35090989834E+02 -0.24720860726E+03  0.25004118428E+03  0.47000000000E+01 0. -1.
        -11    1    6    6    0    0  0.17058626018E+02  0.13279664887E+02 -0.33985052635E+01  0.21883693910E+02  0.00000000000E+00 0.  1.
         12    1    6    6    0    0  0.16730583097E+02  0.81654640287E+02 -0.22336308932E+03  0.23840818434E+03  0.00000000000E+00 0. -1.
         -5    1    3    3    0  503 -0.29426255745E+02 -0.44582183349E+01 -0.42693286401E+03  0.42799479040E+03  0.47000000000E+01 0.  1.
         11    1    4    4    0    0  0.23585540010E+02 -0.34306065886E+02 -0.11623313939E+03  0.12346386738E+03  0.00000000000E+00 0. -1.
        -12    1    4    4    0    0 -0.40399628619E+02 -0.21079031119E+02 -0.38407156334E+02  0.59595009885E+02  0.00000000000E+00 0.  1.
<mgrwt>
<rscale>  2 0.18876656E+03</rscale>
<asrwt>0</asrwt>
<pdfrwt beam="1">  1       21 0.50648744E-02 0.18918796E+03</pdfrwt>
<pdfrwt beam="2">  1       21 0.16745616E+00 0.18918796E+03</pdfrwt>
<totfact> 0.58643820E+04</totfact>
</mgrwt>
</event>
<event>
12    1  0.1019868E-001  0.2224093E+03  0.7546771E-02  0.1132203E+00
         21   -1    0    0  503  502  0.00000000000E+00  0.00000000000E+00  0.64836518424E+03  0.64836518424E+03  0.00000000000E+00 0.  1.
         21   -1    0    0  501  503 -0.00000000000E+00 -0.00000000000E+00 -0.78994149407E+02  0.78994149407E+02  0.00000000000E+00 0. -1.
          6    2    1    2  501    0 -0.48150967839E+02 -0.13239581434E+03  0.35463912900E+03  0.41861055557E+03  0.17210089499E+03 0.  0.
         24    2    3    3    0    0  0.16162624023E+02 -0.95414231109E+02  0.18906447418E+03  0.23711418669E+03  0.10541658418E+03 0.  0.
         -6    2    1    2    0  502  0.48150967839E+02  0.13239581434E+03  0.21473190584E+03  0.30874877808E+03  0.17137342041E+03 0.  0.
        -24    2    5    5    0    0  0.83755232404E+02  0.13992756795E+03  0.16016842074E+03  0.24299427349E+03  0.82447745393E+02 0.  0.
          5    1    3    3  501    0 -0.64313591862E+02 -0.36981583235E+02  0.16557465482E+03  0.18149636888E+03  0.47000000000E+01 0. -1.
        -11    1    4    4    0    0 -0.13349767263E+02 -0.83827790310E+02  0.59334036832E+02  0.10356564412E+03  0.00000000000E+00 0.  1.
         12    1    4    4    0    0  0.29512391286E+02 -0.11586440799E+02  0.12973043735E+03  0.13354854258E+03  0.00000000000E+00 0. -1.
         -5    1    5    5    0  502 -0.35604264565E+02 -0.75317536075E+01  0.54563485098E+02  0.65754504588E+02  0.47000000000E+01 0.  1.
         11    1    6    6    0    0  0.20570627496E+02  0.18761474561E+02 -0.53547796489E+01  0.28351672056E+02  0.00000000000E+00 0. -1.
        -12    1    6    6    0    0  0.63184604907E+02  0.12116609339E+03  0.16552320039E+03  0.21464260144E+03  0.00000000000E+00 0.  1.
<mgrwt>
<rscale>  2 0.22226853E+03</rscale>
<asrwt>0</asrwt>
<pdfrwt beam="1">  1       21 0.99748486E-01 0.22240927E+03</pdfrwt>
<pdfrwt beam="2">  1       21 0.12152947E-01 0.22240927E+03</pdfrwt>
<totfact> 0.46673320E+04</totfact>
</mgrwt>
</event>
<event>
12    1  0.1019868E-001  0.2390214E+03  0.7546771E-02  0.1121265E+00
         21   -1    0    0  503  502  0.00000000000E+00  0.00000000000E+00  0.63748128253E+03  0.63748128253E+03  0.00000000000E+00 0.  1.
         21   -1    0    0  501  503 -0.00000000000E+00 -0.00000000000E+00 -0.12592067703E+03  0.12592067703E+03  0.00000000000E+00 0.  1.
          6    2    1    2  501    0 -0.13301500022E+03 -0.90954238285E+02  0.47637022423E+02  0.24372219414E+03  0.17653769644E+03 0.  0.
         24    2    3    3    0    0 -0.16319155513E+03 -0.92281430495E+02  0.56931512643E+02  0.21177124025E+03  0.80364886519E+02 0.  0.
         -6    2    1    2    0  502  0.13301500022E+03  0.90954238285E+02  0.46392358308E+03  0.51967976542E+03  0.16993029133E+03 0.  0.
        -24    2    5    5    0    0  0.15304345828E+03  0.11263866011E+03  0.42031280320E+03  0.46680875821E+03  0.71678423039E+02 0.  0.
          5    1    3    3  501    0  0.30176554917E+02  0.13271922103E+01 -0.92944902204E+01  0.31950953886E+02  0.47000000000E+01 0. -1.
        -13    1    4    4    0    0 -0.76355486960E+02 -0.63900374702E+02  0.66777229703E+02  0.11988584855E+03  0.00000000000E+00 0.  1.
         14    1    4    4    0    0 -0.86836068174E+02 -0.28381055793E+02 -0.98457170598E+01  0.91885391702E+02  0.00000000000E+00 0. -1.
         -5    1    5    5    0  502 -0.20028458066E+02 -0.21684421829E+02  0.43610779878E+02  0.52871007217E+02  0.47000000000E+01 0.  1.
         13    1    6    6    0    0  0.31969175341E+02  0.43876169215E+02  0.62084784170E+02  0.82472218489E+02  0.00000000000E+00 0. -1.
        -14    1    6    6    0    0  0.12107428294E+03  0.68762490899E+02  0.35822801903E+03  0.38433653972E+03  0.00000000000E+00 0.  1.
<mgrwt>
<rscale>  2 0.23780265E+03</rscale>
<asrwt>0</asrwt>
<pdfrwt beam="1">  1       21 0.98074041E-01 0.23902138E+03</pdfrwt>
<pdfrwt beam="2">  1       21 0.19372412E-01 0.23902138E+03</pdfrwt>
<totfact> 0.20504259E+04</totfact>
</mgrwt>
</event>
<event>
12    1  0.1019868E-001  0.2476750E+03  0.7546771E-02  0.1115033E+00
         21   -1    0    0  503  502  0.00000000000E+00  0.00000000000E+00  0.35422252367E+03  0.35422252367E+03  0.00000000000E+00 0.  1.
         21   -1    0    0  501  503 -0.00000000000E+00 -0.00000000000E+00 -0.19674695533E+03  0.19674695533E+03  0.00000000000E+00 0. -1.
          6    2    1    2  501    0  0.16002737321E+03 -0.73665391259E+02  0.17648627992E+03  0.30412216611E+03  0.17409059387E+03 0.  0.
         24    2    3    3    0    0  0.12279538515E+03 -0.23538962747E+01  0.16695227718E+03  0.22297700323E+03  0.82227937288E+02 0.  0.
         -6    2    1    2    0  502 -0.16002737321E+03  0.73665391259E+02 -0.19010711576E+02  0.24684731289E+03  0.17186284845E+03 0.  0.
        -24    2    5    5    0    0 -0.16676624222E+03  0.37900982784E+02  0.23653661131E+02  0.19057259416E+03  0.80690482214E+02 0.  0.
          5    1    3    3  501    0  0.37231988057E+02 -0.71311494984E+02  0.95340027444E+01  0.81145162886E+02  0.47000000000E+01 0. -1.
        -13    1    4    4    0    0  0.99753941234E+02  0.29237897913E+02  0.93728362203E+02  0.13996681516E+03  0.00000000000E+00 0.  1.
         14    1    4    4    0    0  0.23041443918E+02 -0.31591794188E+02  0.73223914973E+02  0.83010188061E+02  0.00000000000E+00 0. -1.
         -5    1    5    5    0  502  0.67388690103E+01  0.35764408475E+02 -0.42664372708E+02  0.56274718725E+02  0.47000000000E+01 0.  1.
         13    1    6    6    0    0 -0.12837029826E+03  0.61938420471E+01 -0.12368999757E+02  0.12911347454E+03  0.00000000000E+00 0. -1.
        -14    1    6    6    0    0 -0.38395943962E+02  0.31707140737E+02  0.36022660888E+02  0.61459119615E+02  0.00000000000E+00 0.  1.
<mgrwt>
<rscale>  2 0.24728384E+03</rscale>
<asrwt>0</asrwt>
<pdfrwt beam="1">  1       21 0.54495773E-01 0.24767496E+03</pdfrwt>
<pdfrwt beam="2">  1       21 0.30268762E-01 0.24767496E+03</pdfrwt>
<totfact> 0.32412656E+04</totfact>
</mgrwt>
</event>
<event>
12    1  0.1019868E-001  0.1975921E+03  0.7546771E-02  0.1151974E+00
         21   -1    0    0  503  502  0.00000000000E+00  0.00000000000E+00  0.19679504314E+04  0.19679504314E+04  0.00000000000E+00 0.  1.
         21   -1    0    0  501  503 -0.00000000000E+00 -0.00000000000E+00 -0.19752638440E+02  0.19752638440E+02  0.00000000000E+00 0. -1.
          6    2    1    2  501    0 -0.13363166551E+02 -0.93444133898E+02  0.96566652166E+03  0.98550032542E+03  0.17259397430E+03 0.  0.
         24    2    3    3    0    0  0.38669196286E+02 -0.30120962206E+02  0.73473849414E+03  0.74041455523E+03  0.77268879362E+02 0.  0.
         -6    2    1    2    0  502  0.13363166551E+02  0.93444133898E+02  0.98253127132E+03  0.10022027444E+04  0.17358646682E+03 0.  0.
        -24    2    5    5    0    0  0.18374513237E+02 -0.43829490220E+01  0.26419330725E+03  0.27720152211E+03  0.81766419078E+02 0.  0.
          5    1    3    3  501    0 -0.52032362837E+02 -0.63323171692E+02  0.23092802752E+03  0.24508577019E+03  0.47000000000E+01 0. -1.
        -11    1    4    4    0    0  0.53926499905E+02 -0.44628254273E+02  0.59397780490E+03  0.59808810486E+03  0.00000000000E+00 0.  1.
         12    1    4    4    0    0 -0.15257303619E+02  0.14507292067E+02  0.14076068924E+03  0.14232645036E+03  0.00000000000E+00 0. -1.
         -5    1    5    5    0  502 -0.50113466863E+01  0.97827082920E+02  0.71833796407E+03  0.72500122232E+03  0.47000000000E+01 0.  1.
         13    1    6    6    0    0  0.45615442159E+02 -0.13719651340E+01  0.90458433702E+02  0.10131820705E+03  0.00000000000E+00 0. -1.
        -14    1    6    6    0    0 -0.27240928921E+02 -0.30109838880E+01  0.17373487355E+03  0.17588331507E+03  0.00000000000E+00 0.  1.
<mgrwt>
<rscale>  2 0.19737391E+03</rscale>
<asrwt>0</asrwt>
<pdfrwt beam="1">  1       21 0.30276145E+00 0.19759211E+03</pdfrwt>
<pdfrwt beam="2">  1       21 0.30388690E-02 0.19759211E+03</pdfrwt>
<totfact> 0.20283765E+04</totfact>
</mgrwt>
</event>
<event>
12    1  0.1019868E-001  0.1878280E+03  0.7546771E-02  0.1160553E+00
         21   -1    0    0  503  502  0.00000000000E+00  0.00000000000E+00  0.37350549518E+03  0.37350549518E+03  0.00000000000E+00 0. -1.
         21   -1    0    0  501  503 -0.00000000000E+00 -0.00000000000E+00 -0.50844161949E+03  0.50844161949E+03  0.00000000000E+00 0. -1.
          6    2    1    2  501    0  0.31670659987E+02 -0.66779449160E+02 -0.46548592829E+03  0.50175963729E+03  0.17211350511E+03 0.  0.
         24    2    3    3    0    0 -0.40258169498E+02 -0.73822039619E+02 -0.31408779839E+03  0.33392984754E+03  0.76076173885E+02 0.  0.
         -6    2    1    2    0  502 -0.31670659987E+02  0.66779449160E+02  0.33054980398E+03  0.38018747738E+03  0.17267547456E+03 0.  0.
        -24    2    5    5    0    0  0.11602246177E+02  0.98603658590E+02  0.18399891869E+03  0.22403186048E+03  0.80482164639E+02 0.  0.
          5    1    3    3  501    0  0.71928829485E+02  0.70425904586E+01 -0.15139812990E+03  0.16782978975E+03  0.47000000000E+01 0. -1.
        -11    1    4    4    0    0 -0.15553392508E+02  0.14011172592E+02 -0.79865185914E+02  0.82563120684E+02  0.00000000000E+00 0.  1.
         12    1    4    4    0    0 -0.24704776990E+02 -0.87833212211E+02 -0.23422261248E+03  0.25136672685E+03  0.00000000000E+00 0. -1.
         -5    1    5    5    0  502 -0.43272906165E+02 -0.31824209429E+02  0.14655088528E+03  0.15615561691E+03  0.47000000000E+01 0.  1.
         13    1    6    6    0    0 -0.24404373593E+02  0.19232356591E+01  0.39835400269E+02  0.46756084101E+02  0.00000000000E+00 0. -1.
        -14    1    6    6    0    0  0.36006619770E+02  0.96680422930E+02  0.14416351842E+03  0.17727577638E+03  0.00000000000E+00 0.  1.
<mgrwt>
<rscale>  2 0.18769871E+03</rscale>
<asrwt>0</asrwt>
<pdfrwt beam="1">  1       21 0.57462384E-01 0.18782797E+03</pdfrwt>
<pdfrwt beam="2">  1       21 0.78221788E-01 0.18782797E+03</pdfrwt>
<totfact> 0.41285044E+03</totfact>
</mgrwt>
</event>
<event>
12    1  0.1019868E-001  0.1823599E+03  0.7546771E-02  0.1166310E+00
         21   -1    0    0  501  502  0.00000000000E+00  0.00000000000E+00  0.17703959017E+03  0.17703959017E+03  0.00000000000E+00 0. -1.
         21   -1    0    0  502  503 -0.00000000000E+00 -0.00000000000E+00 -0.19886005624E+03  0.19886005624E+03  0.00000000000E+00 0. -1.
         -6    2    1    2    0  503 -0.27620282927E+02 -0.49665472627E+02 -0.61425065832E+02  0.19242705892E+03  0.17327895167E+03 0.  0.
        -24    2    3    3    0    0 -0.69087223671E+02 -0.67271067856E+02 -0.16132270338E+02  0.12837246125E+03  0.83191331383E+02 0.  0.
          6    2    1    2  501    0  0.27620282927E+02  0.49665472627E+02  0.39604599766E+02  0.18347258749E+03  0.16989445793E+03 0.  0.
         24    2    5    5    0    0  0.17137634873E+02 -0.21200429999E+02 -0.22785973115E+02  0.88359309500E+02  0.80901237588E+02 0.  0.
          5    1    5    5  501    0  0.10482648054E+02  0.70865902626E+02  0.62390572881E+02  0.95113277988E+02  0.47000000000E+01 0. -1.
        -13    1    6    6    0    0 -0.30473205893E+02 -0.36478041164E+01 -0.21730451248E+02  0.37604989878E+02  0.00000000000E+00 0.  1.
         14    1    6    6    0    0  0.47610840766E+02 -0.17552625883E+02 -0.10555218671E+01  0.50754319622E+02  0.00000000000E+00 0. -1.
         -5    1    3    3    0  503  0.41466940744E+02  0.17605595229E+02 -0.45292795494E+02  0.64054597663E+02  0.47000000000E+01 0.  1.
         13    1    4    4    0    0 -0.46709384010E+02 -0.52960180584E+02 -0.49120261625E+02  0.86019459335E+02  0.00000000000E+00 0. -1.
        -14    1    4    4    0    0 -0.22377839661E+02 -0.14310887271E+02  0.32987991288E+02  0.42353001919E+02  0.00000000000E+00 0.  1.
<mgrwt>
<rscale>  2 0.18155133E+03</rscale>
<asrwt>0</asrwt>
<pdfrwt beam="1">  1       21 0.27236860E-01 0.18235990E+03</pdfrwt>
<pdfrwt beam="2">  1       21 0.30593855E-01 0.18235990E+03</pdfrwt>
<totfact> 0.13226402E+05</totfact>
</mgrwt>
</event>
<event>
11    1  0.1019868E-001  0.3129504E+03  0.7546771E-02  0.1079085E+00
         21   -1    0    0  501  502  0.00000000000E+00  0.00000000000E+00  0.14880740082E+04  0.14880740082E+04  0.00000000000E+00 0.  1.
         21   -1    0    0  502  503 -0.00000000000E+00 -0.00000000000E+00 -0.56115687687E+03  0.56115687687E+03  0.00000000000E+00 0. -1.
         -6    2    1    2    0  503 -0.30439339527E+02 -0.25838089018E+03 -0.49934097394E+03  0.58930412539E+03  0.17392730132E+03 0.  0.
        -24    2    3    3    0    0 -0.75315263219E+02 -0.20093937295E+03 -0.30318902870E+03  0.37999322732E+03  0.80138911956E+02 0.  0.
          6    2    1    2  501    0  0.30439339527E+02  0.25838089018E+03  0.14262581053E+04  0.14599267597E+04  0.17171698503E+03 0.  0.
          5    1    5    5  501    0 -0.13885068061E-02 -0.21199071662E+01  0.17604384598E+03  0.17611933374E+03  0.47000000000E+01 0. -1.
        -11    1    5    5    0    0 -0.49626050720E+02  0.11650035483E+03  0.57557948409E+03  0.58934439854E+03  0.00000000000E+00 0.  1.
         12    1    5    5    0    0  0.80066778754E+02  0.14400044252E+03  0.67463477521E+03  0.69446302740E+03  0.00000000000E+00 0. -1.
         -5    1    3    3    0  503  0.44875923692E+02 -0.57441517233E+02 -0.19615194524E+03  0.20931089807E+03  0.47000000000E+01 0.  1.
         13    1    4    4    0    0 -0.38055748244E+02 -0.13008601883E+03 -0.24844615583E+03  0.28301255204E+03  0.00000000000E+00 0. -1.
        -14    1    4    4    0    0 -0.37259514975E+02 -0.70853354126E+02 -0.54742872874E+02  0.96980675279E+02  0.00000000000E+00 0.  1.
<mgrwt>
<rscale>  2 0.31264419E+03</rscale>
<asrwt>0</asrwt>
<pdfrwt beam="1">  1       21 0.22893446E+00 0.31295039E+03</pdfrwt>
<pdfrwt beam="2">  1       21 0.86331828E-01 0.31295039E+03</pdfrwt>
<totfact> 0.89266423E+01</totfact>
</mgrwt>
</event>
<event>
12    1  0.1019868E-001  0.2017719E+03  0.7546771E-02  0.1148353E+00
         21   -1    0    0  503  502  0.00000000000E+00  0.00000000000E+00  0.12800091277E+03  0.12800091277E+03  0.00000000000E+00 0. -1.
         21   -1    0    0  501  503 -0.00000000000E+00 -0.00000000000E+00 -0.33885924071E+03  0.33885924071E+03  0.00000000000E+00 0. -1.
          6    2    1    2  501    0  0.66660947254E+02  0.78294558841E+02 -0.16418995153E+03  0.25976156116E+03  0.17304337213E+03 0.  0.
         24    2    3    3    0    0 -0.37545405936E+01 -0.77415248734E+01 -0.10786866374E+03  0.13504297358E+03  0.80789407181E+02 0.  0.
         -6    2    1    2    0  502 -0.66660947254E+02 -0.78294558841E+02 -0.46668376416E+02  0.20709859232E+03  0.17360348427E+03 0.  0.
        -24    2    5    5    0    0 -0.51682997018E+02 -0.12089213087E+03 -0.50161318482E+02  0.16156637538E+03  0.79381964542E+02 0.  0.
          5    1    3    3  501    0  0.70415487847E+02  0.86036083715E+02 -0.56321287783E+02  0.12471858758E+03  0.47000000000E+01 0. -1.
        -11    1    4    4    0    0 -0.19508446544E+02  0.25175040912E+02 -0.87796322646E+02  0.93394627478E+02  0.00000000000E+00 0.  1.
         12    1    4    4    0    0  0.15753905950E+02 -0.32916565786E+02 -0.20072341098E+02  0.41648346102E+02  0.00000000000E+00 0. -1.
         -5    1    5    5    0  502 -0.14977950235E+02  0.42597572024E+02  0.34929420663E+01  0.45532216944E+02  0.47000000000E+01 0.  1.
         11    1    6    6    0    0 -0.21764150202E+02 -0.32495872947E+02  0.20829195992E+02  0.44311571833E+02  0.00000000000E+00 0. -1.
        -12    1    6    6    0    0 -0.29918846816E+02 -0.88396257919E+02 -0.70990514474E+02  0.11725480354E+03  0.00000000000E+00 0.  1.
<mgrwt>
<rscale>  2 0.20165134E+03</rscale>
<asrwt>0</asrwt>
<pdfrwt beam="1">  1       21 0.19692448E-01 0.20177188E+03</pdfrwt>
<pdfrwt beam="2">  1       21 0.52132191E-01 0.20177188E+03</pdfrwt>
<totfact> 0.82641084E+04</totfact>
</mgrwt>
</event>
<event>
12    1  0.1019868E-001  0.1780004E+03  0.7546771E-02  0.1170410E+00
         21   -1    0    0  503  502  0.00000000000E+00  0.00000000000E+00  0.33306625943E+03  0.33306625943E+03  0.00000000000E+00 0.  1.
         21   -1    0    0  501  503 -0.00000000000E+00 -0.00000000000E+00 -0.16939115946E+03  0.16939115946E+03  0.00000000000E+00 0.  1.
          6    2    1    2  501    0 -0.26156924657E+02 -0.31296282433E+02 -0.86422867417E+02  0.19548323898E+03  0.17053194044E+03 0.  0.
         24    2    3    3    0    0 -0.56597881365E+01  0.48476430504E+02 -0.51247744020E+02  0.10579936284E+03  0.78645892411E+02 0.  0.
         -6    2    1    2    0  502  0.26156924657E+02  0.31296282433E+02  0.25009796739E+03  0.30697417990E+03  0.17326428320E+03 0.  0.
        -24    2    5    5    0    0  0.78742145785E+02  0.12627759531E+02  0.12060729649E+03  0.16589390815E+03  0.81331930763E+02 0.  0.
          5    1    3    3  501    0 -0.20497136521E+02 -0.79772712936E+02 -0.35175123397E+02  0.89683876147E+02  0.47000000000E+01 0. -1.
        -13    1    4    4    0    0  0.27448400355E+02  0.26954635734E+02 -0.53901415482E+02  0.66221821634E+02  0.00000000000E+00 0.  1.
         14    1    4    4    0    0 -0.33108188491E+02  0.21521794770E+02  0.26536714625E+01  0.39577541201E+02  0.00000000000E+00 0. -1.
         -5    1    5    5    0  502 -0.52585221127E+02  0.18668522902E+02  0.12949067089E+03  0.14108027175E+03  0.47000000000E+01 0.  1.
         11    1    6    6    0    0  0.17401170164E+02  0.39994099393E+02  0.67046254108E+02  0.79984554129E+02  0.00000000000E+00 0. -1.
        -12    1    6    6    0    0  0.61340975620E+02 -0.27366339862E+02  0.53561042386E+02  0.85909354025E+02  0.00000000000E+00 0.  1.
<mgrwt>
<rscale>  2 0.17733205E+03</rscale>
<asrwt>0</asrwt>
<pdfrwt beam="1">  1       21 0.51240963E-01 0.17800043E+03</pdfrwt>
<pdfrwt beam="2">  1       21 0.26060178E-01 0.17800043E+03</pdfrwt>
<totfact> 0.50996133E+04</totfact>
</mgrwt>
</event>
<event>
12    1  0.1019868E-001  0.2051390E+03  0.7546771E-02  0.1145479E+00
         21   -1    0    0  503  502  0.00000000000E+00  0.00000000000E+00  0.18709954776E+04  0.18709954776E+04  0.00000000000E+00 0. -1.
         21   -1    0    0  501  503 -0.00000000000E+00 -0.00000000000E+00 -0.39485436997E+02  0.39485436997E+02  0.00000000000E+00 0. -1.
          6    2    1    2  501    0  0.10578843458E+03 -0.31691973778E+02  0.28901547972E+03  0.35440524828E+03  0.17285126091E+03 0.  0.
         24    2    3    3    0    0  0.10754942989E+03  0.36706725282E+02  0.18947335512E+03  0.23352428324E+03  0.75625227363E+02 0.  0.
         -6    2    1    2    0  502 -0.10578843458E+03  0.31691973778E+02  0.15424945609E+04  0.15560756663E+04  0.17287693557E+03 0.  0.
        -24    2    5    5    0    0 -0.30839365480E+02  0.71418395326E+02  0.64030903515E+03  0.64989888203E+03  0.79506243283E+02 0.  0.
          5    1    3    3  501    0 -0.17609953140E+01 -0.68398699059E+02  0.99542124599E+02  0.12088096503E+03  0.47000000000E+01 0. -1.
        -11    1    4    4    0    0  0.46214974877E+02  0.42195628074E+02  0.46848385680E+02  0.78173308567E+02  0.00000000000E+00 0.  1.
         12    1    4    4    0    0  0.61334455018E+02 -0.54889027925E+01  0.14262496944E+03  0.15535097468E+03  0.00000000000E+00 0. -1.
         -5    1    5    5    0  502 -0.74949069101E+02 -0.39726421548E+02  0.90218552574E+03  0.90617678428E+03  0.47000000000E+01 0.  1.
         13    1    6    6    0    0  0.11939689047E+02  0.44525953130E+02  0.46990792279E+03  0.47216371374E+03  0.00000000000E+00 0. -1.
        -14    1    6    6    0    0 -0.42779054527E+02  0.26892442196E+02  0.17040111236E+03  0.17773516829E+03  0.00000000000E+00 0.  1.
<mgrwt>
<rscale>  2 0.20513359E+03</rscale>
<asrwt>0</asrwt>
<pdfrwt beam="1">  1       21 0.28784539E+00 0.20513900E+03</pdfrwt>
<pdfrwt beam="2">  1       21 0.60746841E-02 0.20513900E+03</pdfrwt>
<totfact> 0.76404621E+03</totfact>
</mgrwt>
</event>
<event>
12    1  0.1019868E-001  0.1989953E+03  0.7546771E-02  0.1153690E+00
         21   -1    0    0  501  502  0.00000000000E+00  0.00000000000E+00  0.25762068680E+02  0.25762068680E+02  0.00000000000E+00 0.  1.
         21   -1    0    0  502  503 -0.00000000000E+00 -0.00000000000E+00 -0.15193763203E+04  0.15193763203E+04  0.00000000000E+00 0.  1.
         -6    2    1    2    0  503 -0.62786247364E+02  0.51709662591E+01 -0.95922039884E+03  0.97964426604E+03  0.18875980154E+03 0.  0.
        -24    2    3    3    0    0 -0.52993074334E+01  0.34512448085E+02 -0.21870236223E+03  0.23630401866E+03  0.82399479729E+02 0.  0.
          6    2    1    2  501    0  0.62786247364E+02 -0.51709662591E+01 -0.53439385274E+03  0.56549412290E+03  0.17389065944E+03 0.  0.
         24    2    5    5    0    0 -0.14258121247E+02 -0.36623316610E+02 -0.38807273841E+03  0.39709862541E+03  0.74446669932E+02 0.  0.
          5    1    5    5  501    0  0.77044368611E+02  0.31452350351E+02 -0.14632111433E+03  0.16839549749E+03  0.47000000000E+01 0. -1.
        -11    1    6    6    0    0  0.28305284576E+02 -0.10695088823E+01 -0.15006745836E+03  0.15271730434E+03  0.00000000000E+00 0.  1.
         12    1    6    6    0    0 -0.42563405823E+02 -0.35553807728E+02 -0.23800528005E+03  0.24438132107E+03  0.00000000000E+00 0. -1.
         -5    1    3    3    0  503 -0.57486939930E+02 -0.29341481826E+02 -0.74051803662E+03  0.74334024738E+03  0.47000000000E+01 0.  1.
         13    1    4    4    0    0  0.24671719290E+01 -0.11967052295E+02  0.36633784938E+00  0.12224217005E+02  0.00000000000E+00 0. -1.
        -14    1    4    4    0    0 -0.77664793624E+01  0.46479500380E+02 -0.21906870007E+03  0.22407980165E+03  0.00000000000E+00 0.  1.
<mgrwt>
<rscale>  2 0.19538721E+03</rscale>
<asrwt>0</asrwt>
<pdfrwt beam="1">  1       21 0.39633957E-02 0.19899526E+03</pdfrwt>
<pdfrwt beam="2">  1       21 0.23375017E+00 0.19899526E+03</pdfrwt>
<totfact> 0.32876666E+04</totfact>
</mgrwt>
</event>
<event>
12    1  0.1019868E-001  0.2260553E+03  0.7546771E-02  0.1129677E+00
         21   -1    0    0  503  502  0.00000000000E+00  0.00000000000E+00  0.33147984664E+02  0.33147984664E+02  0.00000000000E+00 0.  1.
         21   -1    0    0  501  503 -0.00000000000E+00 -0.00000000000E+00 -0.17247607218E+04  0.17247607218E+04  0.00000000000E+00 0.  1.
          6    2    1    2  501    0 -0.12510153535E+03  0.70924413133E+02 -0.11368089225E+04  0.11588191634E+04  0.17276186106E+03 0.  0.
         24    2    3    3    0    0 -0.10736267146E+03  0.77650795084E+02 -0.11285344054E+04  0.11375949051E+04  0.54551579050E+02 0.  0.
         -6    2    1    2    0  502  0.12510153535E+03 -0.70924413133E+02 -0.55480381467E+03  0.59908954311E+03  0.17441428084E+03 0.  0.
        -24    2    5    5    0    0  0.36015518245E+02 -0.49825092287E+02 -0.12113829696E+03  0.15584088712E+03  0.76369088853E+02 0.  0.
          5    1    3    3  501    0 -0.17738863893E+02 -0.67263819504E+01 -0.82745171135E+01  0.21224258286E+02  0.47000000000E+01 0. -1.
        -11    1    4    4    0    0 -0.75754038992E+02  0.21472139828E+02 -0.60017177251E+03  0.60531469810E+03  0.00000000000E+00 0.  1.
         12    1    4    4    0    0 -0.31608632469E+02  0.56178655256E+02 -0.52836263286E+03  0.53228020699E+03  0.00000000000E+00 0. -1.
         -5    1    5    5    0  502  0.89086017109E+02 -0.21099320847E+02 -0.43366551771E+03  0.44324865598E+03  0.47000000000E+01 0.  1.
         13    1    6    6    0    0 -0.19788272600E+02 -0.13643693837E+02 -0.94017046420E+01  0.25809265084E+02  0.00000000000E+00 0. -1.
        -14    1    6    6    0    0  0.55803790845E+02 -0.36181398449E+02 -0.11173659232E+03  0.13003162204E+03  0.00000000000E+00 0.  1.
<mgrwt>
<rscale>  2 0.22573653E+03</rscale>
<asrwt>0</asrwt>
<pdfrwt beam="1">  1       21 0.50996904E-02 0.22605532E+03</pdfrwt>
<pdfrwt beam="2">  1       21 0.26534778E+00 0.22605532E+03</pdfrwt>
<totfact> 0.13654042E+04</totfact>
</mgrwt>
</event>
<event>
12    1  0.1019868E-001  0.1929709E+03  0.7546771E-02  0.1156075E+00
         21   -1    0    0  501  502  0.00000000000E+00  0.00000000000E+00  0.70278623310E+03  0.70278623310E+03  0.00000000000E+00 0.  1.
         21   -1    0    0  502  503 -0.00000000000E+00 -0.00000000000E+00 -0.92961340828E+02  0.92961340828E+02  0.00000000000E+00 0.  1.
         -6    2    1    2    0  503 -0.86470032579E+02 -0.17191153150E+01  0.43470206479E+02  0.19780655738E+03  0.17250435762E+03 0.  0.
        -24    2    3    3    0    0 -0.11811100028E+03  0.13353006193E+02  0.15935967980E+01  0.14299725048E+03  0.79480582116E+02 0.  0.
          6    2    1    2  501    0  0.86470032579E+02  0.17191153150E+01  0.56635468580E+03  0.59794101656E+03  0.17116018013E+03 0.  0.
         24    2    5    5    0    0  0.44384909187E+02  0.45725450368E+02  0.48437206106E+03  0.49571109973E+03  0.83978353663E+02 0.  0.
          5    1    5    5  501    0  0.42085123392E+02 -0.44006335053E+02  0.81982624738E+02  0.10222991683E+03  0.47000000000E+01 0. -1.
        -11    1    6    6    0    0  0.43878186149E+02 -0.70241593709E+01  0.12886401416E+03  0.13631055785E+03  0.00000000000E+00 0.  1.
         12    1    6    6    0    0  0.50672303772E+00  0.52749609739E+02  0.35550804689E+03  0.35940054188E+03  0.00000000000E+00 0. -1.
         -5    1    3    3    0  503  0.31640967701E+02 -0.15072121508E+02  0.41876609681E+02  0.54809306894E+02  0.47000000000E+01 0.  1.
         11    1    4    4    0    0 -0.51969248591E+02 -0.28467609300E+02  0.20123521477E+02  0.62579259304E+02  0.00000000000E+00 0. -1.
        -12    1    4    4    0    0 -0.66141751688E+02  0.41820615493E+02 -0.18529924679E+02  0.80417991178E+02  0.00000000000E+00 0.  1.
<mgrwt>
<rscale>  2 0.19267005E+03</rscale>
<asrwt>0</asrwt>
<pdfrwt beam="1">  1       21 0.10812096E+00 0.19297092E+03</pdfrwt>
<pdfrwt beam="2">  1       21 0.14301745E-01 0.19297092E+03</pdfrwt>
<totfact> 0.29123153E+04</totfact>
</mgrwt>
</event>
<event>
12    1  0.1019868E-001  0.2420501E+03  0.7546771E-02  0.1118561E+00
         21   -1    0    0  503  502  0.00000000000E+00  0.00000000000E+00  0.73404533431E+02  0.73404533431E+02  0.00000000000E+00 0.  1.
         21   -1    0    0  501  503 -0.00000000000E+00 -0.00000000000E+00 -0.79928732593E+03  0.79928732593E+03  0.00000000000E+00 0. -1.
          6    2    1    2  501    0 -0.78485731748E+02  0.14843320142E+03 -0.33399041387E+03  0.41247772113E+03  0.17434405208E+03 0.  0.
         24    2    3    3    0    0 -0.55693038929E+02  0.48504417217E+02 -0.69203564745E+02  0.12850688771E+03  0.79186449230E+02 0.  0.
         -6    2    1    2    0  502  0.78485731748E+02 -0.14843320142E+03 -0.39189237863E+03  0.46021413823E+03  0.17327720922E+03 0.  0.
        -24    2    5    5    0    0  0.53178184479E+02 -0.16770840075E+03 -0.25782729316E+03  0.32234629427E+03  0.80487224728E+02 0.  0.
          5    1    3    3  501    0 -0.22792692819E+02  0.99928784204E+02 -0.26478684913E+03  0.28397083341E+03  0.47000000000E+01 0. -1.
        -11    1    4    4    0    0 -0.26787898740E+02  0.22794072577E+02  0.13125124402E+02  0.37542378110E+02  0.00000000000E+00 0.  1.
         12    1    4    4    0    0 -0.28905140189E+02  0.25710344640E+02 -0.82328689147E+02  0.90964509604E+02  0.00000000000E+00 0. -1.
         -5    1    5    5    0  502  0.25307547270E+02  0.19275199332E+02 -0.13406508547E+03  0.13786784397E+03  0.47000000000E+01 0.  1.
         11    1    6    6    0    0 -0.21498706102E+02 -0.41435572660E+02 -0.66537512471E+02  0.81279404596E+02  0.00000000000E+00 0. -1.
        -12    1    6    6    0    0  0.74676890580E+02 -0.12627282809E+03 -0.19128978069E+03  0.24106688967E+03  0.00000000000E+00 0.  1.
<mgrwt>
<rscale>  2 0.24185810E+03</rscale>
<asrwt>0</asrwt>
<pdfrwt beam="1">  1       21 0.11293005E-01 0.24205015E+03</pdfrwt>
<pdfrwt beam="2">  1       21 0.12296728E+00 0.24205015E+03</pdfrwt>
<totfact> 0.31641011E+04</totfact>
</mgrwt>
</event>
<event>
12    1  0.1019868E-001  0.3209277E+03  0.7546771E-02  0.1075396E+00
         21   -1    0    0  501  502  0.00000000000E+00  0.00000000000E+00  0.14986353959E+03  0.14986353959E+03  0.00000000000E+00 0.  1.
         21   -1    0    0  502  503 -0.00000000000E+00 -0.00000000000E+00 -0.71515411897E+03  0.71515411897E+03  0.00000000000E+00 0. -1.
         -6    2    1    2    0  503  0.40130103799E+02  0.26781986344E+03 -0.19179159184E+03  0.37257872683E+03  0.16939004841E+03 0.  0.
        -24    2    3    3    0    0  0.51158077454E+02  0.28301530788E+03 -0.16945097502E+03  0.34302012580E+03  0.78957965961E+02 0.  0.
          6    2    1    2  501    0 -0.40130103799E+02 -0.26781986344E+03 -0.37349898754E+03  0.49243893174E+03  0.17221121714E+03 0.  0.
         24    2    5    5    0    0 -0.19020161373E+01 -0.14919780638E+03 -0.30798935317E+03  0.35156245640E+03  0.80468105406E+02 0.  0.
          5    1    5    5  501    0 -0.38228087661E+02 -0.11862205706E+03 -0.65509634369E+02  0.14087647534E+03  0.47000000000E+01 0. -1.
        -11    1    6    6    0    0 -0.85010209775E+01 -0.15405905605E+03 -0.25578021900E+03  0.29871387738E+03  0.00000000000E+00 0.  1.
         12    1    6    6    0    0  0.65990048402E+01  0.48612496675E+01 -0.52209134173E+02  0.52848579018E+02  0.00000000000E+00 0. -1.
         -5    1    3    3    0  503 -0.11027973655E+02 -0.15195444439E+02 -0.22340616821E+02  0.29558601025E+02  0.47000000000E+01 0.  1.
         11    1    4    4    0    0  0.31204734103E+02  0.71902989323E+02 -0.12893491127E+02  0.79435618066E+02  0.00000000000E+00 0. -1.
        -12    1    4    4    0    0  0.19953343351E+02  0.21111231856E+03 -0.15655748389E+03  0.26358450774E+03  0.00000000000E+00 0.  1.
<mgrwt>
<rscale>  2 0.32055082E+03</rscale>
<asrwt>0</asrwt>
<pdfrwt beam="1">  1       21 0.23055929E-01 0.32092773E+03</pdfrwt>
<pdfrwt beam="2">  1       21 0.11002371E+00 0.32092773E+03</pdfrwt>
<totfact> 0.10741736E+04</totfact>
</mgrwt>
</event>
<event>
12    1  0.1019868E-001  0.2249596E+03  0.7546771E-02  0.1130304E+00
         21   -1    0    0  503  502  0.00000000000E+00  0.00000000000E+00  0.38909438796E+03  0.38909438796E+03  0.00000000000E+00 0. -1.
         21   -1    0    0  501  503 -0.00000000000E+00 -0.00000000000E+00 -0.12986458193E+03  0.12986458193E+03  0.00000000000E+00 0. -1.
          6    2    1    2  501    0  0.83925917387E+01  0.14256625537E+03  0.12739777867E+03  0.25821677830E+03  0.17334975575E+03 0.  0.
         24    2    3    3    0    0  0.38838392636E+02  0.10618659108E+03  0.15068875634E+03  0.20516033282E+03  0.81238217647E+02 0.  0.
         -6    2    1    2    0  502 -0.83925917387E+01 -0.14256625537E+03  0.13183202737E+03  0.26074219160E+03  0.17381379195E+03 0.  0.
        -24    2    5    5    0    0 -0.41078516147E+02 -0.15722117036E+03  0.81956381725E+02  0.19915642850E+03  0.80873318276E+02 0.  0.
          5    1    3    3  501    0 -0.30445800897E+02  0.36379664294E+02 -0.23290977672E+02  0.53056445483E+02  0.47000000000E+01 0. -1.
        -13    1    4    4    0    0  0.43272997212E+02  0.28119215775E+02  0.98349285028E+02  0.11106675672E+03  0.00000000000E+00 0.  1.
         14    1    4    4    0    0 -0.44346045759E+01  0.78067375306E+02  0.52339471310E+02  0.94093576093E+02  0.00000000000E+00 0. -1.
         -5    1    5    5    0  502  0.32685924409E+02  0.14654914989E+02  0.49875645642E+02  0.61585763095E+02  0.47000000000E+01 0.  1.
         11    1    6    6    0    0 -0.25064560927E+02 -0.16049869296E+03  0.63272462809E+02  0.17433148656E+03  0.00000000000E+00 0. -1.
        -12    1    6    6    0    0 -0.16013955221E+02  0.32775225999E+01  0.18683918916E+02  0.24824941939E+02  0.00000000000E+00 0.  1.
<mgrwt>
<rscale>  2 0.22486993E+03</rscale>
<asrwt>0</asrwt>
<pdfrwt beam="1">  1       21 0.59860675E-01 0.22495957E+03</pdfrwt>
<pdfrwt beam="2">  1       21 0.19979167E-01 0.22495957E+03</pdfrwt>
<totfact> 0.59355160E+04</totfact>
</mgrwt>
</event>
<event>
12    1  0.1019868E-001  0.1803064E+03  0.7546771E-02  0.1167586E+00
         21   -1    0    0  501  502  0.00000000000E+00  0.00000000000E+00  0.86290430912E+03  0.86290430912E+03  0.00000000000E+00 0. -1.
         21   -1    0    0  502  503 -0.00000000000E+00 -0.00000000000E+00 -0.38892491307E+02  0.38892491307E+02  0.00000000000E+00 0. -1.
         -6    2    1    2    0  503  0.10814617853E+02  0.53740343667E+02  0.33040678800E+03  0.37640276133E+03  0.17177139657E+03 0.  0.
        -24    2    3    3    0    0 -0.39812736235E+02  0.75529373156E+02  0.16043851164E+03  0.19765938171E+03  0.77710842131E+02 0.  0.
          6    2    1    2  501    0 -0.10814617853E+02 -0.53740343667E+02  0.49360502981E+03  0.52539403910E+03  0.17142925762E+03 0.  0.
         24    2    5    5    0    0 -0.16530169836E+02 -0.97062146255E+02  0.24579317059E+03  0.27371516894E+03  0.69364286551E+02 0.  0.
          5    1    5    5  501    0  0.57155519828E+01  0.43321802588E+02  0.24781185922E+03  0.25167887016E+03  0.47000000000E+01 0. -1.
        -11    1    6    6    0    0 -0.17540064348E+02 -0.38242419051E+02  0.34573334931E+02  0.54455963497E+02  0.00000000000E+00 0.  1.
         12    1    6    6    0    0  0.10098945124E+01 -0.58819727204E+02  0.21121983566E+03  0.21925920544E+03  0.00000000000E+00 0. -1.
         -5    1    3    3    0  503  0.50627354088E+02 -0.21789029489E+02  0.16996827636E+03  0.17874337961E+03  0.47000000000E+01 0.  1.
         13    1    4    4    0    0 -0.46964665052E+01  0.62641973460E+02  0.47695450028E+02  0.78872869797E+02  0.00000000000E+00 0. -1.
        -14    1    4    4    0    0 -0.35116269730E+02  0.12887399696E+02  0.11274306161E+03  0.11878651192E+03  0.00000000000E+00 0.  1.
<mgrwt>
<rscale>  2 0.18022485E+03</rscale>
<asrwt>0</asrwt>
<pdfrwt beam="1">  1       21 0.13275449E+00 0.18030639E+03</pdfrwt>
<pdfrwt beam="2">  1       21 0.59834609E-02 0.18030639E+03</pdfrwt>
<totfact> 0.81689723E+04</totfact>
</mgrwt>
</event>
<event>
12    1  0.1019868E-001  0.1960032E+03  0.7546771E-02  0.1154480E+00
         21   -1    0    0  503  502  0.00000000000E+00  0.00000000000E+00  0.14996829473E+02  0.14996829473E+02  0.00000000000E+00 0.  1.
         21   -1    0    0  501  503 -0.00000000000E+00 -0.00000000000E+00 -0.24839569046E+04  0.24839569046E+04  0.00000000000E+00 0. -1.
          6    2    1    2  501    0 -0.88987515980E+02  0.23696213004E+02 -0.12668112763E+04  0.12818845820E+04  0.17302307213E+03 0.  0.
         24    2    3    3    0    0 -0.50171331537E+01  0.62978722921E+02 -0.62661682591E+03  0.63499574689E+03  0.81113876056E+02 0.  0.
         -6    2    1    2    0  502  0.88987515980E+02 -0.23696213004E+02 -0.12021487989E+04  0.12170691521E+04  0.16617851159E+03 0.  0.
        -24    2    5    5    0    0  0.36444057807E+02  0.12737240668E+02 -0.10210558039E+04  0.10249624776E+04  0.80639439060E+02 0.  0.
          5    1    3    3  501    0 -0.83970382826E+02 -0.39282509916E+02 -0.64019445035E+03  0.64688883515E+03  0.47000000000E+01 0. -1.
        -13    1    4    4    0    0 -0.15281317376E+02 -0.24712249601E+01 -0.22818194590E+02  0.27573458577E+02  0.00000000000E+00 0.  1.
         14    1    4    4    0    0  0.10264184222E+02  0.65449947881E+02 -0.60379863132E+03  0.60742228831E+03  0.00000000000E+00 0. -1.
         -5    1    5    5    0  502  0.52543458173E+02 -0.36433453672E+02 -0.18109299500E+03  0.19210667448E+03  0.47000000000E+01 0.  1.
         11    1    6    6    0    0  0.27183570823E+02 -0.20091791075E+02 -0.17589304885E+03  0.17911167250E+03  0.00000000000E+00 0. -1.
        -12    1    6    6    0    0  0.92604869842E+01  0.32829031743E+02 -0.84516275504E+03  0.84585080508E+03  0.00000000000E+00 0.  1.
<mgrwt>
<rscale>  2 0.19448191E+03</rscale>
<asrwt>0</asrwt>
<pdfrwt beam="1">  1       21 0.23072029E-02 0.19600324E+03</pdfrwt>
<pdfrwt beam="2">  1       21 0.38214748E+00 0.19600324E+03</pdfrwt>
<totfact> 0.10892443E+04</totfact>
</mgrwt>
</event>
<event>
12    1  0.1019868E-001  0.1825032E+03  0.7546771E-02  0.1167560E+00
         21   -1    0    0  501  502  0.00000000000E+00  0.00000000000E+00  0.16714728706E+03  0.16714728706E+03  0.00000000000E+00 0. -1.
         21   -1    0    0  502  503 -0.00000000000E+00 -0.00000000000E+00 -0.25008785425E+03  0.25008785425E+03  0.00000000000E+00 0. -1.
         -6    2    1    2    0  503  0.54064754904E+02 -0.84085833870E-01 -0.14315060189E+03  0.22505637812E+03  0.16503112954E+03 0.  0.
        -24    2    3    3    0    0  0.38553195121E+02 -0.18315520325E+02 -0.16744912996E+03  0.19062525619E+03  0.80479624958E+02 0.  0.
          6    2    1    2  501    0 -0.54064754904E+02  0.84085833870E-01  0.60210034693E+02  0.19217876320E+03  0.17431128464E+03 0.  0.
         24    2    5    5    0    0  0.38709179883E+02  0.10151104419E+02  0.39752663543E+02  0.96528661927E+02  0.78333024878E+02 0.  0.
          5    1    5    5  501    0 -0.92773934787E+02 -0.10067018585E+02  0.20457371150E+02  0.95650101273E+02  0.47000000000E+01 0. -1.
        -13    1    6    6    0    0  0.39485591275E+02 -0.95851099999E+01 -0.10977470632E+02  0.42089085444E+02  0.00000000000E+00 0.  1.
         14    1    6    6    0    0 -0.77641139183E+00  0.19736214418E+02  0.50730134175E+02  0.54439576483E+02  0.00000000000E+00 0. -1.
         -5    1    3    3    0  503  0.15511559783E+02  0.18231434491E+02  0.24298528076E+02  0.34431121927E+02  0.47000000000E+01 0.  1.
         11    1    4    4    0    0 -0.16802337553E+02 -0.11454842477E+02 -0.82642373272E+01  0.21950616894E+02  0.00000000000E+00 0. -1.
        -12    1    4    4    0    0  0.55355532674E+02 -0.68606778477E+01 -0.15918489263E+03  0.16867463929E+03  0.00000000000E+00 0.  1.
<mgrwt>
<rscale>  2 0.18025144E+03</rscale>
<asrwt>0</asrwt>
<pdfrwt beam="1">  1       21 0.25714967E-01 0.18250323E+03</pdfrwt>
<pdfrwt beam="2">  1       21 0.38475054E-01 0.18250323E+03</pdfrwt>
<totfact> 0.93853445E+04</totfact>
</mgrwt>
</event>
<event>
12    1  0.1019868E-001  0.1839851E+03  0.7546771E-02  0.1164117E+00
         21   -1    0    0  501  502  0.00000000000E+00  0.00000000000E+00  0.73156398977E+02  0.73156398977E+02  0.00000000000E+00 0. -1.
         21   -1    0    0  502  503 -0.00000000000E+00 -0.00000000000E+00 -0.51042375933E+03  0.51042375933E+03  0.00000000000E+00 0. -1.
         -6    2    1    2    0  503 -0.15929475865E+02  0.61009290668E+02 -0.30925889981E+03  0.35984940297E+03  0.17284283022E+03 0.  0.
        -24    2    3    3    0    0  0.28336324030E+02 -0.11671019981E+02 -0.73956803825E+02  0.10958743029E+03  0.74837397589E+02 0.  0.
          6    2    1    2  501    0  0.15929475865E+02 -0.61009290668E+02 -0.12800846055E+03  0.22373075534E+03  0.17231773897E+03 0.  0.
         24    2    5    5    0    0  0.19649591555E+02  0.31266027958E+02 -0.76409611406E+02  0.11783880607E+03  0.81755027659E+02 0.  0.
          5    1    5    5  501    0 -0.37201156907E+01 -0.92275318626E+02 -0.51598849140E+02  0.10589194927E+03  0.47000000000E+01 0. -1.
        -11    1    6    6    0    0 -0.24529674141E+02  0.27637329615E+02 -0.60206174837E+02  0.70642129004E+02  0.00000000000E+00 0.  1.
         12    1    6    6    0    0  0.44179265696E+02  0.36286983423E+01 -0.16203436569E+02  0.47196677063E+02  0.00000000000E+00 0. -1.
         -5    1    3    3    0  503 -0.44265799894E+02  0.72680310649E+02 -0.23530209599E+03  0.25026197268E+03  0.47000000000E+01 0.  1.
         11    1    4    4    0    0 -0.42652807643E+01 -0.12625996859E+02 -0.75758832912E+02  0.76922098131E+02  0.00000000000E+00 0. -1.
        -12    1    4    4    0    0  0.32601604794E+02  0.95497687760E+00  0.18020290873E+01  0.32665332155E+02  0.00000000000E+00 0.  1.
<mgrwt>
<rscale>  2 0.18386170E+03</rscale>
<asrwt>0</asrwt>
<pdfrwt beam="1">  1       21 0.11254831E-01 0.18398512E+03</pdfrwt>
<pdfrwt beam="2">  1       21 0.78526729E-01 0.18398512E+03</pdfrwt>
<totfact> 0.94695358E+04</totfact>
</mgrwt>
</event>
<event>
12    1  0.1019868E-001  0.1920588E+03  0.7546771E-02  0.1157525E+00
         21   -1    0    0  503  502  0.00000000000E+00  0.00000000000E+00  0.36646974942E+02  0.36646974942E+02  0.00000000000E+00 0.  1.
         21   -1    0    0  501  503 -0.00000000000E+00 -0.00000000000E+00 -0.15194287243E+04  0.15194287243E+04  0.00000000000E+00 0.  1.
          6    2    1    2  501    0 -0.72006114947E+02  0.13390268882E+02 -0.11974801291E+04  0.12121518840E+04  0.17317433574E+03 0.  0.
         24    2    3    3    0    0 -0.90116673061E+02  0.34072681510E+02 -0.11504000643E+04  0.11574309830E+04  0.83331927635E+02 0.  0.
         -6    2    1    2    0  502  0.72006114947E+02 -0.13390268882E+02 -0.28530162029E+03  0.34392381521E+03  0.17754547654E+03 0.  0.
        -24    2    5    5    0    0 -0.85511420259E+01 -0.62441718999E+02 -0.13714538129E+03  0.16823124974E+03  0.74302136415E+02 0.  0.
          5    1    3    3  501    0  0.18110558114E+02 -0.20682412628E+02 -0.47080064780E+02  0.54720901007E+02  0.47000000000E+01 0. -1.
        -13    1    4    4    0    0 -0.22588470110E+02  0.93292373749E+01 -0.76425550622E+03  0.76464616159E+03  0.00000000000E+00 0.  1.
         14    1    4    4    0    0 -0.67528202951E+02  0.24743444135E+02 -0.38614455806E+03  0.39278482143E+03  0.00000000000E+00 0. -1.
         -5    1    5    5    0  502  0.80557256973E+02  0.49051450117E+02 -0.14815623899E+03  0.17569256547E+03  0.47000000000E+01 0.  1.
         11    1    6    6    0    0  0.10382278425E+02 -0.73782750301E+02 -0.95804089961E+02  0.12136766291E+03  0.00000000000E+00 0. -1.
        -12    1    6    6    0    0 -0.18933420451E+02  0.11341031302E+02 -0.41341291334E+02  0.46863586825E+02  0.00000000000E+00 0.  1.
<mgrwt>
<rscale>  2 0.19104238E+03</rscale>
<asrwt>0</asrwt>
<pdfrwt beam="1">  1       21 0.56379969E-02 0.19205878E+03</pdfrwt>
<pdfrwt beam="2">  1       21 0.23375823E+00 0.19205878E+03</pdfrwt>
<totfact> 0.18214895E+04</totfact>
</mgrwt>
</event>
<event>
12    1  0.1019868E-001  0.1816041E+03  0.7546771E-02  0.1167794E+00
         21   -1    0    0  503  502  0.00000000000E+00  0.00000000000E+00  0.78882041492E+02  0.78882041492E+02  0.00000000000E+00 0.  1.
         21   -1    0    0  501  503 -0.00000000000E+00 -0.00000000000E+00 -0.59466788277E+03  0.59466788277E+03  0.00000000000E+00 0.  1.
          6    2    1    2  501    0  0.86105904084E+01 -0.16409505721E+02 -0.45179135253E+03  0.48692452037E+03  0.18065616009E+03 0.  0.
         24    2    3    3    0    0 -0.26306151414E+02  0.55656834449E+02 -0.27285102159E+03  0.29082641156E+03  0.79640598028E+02 0.  0.
         -6    2    1    2    0  502 -0.86105904084E+01  0.16409505721E+02 -0.63994488750E+02  0.18662540389E+03  0.17432823248E+03 0.  0.
        -24    2    5    5    0    0 -0.98900109921E+01  0.25787046398E+02  0.31193662211E+02  0.90852499214E+02  0.80736286587E+02 0.  0.
          5    1    3    3  501    0  0.34916741822E+02 -0.72066340170E+02 -0.17894033093E+03  0.19609810881E+03  0.47000000000E+01 0. -1.
        -11    1    4    4    0    0 -0.54327935397E+02  0.44363388218E+02 -0.17995205058E+03  0.19313822844E+03  0.00000000000E+00 0.  1.
         12    1    4    4    0    0  0.28021783983E+02  0.11293446231E+02 -0.92898971018E+02  0.97688183121E+02  0.00000000000E+00 0. -1.
         -5    1    5    5    0  502  0.12794205837E+01 -0.93775406764E+01 -0.95188150960E+02  0.95772904673E+02  0.47000000000E+01 0.  1.
         13    1    6    6    0    0 -0.11745644042E+02  0.49285231366E+01 -0.26539950625E+02  0.29438401340E+02  0.00000000000E+00 0. -1.
        -14    1    6    6    0    0  0.18556330496E+01  0.20858523261E+02  0.57733612836E+02  0.61414097874E+02  0.00000000000E+00 0.  1.
<mgrwt>
<rscale>  2 0.18000984E+03</rscale>
<asrwt>0</asrwt>
<pdfrwt beam="1">  1       21 0.12135699E-01 0.18160414E+03</pdfrwt>
<pdfrwt beam="2">  1       21 0.91487364E-01 0.18160414E+03</pdfrwt>
<totfact> 0.58472250E+04</totfact>
</mgrwt>
</event>
<event>
12    1  0.1019868E-001  0.1905107E+03  0.7546771E-02  0.1158320E+00
         21   -1    0    0  501  502  0.00000000000E+00  0.00000000000E+00  0.23086799812E+03  0.23086799812E+03  0.00000000000E+00 0.  1.
         21   -1    0    0  502  503 -0.00000000000E+00 -0.00000000000E+00 -0.21498301108E+03  0.21498301108E+03  0.00000000000E+00 0.  1.
         -6    2    1    2    0  503 -0.17543400043E+02  0.76080256889E+02 -0.10880122882E+03  0.21816485247E+03  0.17222723096E+03 0.  0.
        -24    2    3    3    0    0 -0.46171790167E+02 -0.79702202410E+01 -0.85241047088E+02  0.12617985592E+03  0.80373884520E+02 0.  0.
          6    2    1    2  501    0  0.17543400043E+02 -0.76080256889E+02  0.12468621587E+03  0.22768615674E+03  0.17377674519E+03 0.  0.
         24    2    5    5    0    0  0.51298012917E+02 -0.10356912326E+03  0.64590072267E+02  0.15333127700E+03  0.77334039391E+02 0.  0.
          5    1    5    5  501    0 -0.33754612874E+02  0.27488866371E+02  0.60096143604E+02  0.74354879737E+02  0.47000000000E+01 0. -1.
        -11    1    6    6    0    0 -0.57280929518E+01 -0.70493271035E+02  0.47603842253E+02  0.85253962414E+02  0.00000000000E+00 0.  1.
         12    1    6    6    0    0  0.57026105869E+02 -0.33075852224E+02  0.16986230014E+02  0.68077314584E+02  0.00000000000E+00 0. -1.
         -5    1    3    3    0  503  0.28628390123E+02  0.84050477130E+02 -0.23560181737E+02  0.91984996550E+02  0.47000000000E+01 0.  1.
         11    1    4    4    0    0 -0.35353800290E+02  0.14335925557E+02 -0.78230289449E+00  0.38157855736E+02  0.00000000000E+00 0. -1.
        -12    1    4    4    0    0 -0.10817989877E+02 -0.22306145799E+02 -0.84458744193E+02  0.88022000182E+02  0.00000000000E+00 0.  1.
<mgrwt>
<rscale>  2 0.19015665E+03</rscale>
<asrwt>0</asrwt>
<pdfrwt beam="1">  1       21 0.35518154E-01 0.19051072E+03</pdfrwt>
<pdfrwt beam="2">  1       21 0.33074309E-01 0.19051072E+03</pdfrwt>
<totfact> 0.67333188E+04</totfact>
</mgrwt>
</event>
<event>
12    1  0.1019868E-001  0.2500893E+03  0.7546771E-02  0.1113435E+00
         21   -1    0    0  501  502  0.00000000000E+00  0.00000000000E+00  0.35706320035E+03  0.35706320035E+03  0.00000000000E+00 0.  1.
         21   -1    0    0  502  503 -0.00000000000E+00 -0.00000000000E+00 -0.18605085626E+03  0.18605085626E+03  0.00000000000E+00 0. -1.
         -6    2    1    2    0  503  0.53311890158E+02 -0.17119729947E+03  0.15383090178E+03  0.29361303845E+03  0.17433874219E+03 0.  0.
        -24    2    3    3    0    0  0.66382277515E+02 -0.30604683219E+02  0.74672283103E+02  0.13167077812E+03  0.80112361994E+02 0.  0.
          6    2    1    2  501    0 -0.53311890158E+02  0.17119729947E+03  0.17181442312E+02  0.24950101816E+03  0.17264090803E+03 0.  0.
         24    2    5    5    0    0  0.75890771169E+01  0.58546161215E+02  0.56935829168E+02  0.11533057417E+03  0.81081475144E+02 0.  0.
          5    1    5    5  501    0 -0.60900967275E+02  0.11265113825E+03 -0.39754386856E+02  0.13417044399E+03  0.47000000000E+01 0. -1.
        -13    1    6    6    0    0  0.62599228894E+01  0.45602490929E+02  0.78001448415E+02  0.90570413316E+02  0.00000000000E+00 0.  1.
         14    1    6    6    0    0  0.13291542275E+01  0.12943670285E+02 -0.21065619246E+02  0.24760160857E+02  0.00000000000E+00 0. -1.
         -5    1    3    3    0  503 -0.13070387357E+02 -0.14059261625E+03  0.79158618678E+02  0.16194226033E+03  0.47000000000E+01 0.  1.
         13    1    4    4    0    0  0.18676995447E+02 -0.41233586045E+01 -0.16604927793E+02  0.25328953238E+02  0.00000000000E+00 0. -1.
        -14    1    4    4    0    0  0.47705282068E+02 -0.26481324615E+02  0.91277210896E+02  0.10634182488E+03  0.00000000000E+00 0.  1.
<mgrwt>
<rscale>  2 0.24979365E+03</rscale>
<asrwt>0</asrwt>
<pdfrwt beam="1">  1       21 0.54932800E-01 0.25008932E+03</pdfrwt>
<pdfrwt beam="2">  1       21 0.28623209E-01 0.25008932E+03</pdfrwt>
<totfact> 0.35512723E+04</totfact>
</mgrwt>
</event>
<event>
12    1  0.1019868E-001  0.1946494E+03  0.7546771E-02  0.1154540E+00
         21   -1    0    0  501  502  0.00000000000E+00  0.00000000000E+00  0.68346993999E+03  0.68346993999E+03  0.00000000000E+00 0. -1.
         21   -1    0    0  502  503 -0.00000000000E+00 -0.00000000000E+00 -0.19206915035E+03  0.19206915035E+03  0.00000000000E+00 0.  1.
         -6    2    1    2    0  503 -0.31631617153E+02 -0.82988811299E+02 -0.12371905179E+03  0.23063995156E+03  0.17320704800E+03 0.  0.
        -24    2    3    3    0    0 -0.62214946974E+02 -0.22122503006E+02 -0.44622895873E+02  0.12614909345E+03  0.97786942771E+02 0.  0.
          6    2    1    2  501    0  0.31631617153E+02  0.82988811299E+02  0.61511984143E+03  0.64489913878E+03  0.17214754680E+03 0.  0.
         24    2    5    5    0    0 -0.46054861891E+02  0.35266473984E+02  0.25439431720E+03  0.27280022137E+03  0.79616064112E+02 0.  0.
          5    1    5    5  501    0  0.77686479044E+02  0.47722337316E+02  0.36072552424E+03  0.37209891741E+03  0.47000000000E+01 0. -1.
        -13    1    6    6    0    0 -0.27525115827E+02 -0.14558707935E+02  0.17164848097E+03  0.17444996130E+03  0.00000000000E+00 0.  1.
         14    1    6    6    0    0 -0.18529746064E+02  0.49825181918E+02  0.82745836223E+02  0.98350260064E+02  0.00000000000E+00 0. -1.
         -5    1    3    3    0  503  0.30583329821E+02 -0.60866308294E+02 -0.79096155917E+02  0.10449085811E+03  0.47000000000E+01 0.  1.
         13    1    4    4    0    0 -0.40654637773E+02 -0.50562747444E+02  0.49471194607E+01  0.65068156517E+02  0.00000000000E+00 0. -1.
        -14    1    4    4    0    0 -0.21560309201E+02  0.28440244439E+02 -0.49570015334E+02  0.61080936935E+02  0.00000000000E+00 0.  1.
<mgrwt>
<rscale>  2 0.19441341E+03</rscale>
<asrwt>0</asrwt>
<pdfrwt beam="1">  1       21 0.10514922E+00 0.19464939E+03</pdfrwt>
<pdfrwt beam="2">  1       21 0.29549100E-01 0.19464939E+03</pdfrwt>
<totfact> 0.79797963E+03</totfact>
</mgrwt>
</event>
<event>
12    1  0.1019868E-001  0.2440350E+03  0.7546771E-02  0.1117136E+00
         21   -1    0    0  501  502  0.00000000000E+00  0.00000000000E+00  0.44050238358E+03  0.44050238358E+03  0.00000000000E+00 0.  1.
         21   -1    0    0  502  503 -0.00000000000E+00 -0.00000000000E+00 -0.13936216172E+03  0.13936216172E+03  0.00000000000E+00 0. -1.
         -6    2    1    2    0  503 -0.13161087087E+03  0.11018923769E+03  0.20077644205E+03  0.31601310042E+03  0.17346472415E+03 0.  0.
        -24    2    3    3    0    0 -0.15511041185E+03  0.10199979306E+03  0.12981200991E+03  0.24066500119E+03  0.81272918190E+02 0.  0.
          6    2    1    2  501    0  0.13161087087E+03 -0.11018923769E+03  0.10036377981E+03  0.26385144487E+03  0.17344050054E+03 0.  0.
         24    2    5    5    0    0  0.20002531158E+02 -0.14100194608E+02 -0.31722344907E+01  0.83764460469E+02  0.80046892664E+02 0.  0.
          5    1    5    5  501    0  0.11160833971E+03 -0.96089043083E+02  0.10353601430E+03  0.18008698440E+03  0.47000000000E+01 0. -1.
        -13    1    6    6    0    0 -0.27102934436E+01 -0.27422087689E+02  0.30444269365E+02  0.41063001850E+02  0.00000000000E+00 0.  1.
         14    1    6    6    0    0  0.22712824602E+02  0.13321893081E+02 -0.33616503856E+02  0.42701458618E+02  0.00000000000E+00 0. -1.
         -5    1    3    3    0  503  0.23499540982E+02  0.81894446346E+01  0.70964432134E+02  0.75348099232E+02  0.47000000000E+01 0.  1.
         13    1    4    4    0    0 -0.61282109384E+02 -0.86018936846E-01  0.22308942308E+02  0.65216510461E+02  0.00000000000E+00 0. -1.
        -14    1    4    4    0    0 -0.93828302469E+02  0.10208581199E+03  0.10750306760E+03  0.17544849073E+03  0.00000000000E+00 0.  1.
<mgrwt>
<rscale>  2 0.24403073E+03</rscale>
<asrwt>0</asrwt>
<pdfrwt beam="1">  1       21 0.67769596E-01 0.24403504E+03</pdfrwt>
<pdfrwt beam="2">  1       21 0.21440333E-01 0.24403504E+03</pdfrwt>
<totfact> 0.39329579E+04</totfact>
</mgrwt>
</event>
<event>
12    1  0.1019868E-001  0.1969004E+03  0.7546771E-02  0.1152473E+00
         21   -1    0    0  501  502  0.00000000000E+00  0.00000000000E+00  0.59348163999E+02  0.59348163999E+02  0.00000000000E+00 0.  1.
         21   -1    0    0  502  503 -0.00000000000E+00 -0.00000000000E+00 -0.68653262066E+03  0.68653262066E+03  0.00000000000E+00 0.  1.
         -6    2    1    2    0  503  0.94198789584E+02 -0.79871583578E+01 -0.39710332069E+03  0.44304899094E+03  0.17223284939E+03 0.  0.
        -24    2    3    3    0    0  0.13055541158E+03 -0.24819403513E+02 -0.29492734047E+03  0.33319841345E+03  0.79864436932E+02 0.  0.
          6    2    1    2  501    0 -0.94198789584E+02  0.79871583578E+01 -0.23008113597E+03  0.30283179372E+03  0.17272104534E+03 0.  0.
         24    2    5    5    0    0 -0.12193523703E+03 -0.10168034741E+02 -0.22466990909E+03  0.26891582507E+03  0.82870754582E+02 0.  0.
          5    1    5    5  501    0  0.27736447441E+02  0.18155193099E+02 -0.54112268789E+01  0.33915968650E+02  0.47000000000E+01 0. -1.
        -13    1    6    6    0    0 -0.68356826755E+02  0.23357647535E+02 -0.17231766211E+03  0.18684649351E+03  0.00000000000E+00 0.  1.
         14    1    6    6    0    0 -0.53578410271E+02 -0.33525682276E+02 -0.52352246984E+02  0.82069331565E+02  0.00000000000E+00 0. -1.
         -5    1    3    3    0  503 -0.36356621993E+02  0.16832245155E+02 -0.10217598022E+03  0.10985057748E+03  0.47000000000E+01 0.  1.
         11    1    4    4    0    0 -0.26236362054E+01 -0.20306389157E+02 -0.55963579864E+02  0.59591569696E+02  0.00000000000E+00 0. -1.
        -12    1    4    4    0    0  0.13317904778E+03 -0.45130143551E+01 -0.23896376061E+03  0.27360684376E+03  0.00000000000E+00 0.  1.
<mgrwt>
<rscale>  2 0.19679328E+03</rscale>
<asrwt>0</asrwt>
<pdfrwt beam="1">  1       21 0.91304868E-02 0.19690040E+03</pdfrwt>
<pdfrwt beam="2">  1       21 0.10562040E+00 0.19690040E+03</pdfrwt>
<totfact> 0.68470395E+04</totfact>
</mgrwt>
</event>
<event>
12    1  0.1019868E-001  0.1880827E+03  0.7546771E-02  0.1164349E+00
         21   -1    0    0  501  502  0.00000000000E+00  0.00000000000E+00  0.50024329240E+03  0.50024329240E+03  0.00000000000E+00 0.  1.
         21   -1    0    0  502  503 -0.00000000000E+00 -0.00000000000E+00 -0.12750854883E+03  0.12750854883E+03  0.00000000000E+00 0. -1.
         -6    2    1    2    0  503  0.27435868102E+02  0.15515206693E+02 -0.29832876123E+02  0.19043402536E+03  0.18542294631E+03 0.  0.
        -24    2    3    3    0    0 -0.23618841213E+02  0.62029797909E+02 -0.53924387673E+02  0.11713544783E+03  0.80045787290E+02 0.  0.
          6    2    1    2  501    0 -0.27435868102E+02 -0.15515206693E+02  0.40256761969E+03  0.43731781588E+03  0.16790692411E+03 0.  0.
         24    2    5    5    0    0 -0.29851210273E+01  0.51134765774E+02  0.27956112625E+03  0.29521663611E+03  0.79842117382E+02 0.  0.
          5    1    5    5  501    0 -0.24450747074E+02 -0.66649972467E+02  0.12300649344E+03  0.14210117977E+03  0.47000000000E+01 0. -1.
        -11    1    6    6    0    0 -0.36089045062E+02  0.49848213543E+02  0.17264321796E+03  0.18328378072E+03  0.00000000000E+00 0.  1.
         12    1    6    6    0    0  0.33103924035E+02  0.12865522311E+01  0.10691790828E+03  0.11193285539E+03  0.00000000000E+00 0. -1.
         -5    1    3    3    0  503  0.51054709315E+02 -0.46514591216E+02  0.24091511550E+02  0.73298577530E+02  0.47000000000E+01 0.  1.
         13    1    4    4    0    0  0.29584679601E+02  0.28592962157E+02 -0.21772938294E+02  0.46549668032E+02  0.00000000000E+00 0. -1.
        -14    1    4    4    0    0 -0.53203520814E+02  0.33436835752E+02 -0.32151449379E+02  0.70585779795E+02  0.00000000000E+00 0.  1.
<mgrwt>
<rscale>  2 0.18361530E+03</rscale>
<asrwt>0</asrwt>
<pdfrwt beam="1">  1       21 0.76960505E-01 0.18808274E+03</pdfrwt>
<pdfrwt beam="2">  1       21 0.19616700E-01 0.18808274E+03</pdfrwt>
<totfact> 0.36000666E+04</totfact>
</mgrwt>
</event>
<event>
12    1  0.1019868E-001  0.2418301E+03  0.7546771E-02  0.1118759E+00
         21   -1    0    0  501  502  0.00000000000E+00  0.00000000000E+00  0.42127576211E+03  0.42127576211E+03  0.00000000000E+00 0.  1.
         21   -1    0    0  502  503 -0.00000000000E+00 -0.00000000000E+00 -0.15224524537E+03  0.15224524537E+03  0.00000000000E+00 0.  1.
         -6    2    1    2    0  503 -0.44091835349E+02 -0.16331898525E+03  0.47690572331E+02  0.24648774075E+03  0.17281387318E+03 0.  0.
        -24    2    3    3    0    0 -0.46276880739E+02 -0.16546583417E+02  0.21199702516E+02  0.97253801759E+02  0.81200587781E+02 0.  0.
          6    2    1    2  501    0  0.44091835349E+02  0.16331898525E+03  0.22133994441E+03  0.32703326673E+03  0.17129566740E+03 0.  0.
         24    2    5    5    0    0  0.57840459582E+02  0.15404339903E+03  0.23970425502E+03  0.30184598677E+03  0.81104761279E+02 0.  0.
          5    1    5    5  501    0 -0.13748624233E+02  0.92755862181E+01 -0.18364310607E+02  0.25187279966E+02  0.47000000000E+01 0. -1.
        -11    1    6    6    0    0  0.61430093882E+02  0.54450607866E+02  0.12889208266E+03  0.15281261108E+03  0.00000000000E+00 0.  1.
         12    1    6    6    0    0 -0.35896342997E+01  0.99592791167E+02  0.11081217236E+03  0.14903337569E+03  0.00000000000E+00 0. -1.
         -5    1    3    3    0  503  0.21850453905E+01 -0.14677240183E+03  0.26490869815E+02  0.14923393899E+03  0.47000000000E+01 0.  1.
         11    1    4    4    0    0  0.16748023495E+02  0.10167030890E+02  0.21110238859E+02  0.28801163046E+02  0.00000000000E+00 0. -1.
        -12    1    4    4    0    0 -0.63024904234E+02 -0.26713614307E+02  0.89463656884E-01  0.68452638713E+02  0.00000000000E+00 0.  1.
<mgrwt>
<rscale>  2 0.24155904E+03</rscale>
<asrwt>0</asrwt>
<pdfrwt beam="1">  1       21 0.64811655E-01 0.24183014E+03</pdfrwt>
<pdfrwt beam="2">  1       21 0.23422346E-01 0.24183014E+03</pdfrwt>
<totfact> 0.36711980E+04</totfact>
</mgrwt>
</event>
<event>
12    1  0.1019868E-001  0.1897021E+03  0.7546771E-02  0.1159566E+00
         21   -1    0    0  503  502  0.00000000000E+00  0.00000000000E+00  0.22436881708E+03  0.22436881708E+03  0.00000000000E+00 0.  1.
         21   -1    0    0  501  503 -0.00000000000E+00 -0.00000000000E+00 -0.20373843811E+03  0.20373843811E+03  0.00000000000E+00 0.  1.
          6    2    1    2  501    0  0.25124457296E+02 -0.73717277172E+02 -0.91940193219E+02  0.20751934943E+03  0.16895504121E+03 0.  0.
         24    2    3    3    0    0  0.30324138124E+02 -0.24220443089E+02 -0.12014950400E+03  0.15011875292E+03  0.81200698597E+02 0.  0.
         -6    2    1    2    0  502 -0.25124457296E+02  0.73717277172E+02  0.11257057219E+03  0.22058790575E+03  0.17297807703E+03 0.  0.
        -24    2    5    5    0    0 -0.68546227043E+01  0.21717353000E+01 -0.22533457607E+02  0.66549792664E+02  0.62204629291E+02 0.  0.
          5    1    3    3  501    0 -0.51996808276E+01 -0.49496834082E+02  0.28209310777E+02  0.57400596507E+02  0.47000000000E+01 0. -1.
        -13    1    4    4    0    0  0.16308901035E+02 -0.21587344993E+02  0.20097822443E+01  0.27129927046E+02  0.00000000000E+00 0.  1.
         14    1    4    4    0    0  0.14015237089E+02 -0.26330980958E+01 -0.12215928624E+03  0.12298882588E+03  0.00000000000E+00 0. -1.
         -5    1    5    5    0  502 -0.18269834592E+02  0.71545541872E+02  0.13510402979E+03  0.15403811309E+03  0.47000000000E+01 0.  1.
         11    1    6    6    0    0  0.71099003770E+01 -0.26761172273E+02 -0.20322849348E+02  0.34347186645E+02  0.00000000000E+00 0. -1.
        -12    1    6    6    0    0 -0.13964523081E+02  0.28932907573E+02 -0.22106082585E+01  0.32202606019E+02  0.00000000000E+00 0.  1.
<mgrwt>
<rscale>  2 0.18878015E+03</rscale>
<asrwt>0</asrwt>
<pdfrwt beam="1">  1       21 0.34518280E-01 0.18970211E+03</pdfrwt>
<pdfrwt beam="2">  1       21 0.31344375E-01 0.18970211E+03</pdfrwt>
<totfact> 0.79215582E+04</totfact>
</mgrwt>
</event>
<event>
12    1  0.1019868E-001  0.2048376E+03  0.7546771E-02  0.1145911E+00
         21   -1    0    0  501  502  0.00000000000E+00  0.00000000000E+00  0.45221356779E+03  0.45221356779E+03  0.00000000000E+00 0. -1.
         21   -1    0    0  502  503 -0.00000000000E+00 -0.00000000000E+00 -0.11971838382E+03  0.11971838382E+03  0.00000000000E+00 0. -1.
         -6    2    1    2    0  503  0.38781069254E+02  0.10135529542E+03  0.29266286398E+02  0.20599998528E+03  0.17263432791E+03 0.  0.
        -24    2    3    3    0    0 -0.17593323583E+02  0.13691976791E+02 -0.41094100838E+02  0.80160390188E+02  0.65115034886E+02 0.  0.
          6    2    1    2  501    0 -0.38781069254E+02 -0.10135529542E+03  0.30322889757E+03  0.36593196633E+03  0.17372844447E+03 0.  0.
         24    2    5    5    0    0  0.33889528186E+01 -0.27044444461E+02  0.44737399127E+02  0.93644695051E+02  0.77620918914E+02 0.  0.
          5    1    5    5  501    0 -0.42170022072E+02 -0.74310850963E+02  0.25849149844E+03  0.27228727128E+03  0.47000000000E+01 0. -1.
        -13    1    6    6    0    0 -0.21073392741E+02  0.15976162500E+02  0.33879441764E+02  0.42978392525E+02  0.00000000000E+00 0.  1.
         14    1    6    6    0    0  0.24462345559E+02 -0.43020606960E+02  0.10857957363E+02  0.50666302526E+02  0.00000000000E+00 0. -1.
         -5    1    3    3    0  503  0.56374392837E+02  0.87663318633E+02  0.70360387236E+02  0.12583959509E+03  0.47000000000E+01 0.  1.
         13    1    4    4    0    0 -0.15919775187E+02 -0.10456032138E+02 -0.50668223384E+02  0.54129813513E+02  0.00000000000E+00 0. -1.
        -14    1    4    4    0    0 -0.16735483958E+01  0.24148008929E+02  0.95741225461E+01  0.26030576675E+02  0.00000000000E+00 0.  1.
<mgrwt>
<rscale>  2 0.20460542E+03</rscale>
<asrwt>0</asrwt>
<pdfrwt beam="1">  1       21 0.69571317E-01 0.20483759E+03</pdfrwt>
<pdfrwt beam="2">  1       21 0.18418213E-01 0.20483759E+03</pdfrwt>
<totfact> 0.50233314E+04</totfact>
</mgrwt>
</event>
<event>
12    1  0.1019868E-001  0.1871526E+03  0.7546771E-02  0.1161195E+00
         21   -1    0    0  501  502  0.00000000000E+00  0.00000000000E+00  0.17568693924E+04  0.17568693924E+04  0.00000000000E+00 0.  1.
         21   -1    0    0  502  503 -0.00000000000E+00 -0.00000000000E+00 -0.34140235794E+02  0.34140235794E+02  0.00000000000E+00 0.  1.
         -6    2    1    2    0  503 -0.64925975313E+02 -0.43044112096E+02  0.28325852875E+03  0.33950182895E+03  0.17017026738E+03 0.  0.
        -24    2    3    3    0    0  0.31774268169E+02 -0.17510580773E+02  0.14333301848E+03  0.16744330189E+03  0.78591860936E+02 0.  0.
          6    2    1    2  501    0  0.64925975313E+02  0.43044112096E+02  0.14394706278E+04  0.14515077992E+04  0.16950228591E+03 0.  0.
         24    2    5    5    0    0 -0.15412666895E+02  0.55059979192E+02  0.96694315088E+03  0.97202580271E+03  0.81153881571E+02 0.  0.
          5    1    5    5  501    0  0.80338642208E+02 -0.12015867096E+02  0.47252747694E+03  0.47948199649E+03  0.47000000000E+01 0. -1.
        -11    1    6    6    0    0 -0.14666650600E+02  0.74806310834E+02  0.64746639278E+03  0.65193851287E+03  0.00000000000E+00 0.  1.
         12    1    6    6    0    0 -0.74601629525E+00 -0.19746331642E+02  0.31947675810E+03  0.32008728984E+03  0.00000000000E+00 0. -1.
         -5    1    3    3    0  503 -0.96700243482E+02 -0.25533531323E+02  0.13992551027E+03  0.17205852706E+03  0.47000000000E+01 0.  1.
         11    1    4    4    0    0  0.11056004081E+02  0.20632925807E+02  0.11067328372E+03  0.11312174231E+03  0.00000000000E+00 0. -1.
        -12    1    4    4    0    0  0.20718264088E+02 -0.38143506580E+02  0.32659734760E+02  0.54321559584E+02  0.00000000000E+00 0.  1.
<mgrwt>
<rscale>  2 0.18700063E+03</rscale>
<asrwt>0</asrwt>
<pdfrwt beam="1">  1       21 0.27028753E+00 0.18715261E+03</pdfrwt>
<pdfrwt beam="2">  1       21 0.52523454E-02 0.18715261E+03</pdfrwt>
<totfact> 0.12597737E+04</totfact>
</mgrwt>
</event>
<event>
12    1  0.1019868E-001  0.2449590E+03  0.7546771E-02  0.1116811E+00
         21   -1    0    0  501  502  0.00000000000E+00  0.00000000000E+00  0.32417848199E+03  0.32417848199E+03  0.00000000000E+00 0. -1.
         21   -1    0    0  502  503 -0.00000000000E+00 -0.00000000000E+00 -0.72830361411E+03  0.72830361411E+03  0.00000000000E+00 0.  1.
         -6    2    1    2    0  503 -0.12964460563E+03 -0.11499075617E+03 -0.65725467302E+03  0.70141899708E+03  0.17313089410E+03 0.  0.
        -24    2    3    3    0    0 -0.10204261543E+03 -0.14207601962E+02 -0.45581137581E+03  0.47443748677E+03  0.81929037682E+02 0.  0.
          6    2    1    2  501    0  0.12964460563E+03  0.11499075617E+03  0.25312954089E+03  0.35106309902E+03  0.17070482490E+03 0.  0.
         24    2    5    5    0    0  0.54143529360E+02  0.35919653963E+01  0.15820375323E+03  0.18631147303E+03  0.82092103503E+02 0.  0.
          5    1    5    5  501    0  0.75501076272E+02  0.11139879077E+03  0.94925787663E+02  0.16475162599E+03  0.47000000000E+01 0. -1.
        -13    1    6    6    0    0 -0.69928425552E+01 -0.46319284800E+01 -0.63856342011E+01  0.10541865708E+02  0.00000000000E+00 0.  1.
         14    1    6    6    0    0  0.61136371915E+02  0.82238938762E+01  0.16458938743E+03  0.17576960732E+03  0.00000000000E+00 0. -1.
         -5    1    3    3    0  503 -0.27601990206E+02 -0.10078315421E+03 -0.20144329721E+03  0.22698151031E+03  0.47000000000E+01 0.  1.
         11    1    4    4    0    0  0.13015843285E+02  0.54130105942E+00 -0.23896407061E+02  0.27216602537E+02  0.00000000000E+00 0. -1.
        -12    1    4    4    0    0 -0.11505845871E+03 -0.14748903022E+02 -0.43191496875E+03  0.44722088423E+03  0.00000000000E+00 0.  1.
<mgrwt>
<rscale>  2 0.24453071E+03</rscale>
<asrwt>0</asrwt>
<pdfrwt beam="1">  1       21 0.49873613E-01 0.24495898E+03</pdfrwt>
<pdfrwt beam="2">  1       21 0.11204671E+00 0.24495898E+03</pdfrwt>
<totfact> 0.22923654E+03</totfact>
</mgrwt>
</event>
<event>
12    1  0.1019868E-001  0.1845906E+03  0.7546771E-02  0.1163848E+00
         21   -1    0    0  501  502  0.00000000000E+00  0.00000000000E+00  0.36521478966E+03  0.36521478966E+03  0.00000000000E+00 0. -1.
         21   -1    0    0  502  503 -0.00000000000E+00 -0.00000000000E+00 -0.11648777129E+03  0.11648777129E+03  0.00000000000E+00 0. -1.
         -6    2    1    2    0  503  0.47490144416E+02 -0.37747122521E+02  0.15331732680E+02  0.18522618500E+03  0.17433736980E+03 0.  0.
        -24    2    3    3    0    0  0.97104915004E+02 -0.33340044132E+02 -0.68200354655E+01  0.13051020349E+03  0.80283729807E+02 0.  0.
          6    2    1    2  501    0 -0.47490144416E+02  0.37747122521E+02  0.23339528569E+03  0.29647637595E+03  0.17246658528E+03 0.  0.
         24    2    5    5    0    0 -0.53945116772E+02 -0.39502653074E+02  0.15343232372E+03  0.18500727806E+03  0.78839582374E+02 0.  0.
          5    1    5    5  501    0  0.64549723557E+01  0.77249775595E+02  0.79962961972E+02  0.11146909789E+03  0.47000000000E+01 0. -1.
        -13    1    6    6    0    0 -0.52693230805E+02 -0.31639353995E+02  0.44735007830E+02  0.76018722822E+02  0.00000000000E+00 0.  1.
         14    1    6    6    0    0 -0.12518859669E+01 -0.78632990791E+01  0.10869731589E+03  0.10898855523E+03  0.00000000000E+00 0. -1.
         -5    1    3    3    0  503 -0.49614770587E+02 -0.44070783893E+01  0.22151768146E+02  0.54715981508E+02  0.47000000000E+01 0.  1.
         13    1    4    4    0    0  0.59758763279E+02 -0.54307251553E+02  0.15485706358E+02  0.82220401734E+02  0.00000000000E+00 0. -1.
        -14    1    4    4    0    0  0.37346151724E+02  0.20967207422E+02 -0.22305741824E+02  0.48289801760E+02  0.00000000000E+00 0.  1.
<mgrwt>
<rscale>  2 0.18414752E+03</rscale>
<asrwt>0</asrwt>
<pdfrwt beam="1">  1       21 0.56186890E-01 0.18459057E+03</pdfrwt>
<pdfrwt beam="2">  1       21 0.17921196E-01 0.18459057E+03</pdfrwt>
<totfact> 0.84654076E+04</totfact>
</mgrwt>
</event>
<event>
12    1  0.1019868E-001  0.1776830E+03  0.7546771E-02  0.1173235E+00
         21   -1    0    0  501  502  0.00000000000E+00  0.00000000000E+00  0.35344285196E+03  0.35344285196E+03  0.00000000000E+00 0.  1.
         21   -1    0    0  502  503 -0.00000000000E+00 -0.00000000000E+00 -0.89553363132E+02  0.89553363132E+02  0.00000000000E+00 0.  1.
         -6    2    1    2    0  503 -0.41886548327E+02  0.16711223083E+02  0.19532242760E+03  0.26404941429E+03  0.17186475658E+03 0.  0.
        -24    2    3    3    0    0  0.34460037506E+02 -0.24273299023E+02  0.11047499368E+03  0.14268340066E+03  0.79857005734E+02 0.  0.
          6    2    1    2  501    0  0.41886548327E+02 -0.16711223083E+02  0.68567061228E+02  0.17894680081E+03  0.15901813647E+03 0.  0.
         24    2    5    5    0    0  0.55757369471E+02  0.41195790206E+02  0.37665601766E+02  0.11169643230E+03  0.79065909541E+02 0.  0.
          5    1    5    5  501    0 -0.13870821144E+02 -0.57907013289E+02  0.30901459463E+02  0.67250368506E+02  0.47000000000E+01 0. -1.
        -13    1    6    6    0    0  0.58384059410E+02 -0.33202530815E+01  0.10308018424E+02  0.59379943732E+02  0.00000000000E+00 0.  1.
         14    1    6    6    0    0 -0.26266899394E+01  0.44516043288E+02  0.27357583342E+02  0.52316488570E+02  0.00000000000E+00 0. -1.
         -5    1    3    3    0  503 -0.76346585833E+02  0.40984522106E+02  0.84847433923E+02  0.12136601363E+03  0.47000000000E+01 0.  1.
         13    1    4    4    0    0  0.66373027420E+01  0.66358502496E+01  0.99134599893E+02  0.99577895098E+02  0.00000000000E+00 0. -1.
        -14    1    4    4    0    0  0.27822734764E+02 -0.30909149273E+02  0.11340393788E+02  0.43105505562E+02  0.00000000000E+00 0.  1.
<mgrwt>
<rscale>  2 0.17450002E+03</rscale>
<asrwt>0</asrwt>
<pdfrwt beam="1">  1       21 0.54375823E-01 0.17768298E+03</pdfrwt>
<pdfrwt beam="2">  1       21 0.13777441E-01 0.17768298E+03</pdfrwt>
<totfact> 0.14698648E+05</totfact>
</mgrwt>
</event>
<event>
12    1  0.1019868E-001  0.2622942E+03  0.7546771E-02  0.1105830E+00
         21   -1    0    0  501  502  0.00000000000E+00  0.00000000000E+00  0.20935137075E+03  0.20935137075E+03  0.00000000000E+00 0. -1.
         21   -1    0    0  502  503 -0.00000000000E+00 -0.00000000000E+00 -0.35960193157E+03  0.35960193157E+03  0.00000000000E+00 0.  1.
         -6    2    1    2    0  503  0.16479392302E+03  0.10809246295E+03 -0.15931484937E+03  0.30688672701E+03  0.17308155411E+03 0.  0.
        -24    2    3    3    0    0  0.16827112242E+03  0.13681374808E+03 -0.13205739792E+03  0.26686096288E+03  0.82112391614E+02 0.  0.
          6    2    1    2  501    0 -0.16479392302E+03 -0.10809246295E+03  0.90642885477E+01  0.26206657532E+03  0.17249843756E+03 0.  0.
         24    2    5    5    0    0 -0.10795210449E+03 -0.12720834414E+03  0.49227157156E+02  0.18973708436E+03  0.75770894790E+02 0.  0.
          5    1    5    5  501    0 -0.56841818530E+02  0.19115881185E+02 -0.40162868608E+02  0.72329490957E+02  0.47000000000E+01 0. -1.
        -11    1    6    6    0    0 -0.72723067595E+02 -0.37464383464E+02  0.71554972105E+00  0.81809147412E+02  0.00000000000E+00 0.  1.
         12    1    6    6    0    0 -0.35229036898E+02 -0.89743960674E+02  0.48511607435E+02  0.10792793695E+03  0.00000000000E+00 0. -1.
         -5    1    3    3    0  503 -0.34771993973E+01 -0.28721285128E+02 -0.27257451444E+02  0.40025764131E+02  0.47000000000E+01 0.  1.
         13    1    4    4    0    0  0.12243801994E+03  0.90678508141E+02 -0.46310788429E+02  0.15924305225E+03  0.00000000000E+00 0. -1.
        -14    1    4    4    0    0  0.45833102479E+02  0.46135239939E+02 -0.85746609496E+02  0.10761791062E+03  0.00000000000E+00 0.  1.
<mgrwt>
<rscale>  2 0.26219803E+03</rscale>
<asrwt>0</asrwt>
<pdfrwt beam="1">  1       21 0.32207903E-01 0.26229419E+03</pdfrwt>
<pdfrwt beam="2">  1       21 0.55323374E-01 0.26229419E+03</pdfrwt>
<totfact> 0.27596780E+04</totfact>
</mgrwt>
</event>
<event>
12    1  0.1019868E-001  0.2322141E+03  0.7546771E-02  0.1126068E+00
         21   -1    0    0  501  502  0.00000000000E+00  0.00000000000E+00  0.14759455379E+04  0.14759455379E+04  0.00000000000E+00 0. -1.
         21   -1    0    0  502  503 -0.00000000000E+00 -0.00000000000E+00 -0.70121043494E+02  0.70121043494E+02  0.00000000000E+00 0.  1.
         -6    2    1    2    0  503 -0.14443243051E+03  0.23238042239E+02  0.15674163126E+03  0.27558187353E+03  0.17313779615E+03 0.  0.
        -24    2    3    3    0    0 -0.96428518769E+02  0.82119034445E+02  0.96593498289E+02  0.17857035521E+03  0.80716000883E+02 0.  0.
          6    2    1    2  501    0  0.14443243051E+03 -0.23238042239E+02  0.12490828631E+04  0.12704847078E+04  0.18034040127E+03 0.  0.
         24    2    5    5    0    0  0.69772540916E+02 -0.64104083481E+02  0.99141020211E+03  0.99907832863E+03  0.79282891705E+02 0.  0.
          5    1    5    5  501    0  0.74659889597E+02  0.40866041243E+02  0.25767266100E+03  0.27140637920E+03  0.47000000000E+01 0. -1.
        -13    1    6    6    0    0  0.19104528735E+02 -0.62405679595E+02  0.72169163578E+03  0.72463664620E+03  0.00000000000E+00 0.  1.
         14    1    6    6    0    0  0.50668012180E+02 -0.16984038867E+01  0.26971856633E+03  0.27444168243E+03  0.00000000000E+00 0. -1.
         -5    1    3    3    0  503 -0.48003911744E+02 -0.58880992207E+02  0.60148132975E+02  0.97011518318E+02  0.47000000000E+01 0.  1.
         11    1    4    4    0    0 -0.10141762977E+03  0.46913470727E+02  0.87346696200E+02  0.14183037298E+03  0.00000000000E+00 0. -1.
        -12    1    4    4    0    0  0.49891109994E+01  0.35205563718E+02  0.92468020886E+01  0.36739982228E+02  0.00000000000E+00 0.  1.
<mgrwt>
<rscale>  2 0.23081446E+03</rscale>
<asrwt>0</asrwt>
<pdfrwt beam="1">  1       21 0.22706852E+00 0.23221411E+03</pdfrwt>
<pdfrwt beam="2">  1       21 0.10787854E-01 0.23221411E+03</pdfrwt>
<totfact> 0.62385321E+03</totfact>
</mgrwt>
</event>
<event>
12    1  0.1019868E-001  0.2740642E+03  0.7546771E-02  0.1099044E+00
         21   -1    0    0  503  502  0.00000000000E+00  0.00000000000E+00  0.26623926777E+03  0.26623926777E+03  0.00000000000E+00 0. -1.
         21   -1    0    0  501  503 -0.00000000000E+00 -0.00000000000E+00 -0.37414717632E+03  0.37414717632E+03  0.00000000000E+00 0.  1.
          6    2    1    2  501    0 -0.16664904670E+03  0.13056585006E+03 -0.21321980370E+03  0.34723751662E+03  0.17404557531E+03 0.  0.
         24    2    3    3    0    0 -0.10380567315E+03  0.59641005209E+02 -0.20853162451E+03  0.25224439980E+03  0.76217658938E+02 0.  0.
         -6    2    1    2    0  502  0.16664904670E+03 -0.13056585006E+03  0.10531189516E+03  0.29314892747E+03  0.17328113702E+03 0.  0.
        -24    2    5    5    0    0  0.14289098883E+03 -0.31490191191E+02  0.38763920858E+02  0.17136570048E+03  0.80337381761E+02 0.  0.
          5    1    3    3  501    0 -0.62843373556E+02  0.70924844853E+02 -0.46881791993E+01  0.94993116811E+02  0.47000000000E+01 0. -1.
        -11    1    4    4    0    0 -0.76529436814E+02  0.77601187669E+02 -0.15363057630E+03  0.18836414999E+03  0.00000000000E+00 0.  1.
         12    1    4    4    0    0 -0.27276236333E+02 -0.17960182460E+02 -0.54901048208E+02  0.63880249818E+02  0.00000000000E+00 0. -1.
         -5    1    5    5    0  502  0.23758057870E+02 -0.99075658871E+02  0.66547974304E+02  0.12178322700E+03  0.47000000000E+01 0.  1.
         13    1    6    6    0    0 -0.72236090174E+01 -0.13609330645E+02  0.68316462189E+01  0.16854251627E+02  0.00000000000E+00 0. -1.
        -14    1    6    6    0    0  0.15011459785E+03 -0.17880860546E+02  0.31932274639E+02  0.15451144885E+03  0.00000000000E+00 0.  1.
<mgrwt>
<rscale>  2 0.27394296E+03</rscale>
<asrwt>0</asrwt>
<pdfrwt beam="1">  1       21 0.40959887E-01 0.27406424E+03</pdfrwt>
<pdfrwt beam="2">  1       21 0.57561104E-01 0.27406424E+03</pdfrwt>
<totfact> 0.15552252E+04</totfact>
</mgrwt>
</event>
<event>
12    1  0.1019868E-001  0.2026578E+03  0.7546771E-02  0.1147802E+00
         21   -1    0    0  501  502  0.00000000000E+00  0.00000000000E+00  0.56420278416E+03  0.56420278416E+03  0.00000000000E+00 0. -1.
         21   -1    0    0  502  503 -0.00000000000E+00 -0.00000000000E+00 -0.10144941085E+03  0.10144941085E+03  0.00000000000E+00 0.  1.
         -6    2    1    2    0  503  0.85711209984E+02 -0.61038135253E+02  0.52413937843E+02  0.20799662821E+03  0.17159053294E+03 0.  0.
        -24    2    3    3    0    0 -0.21624548549E+02 -0.29355661285E+02  0.26328792159E+02  0.92986763233E+02  0.81387694958E+02 0.  0.
          6    2    1    2  501    0 -0.85711209984E+02  0.61038135253E+02  0.41033943546E+03  0.45765556681E+03  0.17319959602E+03 0.  0.
         24    2    5    5    0    0  0.13260045349E+02  0.30528825521E+02  0.26755610202E+03  0.28120359694E+03  0.79883397590E+02 0.  0.
          5    1    5    5  501    0 -0.98971255333E+02  0.30509309732E+02  0.14278333344E+03  0.17645196987E+03  0.47000000000E+01 0. -1.
        -13    1    6    6    0    0  0.32839488341E+02  0.86780083618E+01  0.43283462930E+02  0.55019978070E+02  0.00000000000E+00 0.  1.
         14    1    6    6    0    0 -0.19579442992E+02  0.21850817160E+02  0.22427263909E+03  0.22618361887E+03  0.00000000000E+00 0. -1.
         -5    1    3    3    0  503  0.10733575853E+03 -0.31682473968E+02  0.26085145684E+02  0.11500986498E+03  0.47000000000E+01 0.  1.
         13    1    4    4    0    0 -0.23682167178E+02 -0.30428936926E+01  0.51342905532E+02  0.56623300793E+02  0.00000000000E+00 0. -1.
        -14    1    4    4    0    0  0.20576186290E+01 -0.26312767592E+02 -0.25014113373E+02  0.36363462440E+02  0.00000000000E+00 0.  1.
<mgrwt>
<rscale>  2 0.20231352E+03</rscale>
<asrwt>0</asrwt>
<pdfrwt beam="1">  1       21 0.86800427E-01 0.20265775E+03</pdfrwt>
<pdfrwt beam="2">  1       21 0.15607602E-01 0.20265775E+03</pdfrwt>
<totfact> 0.41451715E+04</totfact>
</mgrwt>
</event>
<event>
12    1  0.1019868E-001  0.3020861E+03  0.7546771E-02  0.1084319E+00
         21   -1    0    0  501  502  0.00000000000E+00  0.00000000000E+00  0.12826811417E+03  0.12826811417E+03  0.00000000000E+00 0.  1.
         21   -1    0    0  502  503 -0.00000000000E+00 -0.00000000000E+00 -0.72882833056E+03  0.72882833056E+03  0.00000000000E+00 0.  1.
         -6    2    1    2    0  503 -0.80366645283E+02  0.23276311942E+03 -0.37100681754E+03  0.47843709077E+03  0.17498149537E+03 0.  0.
        -24    2    3    3    0    0 -0.60351912918E+02  0.11191303506E+03 -0.10090199321E+03  0.18181605556E+03  0.81908394045E+02 0.  0.
          6    2    1    2  501    0  0.80366645283E+02 -0.23276311942E+03 -0.22955339885E+03  0.37865935396E+03  0.17335130799E+03 0.  0.
         24    2    5    5    0    0 -0.24582949017E+02 -0.12783067934E+03 -0.10441505279E+03  0.18447663079E+03  0.78639176584E+02 0.  0.
          5    1    5    5  501    0  0.10494959430E+03 -0.10493244008E+03 -0.12513834606E+03  0.19418272318E+03  0.47000000000E+01 0. -1.
        -13    1    6    6    0    0 -0.51064930069E+01 -0.70750914445E+02 -0.88682676656E+01  0.71487162043E+02  0.00000000000E+00 0.  1.
         14    1    6    6    0    0 -0.19476456010E+02 -0.57079764898E+02 -0.95546785123E+02  0.11298946874E+03  0.00000000000E+00 0. -1.
         -5    1    3    3    0  503 -0.20014732365E+02  0.12085008436E+03 -0.27010482433E+03  0.29662103521E+03  0.47000000000E+01 0.  1.
         11    1    4    4    0    0 -0.71367586639E+02  0.11816694549E+03 -0.96395488475E+02  0.16837116626E+03  0.00000000000E+00 0. -1.
        -12    1    4    4    0    0  0.11015673721E+02 -0.62539104327E+01 -0.45065047344E+01  0.13444889295E+02  0.00000000000E+00 0.  1.
<mgrwt>
<rscale>  2 0.30185045E+03</rscale>
<asrwt>0</asrwt>
<pdfrwt beam="1">  1       21 0.19733557E-01 0.30208607E+03</pdfrwt>
<pdfrwt beam="2">  1       21 0.11212743E+00 0.30208607E+03</pdfrwt>
<totfact> 0.13894265E+04</totfact>
</mgrwt>
</event>
<event>
12    1  0.1019868E-001  0.1895158E+03  0.7546771E-02  0.1159096E+00
         21   -1    0    0  501  502  0.00000000000E+00  0.00000000000E+00  0.13134789777E+03  0.13134789777E+03  0.00000000000E+00 0. -1.
         21   -1    0    0  502  503 -0.00000000000E+00 -0.00000000000E+00 -0.29326946794E+03  0.29326946794E+03  0.00000000000E+00 0. -1.
         -6    2    1    2    0  503 -0.12614588282E+02  0.80972696554E+02 -0.24216294452E+02  0.19105669683E+03  0.17088161710E+03 0.  0.
        -24    2    3    3    0    0  0.41144469586E+02  0.96646699964E+02 -0.71424152727E+01  0.13232580176E+03  0.80160162942E+02 0.  0.
          6    2    1    2  501    0  0.12614588282E+02 -0.80972696554E+02 -0.13770527572E+03  0.23356066888E+03  0.16991803219E+03 0.  0.
         24    2    5    5    0    0 -0.44846143232E+02 -0.91129897119E+02 -0.92128815664E+02  0.15937031842E+03  0.81211729495E+02 0.  0.
          5    1    5    5  501    0  0.57460731514E+02  0.10157200565E+02 -0.45576460054E+02  0.74190350455E+02  0.47000000000E+01 0. -1.
        -11    1    6    6    0    0 -0.35436524825E+02 -0.26804084389E+01 -0.48964434168E+02  0.60501633816E+02  0.00000000000E+00 0.  1.
         12    1    6    6    0    0 -0.94096184076E+01 -0.88449488680E+02 -0.43164381496E+02  0.98868684609E+02  0.00000000000E+00 0. -1.
         -5    1    3    3    0  503 -0.53759057868E+02 -0.15674003410E+02 -0.17073879179E+02  0.58730895073E+02  0.47000000000E+01 0.  1.
         11    1    4    4    0    0 -0.48881021464E+01  0.50980995088E+01 -0.27035183806E+02  0.27942536116E+02  0.00000000000E+00 0. -1.
        -12    1    4    4    0    0  0.46032571733E+02  0.91548600455E+02  0.19892768533E+02  0.10438326564E+03  0.00000000000E+00 0.  1.
<mgrwt>
<rscale>  2 0.18929832E+03</rscale>
<asrwt>0</asrwt>
<pdfrwt beam="1">  1       21 0.20207369E-01 0.18951578E+03</pdfrwt>
<pdfrwt beam="2">  1       21 0.45118380E-01 0.18951578E+03</pdfrwt>
<totfact> 0.10684238E+05</totfact>
</mgrwt>
</event>
<event>
12    1  0.1019868E-001  0.1866445E+03  0.7546771E-02  0.1162198E+00
         21   -1    0    0  501  502  0.00000000000E+00  0.00000000000E+00  0.20427131206E+03  0.20427131206E+03  0.00000000000E+00 0. -1.
         21   -1    0    0  502  503 -0.00000000000E+00 -0.00000000000E+00 -0.16919726011E+03  0.16919726011E+03  0.00000000000E+00 0. -1.
         -6    2    1    2    0  503 -0.81879017352E+01  0.69269519463E+02  0.33753033373E+02  0.18681943278E+03  0.16999095606E+03 0.  0.
        -24    2    3    3    0    0  0.47021640152E+02  0.52695916589E+02  0.60612101896E+02  0.12305206346E+03  0.80499000979E+02 0.  0.
          6    2    1    2  501    0  0.81879017352E+01 -0.69269519463E+02  0.13210185766E+01  0.18664913938E+03  0.17312090596E+03 0.  0.
         24    2    5    5    0    0 -0.26180073916E+02  0.11122334171E+02 -0.34544772277E+02  0.92031736995E+02  0.80420126430E+02 0.  0.
          5    1    5    5  501    0  0.34367975651E+02 -0.80391853634E+02  0.35865790854E+02  0.94617402388E+02  0.47000000000E+01 0. -1.
        -13    1    6    6    0    0 -0.39104099518E+02 -0.25348809987E+02 -0.19486376344E+02  0.50511499977E+02  0.00000000000E+00 0.  1.
         14    1    6    6    0    0  0.12924025602E+02  0.36471144158E+02 -0.15058395934E+02  0.41520237018E+02  0.00000000000E+00 0. -1.
         -5    1    3    3    0  503 -0.55209541887E+02  0.16573602875E+02 -0.26859068523E+02  0.63767369317E+02  0.47000000000E+01 0.  1.
         13    1    4    4    0    0 -0.20435335727E+02  0.26203757330E+02  0.10163890819E+02  0.34749741310E+02  0.00000000000E+00 0. -1.
        -14    1    4    4    0    0  0.67456975879E+02  0.26492159258E+02  0.50448211077E+02  0.88302322154E+02  0.00000000000E+00 0.  1.
<mgrwt>
<rscale>  2 0.18591534E+03</rscale>
<asrwt>0</asrwt>
<pdfrwt beam="1">  1       21 0.31426356E-01 0.18664446E+03</pdfrwt>
<pdfrwt beam="2">  1       21 0.26030348E-01 0.18664446E+03</pdfrwt>
<totfact> 0.13671376E+05</totfact>
</mgrwt>
</event>
<event>
12    1  0.1019868E-001  0.1892516E+03  0.7546771E-02  0.1159292E+00
         21   -1    0    0  501  502  0.00000000000E+00  0.00000000000E+00  0.30490411902E+02  0.30490411902E+02  0.00000000000E+00 0. -1.
         21   -1    0    0  502  503 -0.00000000000E+00 -0.00000000000E+00 -0.16925238569E+04  0.16925238569E+04  0.00000000000E+00 0.  1.
         -6    2    1    2    0  503  0.66915160866E+02 -0.36866210094E+02 -0.13105161552E+04  0.13241105538E+04  0.17314563044E+03 0.  0.
        -24    2    3    3    0    0  0.15613119385E+02 -0.20667871935E+02 -0.22947693107E+03  0.24172329417E+03  0.71411193965E+02 0.  0.
          6    2    1    2  501    0 -0.66915160866E+02  0.36866210094E+02 -0.35151728977E+03  0.39890371501E+03  0.17240363292E+03 0.  0.
         24    2    5    5    0    0 -0.93170376870E+02  0.42335606043E+02 -0.15339013033E+03  0.19891443538E+03  0.74601594189E+02 0.  0.
          5    1    5    5  501    0  0.26255216004E+02 -0.54693959494E+01 -0.19812715944E+03  0.19998927963E+03  0.47000000000E+01 0. -1.
        -11    1    6    6    0    0 -0.16671975534E+02 -0.85722702315E+01 -0.77509777701E+02  0.79744618780E+02  0.00000000000E+00 0.  1.
         12    1    6    6    0    0 -0.76498401335E+02  0.50907876275E+02 -0.75880352626E+02  0.11916981660E+03  0.00000000000E+00 0. -1.
         -5    1    3    3    0  503  0.51302041481E+02 -0.16198338158E+02 -0.10810392241E+04  0.10823872596E+04  0.47000000000E+01 0.  1.
         13    1    4    4    0    0 -0.23355734257E+02 -0.12380500089E+01 -0.14302161497E+03  0.14492137675E+03  0.00000000000E+00 0. -1.
        -14    1    4    4    0    0  0.38968853642E+02 -0.19429821926E+02 -0.86455316110E+02  0.96801917429E+02  0.00000000000E+00 0.  1.
<mgrwt>
<rscale>  2 0.18908171E+03</rscale>
<asrwt>0</asrwt>
<pdfrwt beam="1">  1       21 0.46908314E-02 0.18925159E+03</pdfrwt>
<pdfrwt beam="2">  1       21 0.26038835E+00 0.18925159E+03</pdfrwt>
<totfact> 0.17377922E+04</totfact>
</mgrwt>
</event>
<event>
12    1  0.1019868E-001  0.1855454E+03  0.7546771E-02  0.1162573E+00
         21   -1    0    0  501  502  0.00000000000E+00  0.00000000000E+00  0.12946177817E+03  0.12946177817E+03  0.00000000000E+00 0.  1.
         21   -1    0    0  502  503 -0.00000000000E+00 -0.00000000000E+00 -0.42095659194E+03  0.42095659194E+03  0.00000000000E+00 0. -1.
         -6    2    1    2    0  503  0.64482156914E+02  0.17117771167E+02  0.21405624604E+02  0.18664128864E+03  0.17299076047E+03 0.  0.
        -24    2    3    3    0    0  0.83793924852E+02  0.51903234065E+02 -0.19379981228E+02  0.12947024305E+03  0.81679817678E+02 0.  0.
          6    2    1    2  501    0 -0.64482156914E+02 -0.17117771167E+02 -0.31290043838E+03  0.36377708146E+03  0.17313611412E+03 0.  0.
         24    2    5    5    0    0 -0.65277994398E+02  0.77591665006E+01 -0.32197112016E+03  0.33687238572E+03  0.74136231535E+02 0.  0.
          5    1    5    5  501    0  0.79583748411E+00 -0.24876937667E+02  0.90706817852E+01  0.26904695744E+02  0.47000000000E+01 0. -1.
        -13    1    6    6    0    0 -0.27953171991E+02  0.20426426045E+02 -0.43355925483E+02  0.55482925119E+02  0.00000000000E+00 0.  1.
         14    1    6    6    0    0 -0.37324822407E+02 -0.12667259544E+02 -0.27861519468E+03  0.28138946060E+03  0.00000000000E+00 0. -1.
         -5    1    3    3    0  503 -0.19311767937E+02 -0.34785462898E+02  0.40785605833E+02  0.57171045583E+02  0.47000000000E+01 0.  1.
         13    1    4    4    0    0 -0.16118860195E+02  0.30510359767E+01 -0.59276970142E+01  0.17443166754E+02  0.00000000000E+00 0. -1.
        -14    1    4    4    0    0  0.99912785047E+02  0.48852198088E+02 -0.13452284214E+02  0.11202707630E+03  0.00000000000E+00 0.  1.
<mgrwt>
<rscale>  2 0.18551144E+03</rscale>
<asrwt>0</asrwt>
<pdfrwt beam="1">  1       21 0.19917197E-01 0.18554536E+03</pdfrwt>
<pdfrwt beam="2">  1       21 0.64762552E-01 0.18554536E+03</pdfrwt>
<totfact> 0.51276984E+04</totfact>
</mgrwt>
</event>
<event>
12    1  0.1019868E-001  0.1734193E+03  0.7546771E-02  0.1174613E+00
         21   -1    0    0  503  502  0.00000000000E+00  0.00000000000E+00  0.87668736067E+03  0.87668736067E+03  0.00000000000E+00 0. -1.
         21   -1    0    0  501  503 -0.00000000000E+00 -0.00000000000E+00 -0.37500842096E+02  0.37500842096E+02  0.00000000000E+00 0. -1.
          6    2    1    2  501    0 -0.41566413654E+01  0.87002311347E+01  0.28037989155E+03  0.32909067671E+03  0.17203144544E+03 0.  0.
         24    2    3    3    0    0  0.49847687642E+02 -0.35481218470E+02  0.18582091963E+03  0.21148133519E+03  0.80319562590E+02 0.  0.
         -6    2    1    2    0  502  0.41566413654E+01 -0.87002311347E+01  0.55880662702E+03  0.58509752606E+03  0.17315108116E+03 0.  0.
        -24    2    5    5    0    0 -0.31913063688E+02  0.47273406875E+02  0.25285513513E+03  0.27194823711E+03  0.82261203960E+02 0.  0.
          5    1    3    3  501    0 -0.54004329007E+02  0.44181449605E+02  0.94558971919E+02  0.11760934151E+03  0.47000000000E+01 0. -1.
        -11    1    4    4    0    0  0.50914829549E+02 -0.36654837588E+01  0.16671356385E+03  0.17435357183E+03  0.00000000000E+00 0.  1.
         12    1    4    4    0    0 -0.10671419070E+01 -0.31815734711E+02  0.19107355780E+02  0.37127763358E+02  0.00000000000E+00 0. -1.
         -5    1    5    5    0  502  0.36069705053E+02 -0.55973638009E+02  0.30595149190E+03  0.31314928895E+03  0.47000000000E+01 0.  1.
         13    1    6    6    0    0  0.15526213077E+02  0.19792704109E+02  0.17458087398E+03  0.17638394481E+03  0.00000000000E+00 0. -1.
        -14    1    6    6    0    0 -0.47439276764E+02  0.27480702765E+02  0.78274261146E+02  0.95564292298E+02  0.00000000000E+00 0.  1.
<mgrwt>
<rscale>  2 0.17313919E+03</rscale>
<asrwt>0</asrwt>
<pdfrwt beam="1">  1       21 0.13487496E+00 0.17341934E+03</pdfrwt>
<pdfrwt beam="2">  1       21 0.57693610E-02 0.17341934E+03</pdfrwt>
<totfact> 0.83795217E+04</totfact>
</mgrwt>
</event>
<event>
12    1  0.1019868E-001  0.1971155E+03  0.7546771E-02  0.1152281E+00
         21   -1    0    0  501  502  0.00000000000E+00  0.00000000000E+00  0.25987810535E+03  0.25987810535E+03  0.00000000000E+00 0. -1.
         21   -1    0    0  502  503 -0.00000000000E+00 -0.00000000000E+00 -0.30287515937E+03  0.30287515937E+03  0.00000000000E+00 0.  1.
         -6    2    1    2    0  503  0.64113760395E+02 -0.69041910938E+02 -0.22190993300E+03  0.29654971292E+03  0.17268570910E+03 0.  0.
        -24    2    3    3    0    0 -0.28471328625E+02 -0.32744062841E+02 -0.64610192751E+02  0.11039163286E+03  0.78288220022E+02 0.  0.
          6    2    1    2  501    0 -0.64113760395E+02  0.69041910938E+02  0.17891287898E+03  0.26620355180E+03  0.17313911455E+03 0.  0.
         24    2    5    5    0    0 -0.90311392813E+02  0.56650026087E+02  0.19208411800E+03  0.23402520051E+03  0.80660479527E+02 0.  0.
          5    1    5    5  501    0  0.26197632418E+02  0.12391884851E+02 -0.13171239021E+02  0.32178351291E+02  0.47000000000E+01 0. -1.
        -11    1    6    6    0    0 -0.10287901097E+03  0.40754483126E+02  0.14220268162E+03  0.18018496456E+03  0.00000000000E+00 0.  1.
         12    1    6    6    0    0  0.12567618152E+02  0.15895542961E+02  0.49881436383E+02  0.53840235955E+02  0.00000000000E+00 0. -1.
         -5    1    3    3    0  503  0.92585089020E+02 -0.36297848097E+02 -0.15729974025E+03  0.18615808005E+03  0.47000000000E+01 0.  1.
         13    1    4    4    0    0 -0.12148915271E+02  0.15931962848E+02  0.79079780597E+01  0.21539723755E+02  0.00000000000E+00 0. -1.
        -14    1    4    4    0    0 -0.16322413353E+02 -0.48676025689E+02 -0.72518170811E+02  0.88851909109E+02  0.00000000000E+00 0.  1.
<mgrwt>
<rscale>  2 0.19701587E+03</rscale>
<asrwt>0</asrwt>
<pdfrwt beam="1">  1       21 0.39981247E-01 0.19711548E+03</pdfrwt>
<pdfrwt beam="2">  1       21 0.46596179E-01 0.19711548E+03</pdfrwt>
<totfact> 0.26525373E+04</totfact>
</mgrwt>
</event>
<event>
12    1  0.1019868E-001  0.2345496E+03  0.7546771E-02  0.1123538E+00
         21   -1    0    0  503  502  0.00000000000E+00  0.00000000000E+00  0.23770860617E+03  0.23770860617E+03  0.00000000000E+00 0. -1.
         21   -1    0    0  501  503 -0.00000000000E+00 -0.00000000000E+00 -0.36491622102E+03  0.36491622102E+03  0.00000000000E+00 0. -1.
          6    2    1    2  501    0 -0.10470948467E+03  0.11814466023E+03 -0.24604457832E+03  0.33968805511E+03  0.17299654142E+03 0.  0.
         24    2    3    3    0    0 -0.11846440308E+03  0.33654377670E+02 -0.14531363359E+03  0.20741326970E+03  0.82083983868E+02 0.  0.
         -6    2    1    2    0  502  0.10470948467E+03 -0.11814466023E+03  0.11883696347E+03  0.26293677207E+03  0.17346839856E+03 0.  0.
        -24    2    5    5    0    0  0.24933986289E+02 -0.42307472222E+02  0.12072875861E+03  0.15275021157E+03  0.79659074188E+02 0.  0.
          5    1    3    3  501    0  0.13754918416E+02  0.84490282563E+02 -0.10073094473E+03  0.13227478541E+03  0.47000000000E+01 0. -1.
        -13    1    4    4    0    0  0.87158871445E+01  0.11422310062E+02 -0.34121673979E+02  0.37023296598E+02  0.00000000000E+00 0.  1.
         14    1    4    4    0    0 -0.12718029023E+03  0.22232067609E+02 -0.11119195961E+03  0.17038997310E+03  0.00000000000E+00 0. -1.
         -5    1    5    5    0  502  0.79775498379E+02 -0.75837188011E+02 -0.18917951363E+01  0.11018656050E+03  0.47000000000E+01 0.  1.
         11    1    6    6    0    0  0.32528485761E+02  0.60680224281E+01  0.15200159702E+02  0.36413845404E+02  0.00000000000E+00 0. -1.
        -12    1    6    6    0    0 -0.75944994719E+01 -0.48375494650E+02  0.10552859891E+03  0.11633636616E+03  0.00000000000E+00 0.  1.
<mgrwt>
<rscale>  2 0.23446238E+03</rscale>
<asrwt>0</asrwt>
<pdfrwt beam="1">  1       21 0.36570555E-01 0.23454962E+03</pdfrwt>
<pdfrwt beam="2">  1       21 0.56140957E-01 0.23454962E+03</pdfrwt>
<totfact> 0.21036195E+04</totfact>
</mgrwt>
</event>
<event>
12    1  0.1019868E-001  0.3515962E+03  0.7546771E-02  0.1062115E+00
         21   -1    0    0  501  502  0.00000000000E+00  0.00000000000E+00  0.10160765352E+03  0.10160765352E+03  0.00000000000E+00 0. -1.
         21   -1    0    0  502  503 -0.00000000000E+00 -0.00000000000E+00 -0.19708952940E+04  0.19708952940E+04  0.00000000000E+00 0.  1.
         -6    2    1    2    0  503 -0.29874424894E+03  0.61198067353E+02 -0.15791178628E+04  0.16177864797E+04  0.17500439829E+03 0.  0.
        -24    2    3    3    0    0 -0.74368925505E+02  0.36181944066E+01 -0.67681318174E+03  0.68620956120E+03  0.85227052604E+02 0.  0.
          6    2    1    2  501    0  0.29874424894E+03 -0.61198067353E+02 -0.29016977767E+03  0.45471646786E+03  0.17197452296E+03 0.  0.
         24    2    5    5    0    0  0.19683029582E+03  0.31140337656E+00 -0.11129296133E+03  0.23980049764E+03  0.79849189748E+02 0.  0.
          5    1    5    5  501    0  0.10191395312E+03 -0.61509470730E+02 -0.17887681634E+03  0.21491597022E+03  0.47000000000E+01 0. -1.
        -11    1    6    6    0    0  0.87092754312E+02  0.12251966251E+02 -0.92837648914E+02  0.12788310126E+03  0.00000000000E+00 0.  1.
         12    1    6    6    0    0  0.10973754151E+03 -0.11940562874E+02 -0.18455312417E+02  0.11191739639E+03  0.00000000000E+00 0. -1.
         -5    1    3    3    0  503 -0.22437532344E+03  0.57579872947E+02 -0.90230468106E+03  0.93157691846E+03  0.47000000000E+01 0.  1.
         11    1    4    4    0    0  0.45377379524E+01  0.19018510280E+02 -0.42026972679E+02  0.46352575242E+02  0.00000000000E+00 0. -1.
        -12    1    4    4    0    0 -0.78906663457E+02 -0.15400315874E+02 -0.63478620906E+03  0.63985698596E+03  0.00000000000E+00 0.  1.
<mgrwt>
<rscale>  2 0.35122101E+03</rscale>
<asrwt>0</asrwt>
<pdfrwt beam="1">  1       21 0.15631946E-01 0.35159617E+03</pdfrwt>
<pdfrwt beam="2">  1       21 0.30321468E+00 0.35159617E+03</pdfrwt>
<totfact> 0.10196054E+03</totfact>
</mgrwt>
</event>
<event>
12    1  0.1019868E-001  0.1894881E+03  0.7546771E-02  0.1159026E+00
         21   -1    0    0  503  502  0.00000000000E+00  0.00000000000E+00  0.31419559580E+03  0.31419559580E+03  0.00000000000E+00 0.  1.
         21   -1    0    0  501  503 -0.00000000000E+00 -0.00000000000E+00 -0.11406865745E+03  0.11406865745E+03  0.00000000000E+00 0.  1.
          6    2    1    2  501    0 -0.45459242411E+02  0.61856245313E+02  0.95207800535E+02  0.21206191959E+03  0.17324258903E+03 0.  0.
         24    2    3    3    0    0 -0.52278684897E+02  0.42445768389E+01  0.11461957659E+03  0.15070626631E+03  0.82605411694E+02 0.  0.
         -6    2    1    2    0  502  0.45459242411E+02 -0.61856245313E+02  0.10491913781E+03  0.21620233366E+03  0.17275035687E+03 0.  0.
        -24    2    5    5    0    0  0.20708296340E+02 -0.99457488461E+02  0.11085619576E+03  0.17055365926E+03  0.80491173428E+02 0.  0.
          5    1    3    3  501    0  0.68194424856E+01  0.57611668474E+02 -0.19411776052E+02  0.61355653282E+02  0.47000000000E+01 0. -1.
        -13    1    4    4    0    0 -0.54349293429E+02 -0.24394283863E+02  0.42783245502E+02  0.73343935517E+02  0.00000000000E+00 0.  1.
         14    1    4    4    0    0  0.20706085327E+01  0.28638860702E+02  0.71836331085E+02  0.77362330793E+02  0.00000000000E+00 0. -1.
         -5    1    5    5    0  502  0.24750946071E+02  0.37601243148E+02 -0.59370579496E+01  0.45648674403E+02  0.47000000000E+01 0.  1.
         13    1    6    6    0    0 -0.10847277140E+02 -0.39496913030E+02  0.91243361545E+02  0.10001510179E+03  0.00000000000E+00 0. -1.
        -14    1    6    6    0    0  0.31555573480E+02 -0.59960575431E+02  0.19612834214E+02  0.70538557467E+02  0.00000000000E+00 0.  1.
<mgrwt>
<rscale>  2 0.18937550E+03</rscale>
<asrwt>0</asrwt>
<pdfrwt beam="1">  1       21 0.48337784E-01 0.18948808E+03</pdfrwt>
<pdfrwt beam="2">  1       21 0.17549024E-01 0.18948808E+03</pdfrwt>
<totfact> 0.12041767E+05</totfact>
</mgrwt>
</event>
<event>
12    1  0.1019868E-001  0.2911188E+03  0.7546771E-02  0.1089830E+00
         21   -1    0    0  501  502  0.00000000000E+00  0.00000000000E+00  0.36828415211E+03  0.36828415211E+03  0.00000000000E+00 0.  1.
         21   -1    0    0  502  503 -0.00000000000E+00 -0.00000000000E+00 -0.45876267822E+03  0.45876267822E+03  0.00000000000E+00 0.  1.
         -6    2    1    2    0  503  0.89953770982E+02  0.21721304786E+03 -0.33739992340E+03  0.44531347267E+03  0.17085722566E+03 0.  0.
        -24    2    3    3    0    0  0.89624600796E+02  0.11568685347E+03 -0.28205082940E+03  0.32958409564E+03  0.87504220476E+02 0.  0.
          6    2    1    2  501    0 -0.89953770982E+02 -0.21721304786E+03  0.24692139729E+03  0.38173335766E+03  0.17168864505E+03 0.  0.
         24    2    5    5    0    0  0.12191055805E+01 -0.42056876324E+02  0.97958066374E+02  0.13433824493E+03  0.81735636156E+02 0.  0.
          5    1    5    5  501    0 -0.91172876563E+02 -0.17515617154E+03  0.14896333091E+03  0.24739511274E+03  0.47000000000E+01 0. -1.
        -13    1    6    6    0    0  0.41138593001E+02 -0.20474226468E+02  0.41639415141E+02  0.62011439887E+02  0.00000000000E+00 0.  1.
         14    1    6    6    0    0 -0.39919487420E+02 -0.21582649856E+02  0.56318651233E+02  0.72326805041E+02  0.00000000000E+00 0. -1.
         -5    1    3    3    0  503  0.32917018668E+00  0.10152619440E+03 -0.55349093994E+02  0.11572937703E+03  0.47000000000E+01 0.  1.
         11    1    4    4    0    0  0.81383620277E+02  0.11742524124E+03 -0.28643497974E+03  0.32008901660E+03  0.00000000000E+00 0. -1.
        -12    1    4    4    0    0  0.82409805189E+01 -0.17383877711E+01  0.43841503334E+01  0.94950790466E+01  0.00000000000E+00 0.  1.
<mgrwt>
<rscale>  2 0.29099637E+03</rscale>
<asrwt>0</asrwt>
<pdfrwt beam="1">  1       21 0.56659101E-01 0.29111884E+03</pdfrwt>
<pdfrwt beam="2">  1       21 0.70578873E-01 0.29111884E+03</pdfrwt>
<totfact> 0.50011815E+03</totfact>
</mgrwt>
</event>
<event>
12    1  0.1019868E-001  0.2330130E+03  0.7546771E-02  0.1125174E+00
         21   -1    0    0  501  502  0.00000000000E+00  0.00000000000E+00  0.15679427589E+03  0.15679427589E+03  0.00000000000E+00 0. -1.
         21   -1    0    0  502  503 -0.00000000000E+00 -0.00000000000E+00 -0.80781856273E+03  0.80781856273E+03  0.00000000000E+00 0.  1.
         -6    2    1    2    0  503  0.37783971490E+02  0.14542732131E+03 -0.69111089731E+03  0.72817680681E+03  0.17329297534E+03 0.  0.
        -24    2    3    3    0    0 -0.34021506646E+02  0.72824539750E+02 -0.32463090021E+03  0.34770753229E+03  0.95154769358E+02 0.  0.
          6    2    1    2  501    0 -0.37783971490E+02 -0.14542732131E+03  0.40086610470E+02  0.23643603182E+03  0.17809639669E+03 0.  0.
         24    2    5    5    0    0 -0.58970987702E+01  0.24910056227E+02  0.27733350129E+02  0.62636469444E+02  0.49989017993E+02 0.  0.
          5    1    5    5  501    0 -0.31886872720E+02 -0.17033737754E+03  0.12353260342E+02  0.17379956237E+03  0.47000000000E+01 0. -1.
        -11    1    6    6    0    0 -0.19964259990E+02  0.10794670690E+02  0.34753632405E+02  0.41507969808E+02  0.00000000000E+00 0.  1.
         12    1    6    6    0    0  0.14067161220E+02  0.14115385537E+02 -0.70202822758E+01  0.21128499636E+02  0.00000000000E+00 0. -1.
         -5    1    3    3    0  503  0.71805478136E+02  0.72602781564E+02 -0.36647999710E+03  0.38046927452E+03  0.47000000000E+01 0.  1.
         13    1    4    4    0    0  0.20087275925E+02 -0.11895001876E+02 -0.76654196675E+02  0.80130241430E+02  0.00000000000E+00 0. -1.
        -14    1    4    4    0    0 -0.54108782571E+02  0.84719541626E+02 -0.24797670354E+03  0.26757729086E+03  0.00000000000E+00 0.  1.
<mgrwt>
<rscale>  2 0.23209499E+03</rscale>
<asrwt>0</asrwt>
<pdfrwt beam="1">  1       21 0.24122197E-01 0.23301301E+03</pdfrwt>
<pdfrwt beam="2">  1       21 0.12427978E+00 0.23301301E+03</pdfrwt>
<totfact> 0.76243955E+03</totfact>
</mgrwt>
</event>
<event>
12    1  0.1019868E-001  0.2173853E+03  0.7546771E-02  0.1136402E+00
         21   -1    0    0  503  502  0.00000000000E+00  0.00000000000E+00  0.70522635007E+02  0.70522635007E+02  0.00000000000E+00 0.  1.
         21   -1    0    0  501  503 -0.00000000000E+00 -0.00000000000E+00 -0.12423007045E+04  0.12423007045E+04  0.00000000000E+00 0.  1.
          6    2    1    2  501    0 -0.12478839262E+03  0.19411863116E+02 -0.10327419595E+04  0.10547779723E+04  0.17335412512E+03 0.  0.
         24    2    3    3    0    0 -0.12868032100E+03  0.19409308611E+02 -0.10364572787E+04  0.10476336942E+04  0.79732805798E+02 0.  0.
         -6    2    1    2    0  502  0.12478839262E+03 -0.19411863116E+02 -0.13903611009E+03  0.25804536724E+03  0.17693899594E+03 0.  0.
        -24    2    5    5    0    0  0.62365525769E+02  0.59124574694E+02 -0.68996023098E+02  0.13560235946E+03  0.79008699207E+02 0.  0.
          5    1    3    3  501    0  0.38919283784E+01  0.25545044418E-02  0.37153192467E+01  0.71442781394E+01  0.47000000000E+01 0. -1.
        -13    1    4    4    0    0 -0.15203024317E+02  0.17045506573E+02 -0.53861566232E+02  0.58504269585E+02  0.00000000000E+00 0.  1.
         14    1    4    4    0    0 -0.11347729668E+03  0.23638020379E+01 -0.98259571247E+03  0.98912942458E+03  0.00000000000E+00 0. -1.
         -5    1    5    5    0  502  0.62422866852E+02 -0.78536437810E+02 -0.70040086990E+02  0.12244300779E+03  0.47000000000E+01 0.  1.
         11    1    6    6    0    0  0.45069624132E+02  0.14737430198E+02  0.49122342132E+01  0.47671720267E+02  0.00000000000E+00 0. -1.
        -12    1    6    6    0    0  0.17295901637E+02  0.44387144496E+02 -0.73908257312E+02  0.87930639193E+02  0.00000000000E+00 0.  1.
<mgrwt>
<rscale>  2 0.21665469E+03</rscale>
<asrwt>0</asrwt>
<pdfrwt beam="1">  1       21 0.10849637E-01 0.21738531E+03</pdfrwt>
<pdfrwt beam="2">  1       21 0.19112317E+00 0.21738531E+03</pdfrwt>
<totfact> 0.10560309E+04</totfact>
</mgrwt>
</event>
<event>
12    1  0.1019868E-001  0.1928371E+03  0.7546771E-02  0.1156055E+00
         21   -1    0    0  501  502  0.00000000000E+00  0.00000000000E+00  0.25976278177E+03  0.25976278177E+03  0.00000000000E+00 0. -1.
         21   -1    0    0  502  503 -0.00000000000E+00 -0.00000000000E+00 -0.19597615052E+03  0.19597615052E+03  0.00000000000E+00 0. -1.
         -6    2    1    2    0  503 -0.75050315187E+02  0.38667914463E+02 -0.86923828815E+02  0.21099459958E+03  0.17272872261E+03 0.  0.
        -24    2    3    3    0    0 -0.92891560035E+02  0.56032807535E+02 -0.11118713306E+03  0.17591401432E+03  0.82550859657E+02 0.  0.
          6    2    1    2  501    0  0.75050315187E+02 -0.38667914463E+02  0.15071046007E+03  0.24474433272E+03  0.17337355106E+03 0.  0.
         24    2    5    5    0    0  0.31557085448E+02 -0.74138833509E+02  0.15117523441E+03  0.18842246178E+03  0.78464363428E+02 0.  0.
          5    1    5    5  501    0  0.43493229739E+02  0.35470919046E+02 -0.46477434612E+00  0.56321870941E+02  0.47000000000E+01 0. -1.
        -13    1    6    6    0    0 -0.22755876274E+02 -0.64681377876E+01  0.19155585382E+02  0.30440157075E+02  0.00000000000E+00 0.  1.
         14    1    6    6    0    0  0.54312961722E+02 -0.67670695721E+02  0.13201964903E+03  0.15798230471E+03  0.00000000000E+00 0. -1.
         -5    1    3    3    0  503  0.17841244848E+02 -0.17364893072E+02  0.24263304243E+02  0.35080585256E+02  0.47000000000E+01 0.  1.
         13    1    4    4    0    0 -0.85518422956E+02  0.35448607229E+02 -0.12066303163E+03  0.15208409392E+03  0.00000000000E+00 0. -1.
        -14    1    4    4    0    0 -0.73731370787E+01  0.20584200305E+02  0.94758985750E+01  0.23829920403E+02  0.00000000000E+00 0.  1.
<mgrwt>
<rscale>  2 0.19269205E+03</rscale>
<asrwt>0</asrwt>
<pdfrwt beam="1">  1       21 0.39963505E-01 0.19283710E+03</pdfrwt>
<pdfrwt beam="2">  1       21 0.30150177E-01 0.19283710E+03</pdfrwt>
<totfact> 0.63682661E+04</totfact>
</mgrwt>
</event>
<event>
12    1  0.1019868E-001  0.1818119E+03  0.7546771E-02  0.1166395E+00
         21   -1    0    0  503  502  0.00000000000E+00  0.00000000000E+00  0.12063428350E+03  0.12063428350E+03  0.00000000000E+00 0. -1.
         21   -1    0    0  501  503 -0.00000000000E+00 -0.00000000000E+00 -0.13981675830E+04  0.13981675830E+04  0.00000000000E+00 0. -1.
          6    2    1    2  501    0  0.24702045832E+02  0.47580186797E+02 -0.13198548424E+04  0.13321292576E+04  0.17227155584E+03 0.  0.
         24    2    3    3    0    0  0.51774240878E+02  0.48074930472E+02 -0.12765287416E+04  0.12808224401E+04  0.77386847038E+02 0.  0.
         -6    2    1    2    0  502 -0.24702045832E+02 -0.47580186797E+02  0.42321542822E+02  0.18667260889E+03  0.17372819195E+03 0.  0.
        -24    2    5    5    0    0  0.30868257650E+02 -0.52326996695E+02 -0.18585560315E+02  0.10395407381E+03  0.82280389500E+02 0.  0.
          5    1    3    3  501    0 -0.27072195046E+02 -0.49474367442E+00 -0.43326100781E+02  0.51306817527E+02  0.47000000000E+01 0. -1.
        -13    1    4    4    0    0  0.29811367643E+02 -0.12919759842E+02 -0.22947627415E+03  0.23176496334E+03  0.00000000000E+00 0.  1.
         14    1    4    4    0    0  0.21962873235E+02  0.60994690313E+02 -0.10470524674E+04  0.10490574768E+04  0.00000000000E+00 0. -1.
         -5    1    5    5    0  502 -0.55570303482E+02  0.47468098979E+01  0.60907103136E+02  0.82718535080E+02  0.47000000000E+01 0.  1.
         13    1    6    6    0    0 -0.60689467628E+01 -0.61114522313E+02  0.59106493254E+00  0.61417964067E+02  0.00000000000E+00 0. -1.
        -14    1    6    6    0    0  0.36937204413E+02  0.87875256174E+01 -0.19176625247E+02  0.42536109745E+02  0.00000000000E+00 0.  1.
<mgrwt>
<rscale>  2 0.18146301E+03</rscale>
<asrwt>0</asrwt>
<pdfrwt beam="1">  1       21 0.18559120E-01 0.18181185E+03</pdfrwt>
<pdfrwt beam="2">  1       21 0.21510272E+00 0.18181185E+03</pdfrwt>
<totfact> 0.28938542E+03</totfact>
</mgrwt>
</event>
<event>
12    1  0.1019868E-001  0.1861039E+03  0.7546771E-02  0.1162025E+00
         21   -1    0    0  501  502  0.00000000000E+00  0.00000000000E+00  0.65597696252E+03  0.65597696252E+03  0.00000000000E+00 0. -1.
         21   -1    0    0  502  503 -0.00000000000E+00 -0.00000000000E+00 -0.90847340040E+02  0.90847340040E+02  0.00000000000E+00 0. -1.
         -6    2    1    2    0  503 -0.68046546961E+02  0.77722854540E+01  0.40896724746E+02  0.19053770756E+03  0.17303564642E+03 0.  0.
        -24    2    3    3    0    0 -0.16006836735E+02 -0.14337538220E+02 -0.39780400985E+02  0.91907771133E+02  0.80017337293E+02 0.  0.
          6    2    1    2  501    0  0.68046546961E+02 -0.77722854540E+01  0.52423289773E+03  0.55628659500E+03  0.17304306902E+03 0.  0.
         24    2    5    5    0    0 -0.42599132987E+01 -0.56338173372E+02  0.30810841677E+03  0.32322276053E+03  0.79687011503E+02 0.  0.
          5    1    5    5  501    0  0.72306460260E+02  0.48565887918E+02  0.21612448097E+03  0.23306383447E+03  0.47000000000E+01 0. -1.
        -11    1    6    6    0    0  0.19321227594E+02 -0.39392365706E+01  0.15653794632E+02  0.25176749331E+02  0.00000000000E+00 0.  1.
         12    1    6    6    0    0 -0.23581140893E+02 -0.52398936802E+02  0.29245462213E+03  0.29804601120E+03  0.00000000000E+00 0. -1.
         -5    1    3    3    0  503 -0.52039710226E+02  0.22109823674E+02  0.80677125731E+02  0.98629936427E+02  0.47000000000E+01 0.  1.
         11    1    4    4    0    0 -0.28575119050E+02  0.15950980989E+02 -0.48005796769E+02  0.58099292136E+02  0.00000000000E+00 0. -1.
        -12    1    4    4    0    0  0.12568282315E+02 -0.30288519209E+02  0.82253957839E+01  0.33808478997E+02  0.00000000000E+00 0.  1.
<mgrwt>
<rscale>  2 0.18610213E+03</rscale>
<asrwt>0</asrwt>
<pdfrwt beam="1">  1       21 0.10091953E+00 0.18610385E+03</pdfrwt>
<pdfrwt beam="2">  1       21 0.13976514E-01 0.18610385E+03</pdfrwt>
<totfact> 0.35952442E+04</totfact>
</mgrwt>
</event>
<event>
12    1  0.1019868E-001  0.1995917E+03  0.7546771E-02  0.1150488E+00
         21   -1    0    0  501  502  0.00000000000E+00  0.00000000000E+00  0.59866296224E+03  0.59866296224E+03  0.00000000000E+00 0. -1.
         21   -1    0    0  502  503 -0.00000000000E+00 -0.00000000000E+00 -0.82067252342E+02  0.82067252342E+02  0.00000000000E+00 0.  1.
         -6    2    1    2    0  503  0.51578805687E+02  0.82724418073E+02  0.10628760902E+03  0.22445223037E+03  0.17198268909E+03 0.  0.
        -24    2    3    3    0    0  0.93611426747E+02  0.73219746350E+02  0.10961171885E+03  0.18097557314E+03  0.81321575805E+02 0.  0.
          6    2    1    2  501    0 -0.51578805687E+02 -0.82724418073E+02  0.41030810088E+03  0.45627798421E+03  0.17416417164E+03 0.  0.
         24    2    5    5    0    0 -0.77536418604E+02 -0.11221572680E+03  0.34839178738E+03  0.38279836229E+03  0.80953586170E+02 0.  0.
          5    1    5    5  501    0  0.25957612917E+02  0.29491308725E+02  0.61916313501E+02  0.73479621911E+02  0.47000000000E+01 0. -1.
        -11    1    6    6    0    0 -0.82325852027E+01 -0.41370243340E+02  0.37321540105E+02  0.56322019220E+02  0.00000000000E+00 0.  1.
         12    1    6    6    0    0 -0.69303833401E+02 -0.70845483458E+02  0.31107024727E+03  0.32647634308E+03  0.00000000000E+00 0. -1.
         -5    1    3    3    0  503 -0.42032621061E+02  0.95046717237E+01 -0.33241098322E+01  0.43476657231E+02  0.47000000000E+01 0.  1.
         13    1    4    4    0    0  0.62175166933E+02 -0.22148076089E+01  0.44638242777E+02  0.76571727642E+02  0.00000000000E+00 0. -1.
        -14    1    4    4    0    0  0.31436259814E+02  0.75434553958E+02  0.64973476073E+02  0.10440384550E+03  0.00000000000E+00 0.  1.
<mgrwt>
<rscale>  2 0.19911486E+03</rscale>
<asrwt>0</asrwt>
<pdfrwt beam="1">  1       21 0.92101992E-01 0.19959174E+03</pdfrwt>
<pdfrwt beam="2">  1       21 0.12625731E-01 0.19959174E+03</pdfrwt>
<totfact> 0.53161589E+04</totfact>
</mgrwt>
</event>
<event>
12    1  0.1019868E-001  0.2434620E+03  0.7546771E-02  0.1117914E+00
         21   -1    0    0  501  502  0.00000000000E+00  0.00000000000E+00  0.39195746384E+03  0.39195746384E+03  0.00000000000E+00 0.  1.
         21   -1    0    0  502  503 -0.00000000000E+00 -0.00000000000E+00 -0.18879322420E+03  0.18879322420E+03  0.00000000000E+00 0.  1.
         -6    2    1    2    0  503 -0.16622315642E+03  0.11483832912E+02  0.23331311271E+03  0.33542901691E+03  0.17411375785E+03 0.  0.
        -24    2    3    3    0    0 -0.15027217712E+03 -0.46203797774E+02  0.19157354521E+03  0.26230871898E+03  0.85958842960E+02 0.  0.
          6    2    1    2  501    0  0.16622315642E+03 -0.11483832912E+02 -0.30148873072E+02  0.24532167113E+03  0.17751549686E+03 0.  0.
         24    2    5    5    0    0  0.10375960303E+03 -0.26008652425E+02 -0.88410587017E+02  0.15855080507E+03  0.76677380428E+02 0.  0.
          5    1    5    5  501    0  0.62463553394E+02  0.14524819514E+02  0.58261713945E+02  0.86770866057E+02  0.47000000000E+01 0. -1.
        -11    1    6    6    0    0  0.44382415073E+02 -0.40707195110E+00  0.52968788833E+01  0.44699232669E+02  0.00000000000E+00 0.  1.
         12    1    6    6    0    0  0.59377187958E+02 -0.25601580474E+02 -0.93707465901E+02  0.11385157240E+03  0.00000000000E+00 0. -1.
         -5    1    3    3    0  503 -0.15950979309E+02  0.57687630685E+02  0.41739567498E+02  0.73120297934E+02  0.47000000000E+01 0.  1.
         13    1    4    4    0    0 -0.15592837331E+02 -0.41588622271E+02  0.46575905941E+02  0.64358877341E+02  0.00000000000E+00 0. -1.
        -14    1    4    4    0    0 -0.13467933978E+03 -0.46151755027E+01  0.14499763927E+03  0.19794984164E+03  0.00000000000E+00 0.  1.
<mgrwt>
<rscale>  2 0.24284242E+03</rscale>
<asrwt>0</asrwt>
<pdfrwt beam="1">  1       21 0.60301148E-01 0.24346205E+03</pdfrwt>
<pdfrwt beam="2">  1       21 0.29045112E-01 0.24346205E+03</pdfrwt>
<totfact> 0.28338805E+04</totfact>
</mgrwt>
</event>
<event>
12    1  0.1019868E-001  0.2455154E+03  0.7546771E-02  0.1116178E+00
         21   -1    0    0  501  502  0.00000000000E+00  0.00000000000E+00  0.73322662599E+02  0.73322662599E+02  0.00000000000E+00 0.  1.
         21   -1    0    0  502  503 -0.00000000000E+00 -0.00000000000E+00 -0.86407742751E+03  0.86407742751E+03  0.00000000000E+00 0.  1.
         -6    2    1    2    0  503 -0.11463722757E+03  0.13100873761E+03 -0.49882291440E+03  0.55595283916E+03  0.17307303710E+03 0.  0.
        -24    2    3    3    0    0 -0.16015732960E+02  0.58921766123E+02 -0.11356791023E+03  0.15176694271E+03  0.80045339901E+02 0.  0.
          6    2    1    2  501    0  0.11463722757E+03 -0.13100873761E+03 -0.29193185051E+03  0.38144725094E+03  0.17312659136E+03 0.  0.
         24    2    5    5    0    0  0.11040499962E+03 -0.57448202651E+02 -0.26045394182E+03  0.30118510051E+03  0.85945616686E+02 0.  0.
          5    1    5    5  501    0  0.42322279459E+01 -0.73560534962E+02 -0.31477908688E+02  0.80262150436E+02  0.47000000000E+01 0. -1.
        -13    1    6    6    0    0  0.14271011385E+02  0.14949437550E+02 -0.92534061496E+01  0.22644491039E+02  0.00000000000E+00 0.  1.
         14    1    6    6    0    0  0.96133988234E+02 -0.72397640201E+02 -0.25120053567E+03  0.27854060947E+03  0.00000000000E+00 0. -1.
         -5    1    3    3    0  503 -0.98621494605E+02  0.72086971489E+02 -0.38525500417E+03  0.40418589646E+03  0.47000000000E+01 0.  1.
         11    1    4    4    0    0  0.12317325567E+02 -0.14668934667E+02 -0.37965201793E+02  0.42523531140E+02  0.00000000000E+00 0. -1.
        -12    1    4    4    0    0 -0.28333058527E+02  0.73590700790E+02 -0.75602708436E+02  0.10924341157E+03  0.00000000000E+00 0.  1.
<mgrwt>
<rscale>  2 0.24550594E+03</rscale>
<asrwt>0</asrwt>
<pdfrwt beam="1">  1       21 0.11280410E-01 0.24551538E+03</pdfrwt>
<pdfrwt beam="2">  1       21 0.13293499E+00 0.24551538E+03</pdfrwt>
<totfact> 0.25975952E+04</totfact>
</mgrwt>
</event>
<event>
12    1  0.1019868E-001  0.1886859E+03  0.7546771E-02  0.1159983E+00
         21   -1    0    0  503  502  0.00000000000E+00  0.00000000000E+00  0.38376674042E+03  0.38376674042E+03  0.00000000000E+00 0. -1.
         21   -1    0    0  501  503 -0.00000000000E+00 -0.00000000000E+00 -0.12870568538E+03  0.12870568538E+03  0.00000000000E+00 0. -1.
          6    2    1    2  501    0  0.37420541988E+02 -0.64381203585E+02 -0.95473150185E+01  0.18748016577E+03  0.17179180712E+03 0.  0.
         24    2    3    3    0    0 -0.34173781793E+02 -0.72441421608E+02  0.93148700559E+01  0.11285720457E+03  0.78958057807E+02 0.  0.
         -6    2    1    2    0  502 -0.37420541988E+02  0.64381203585E+02  0.26460837006E+03  0.32499226004E+03  0.17336996061E+03 0.  0.
        -24    2    5    5    0    0 -0.83138439340E+02  0.73050497439E+02  0.16022101559E+03  0.21060654166E+03  0.80224474342E+02 0.  0.
          5    1    3    3  501    0  0.71594323782E+02  0.80602180237E+01 -0.18862185074E+02  0.74622961199E+02  0.47000000000E+01 0. -1.
        -13    1    4    4    0    0  0.30346086296E+01 -0.56764682289E+02 -0.22819028517E+02  0.61254763630E+02  0.00000000000E+00 0.  1.
         14    1    4    4    0    0 -0.37208390423E+02 -0.15676739320E+02  0.32133898573E+02  0.51602440941E+02  0.00000000000E+00 0. -1.
         -5    1    5    5    0  502  0.45717897351E+02 -0.86692938542E+01  0.10438735447E+03  0.11438571838E+03  0.47000000000E+01 0.  1.
         13    1    6    6    0    0 -0.45467053109E+02  0.29994545020E+01  0.10298623494E+03  0.11261622544E+03  0.00000000000E+00 0. -1.
        -14    1    6    6    0    0 -0.37671386231E+02  0.70051042937E+02  0.57234780643E+02  0.97990316217E+02  0.00000000000E+00 0.  1.
<mgrwt>
<rscale>  2 0.18832263E+03</rscale>
<asrwt>0</asrwt>
<pdfrwt beam="1">  1       21 0.59041036E-01 0.18868593E+03</pdfrwt>
<pdfrwt beam="2">  1       21 0.19800875E-01 0.18868593E+03</pdfrwt>
<totfact> 0.63194243E+04</totfact>
</mgrwt>
</event>
<event>
12    1  0.1019868E-001  0.2208950E+03  0.7546771E-02  0.1133377E+00
         21   -1    0    0  503  502  0.00000000000E+00  0.00000000000E+00  0.46581722425E+03  0.46581722425E+03  0.00000000000E+00 0.  1.
         21   -1    0    0  501  503 -0.00000000000E+00 -0.00000000000E+00 -0.12793533611E+03  0.12793533611E+03  0.00000000000E+00 0.  1.
          6    2    1    2  501    0 -0.11937212205E+03  0.64095970612E+02  0.41187427594E+02  0.22385768269E+03  0.17337203044E+03 0.  0.
         24    2    3    3    0    0 -0.57810043794E+02  0.31211020527E+01  0.81118248038E+02  0.12833603857E+03  0.80859298717E+02 0.  0.
         -6    2    1    2    0  502  0.11937212205E+03 -0.64095970612E+02  0.29669446055E+03  0.36989487767E+03  0.17446094299E+03 0.  0.
        -24    2    5    5    0    0  0.39956780943E+02 -0.14677891181E+02  0.23752856109E+03  0.25911745832E+03  0.94393087876E+02 0.  0.
          5    1    3    3  501    0 -0.61562078259E+02  0.60974868559E+02 -0.39930820444E+02  0.95521644127E+02  0.47000000000E+01 0. -1.
        -11    1    4    4    0    0 -0.27932815272E+02  0.41875112282E+02  0.44966532002E+02  0.67496342107E+02  0.00000000000E+00 0.  1.
         12    1    4    4    0    0 -0.29877228522E+02 -0.38754010229E+02  0.36151716036E+02  0.60839696460E+02  0.00000000000E+00 0. -1.
         -5    1    5    5    0  502  0.79415341109E+02 -0.49418079431E+02  0.59165899458E+02  0.11077741935E+03  0.47000000000E+01 0.  1.
         11    1    6    6    0    0 -0.80346163561E+01  0.86042966503E+01 -0.34805796503E+01  0.12276131945E+02  0.00000000000E+00 0. -1.
        -12    1    6    6    0    0  0.47991397300E+02 -0.23282187831E+02  0.24100914074E+03  0.24684132638E+03  0.00000000000E+00 0.  1.
<mgrwt>
<rscale>  2 0.22067997E+03</rscale>
<asrwt>0</asrwt>
<pdfrwt beam="1">  1       21 0.71664187E-01 0.22089504E+03</pdfrwt>
<pdfrwt beam="2">  1       21 0.19682360E-01 0.22089504E+03</pdfrwt>
<totfact> 0.41249359E+04</totfact>
</mgrwt>
</event>
<event>
12    1  0.1019868E-001  0.1869302E+03  0.7546771E-02  0.1161602E+00
         21   -1    0    0  501  502  0.00000000000E+00  0.00000000000E+00  0.44432624236E+03  0.44432624236E+03  0.00000000000E+00 0.  1.
         21   -1    0    0  502  503 -0.00000000000E+00 -0.00000000000E+00 -0.17315125231E+03  0.17315125231E+03  0.00000000000E+00 0.  1.
         -6    2    1    2    0  503 -0.59548837874E+02 -0.37931084479E+02 -0.93012006997E+02  0.20879210897E+03  0.17308402601E+03 0.  0.
        -24    2    3    3    0    0  0.30007934733E+01  0.14276083427E+02  0.27304765445E+01  0.82987665815E+02  0.81649775602E+02 0.  0.
          6    2    1    2  501    0  0.59548837874E+02  0.37931084479E+02  0.36418699705E+03  0.40868538570E+03  0.17148394794E+03 0.  0.
         24    2    5    5    0    0  0.39858052669E+02  0.79382610545E+01  0.88239503385E+02  0.13037547618E+03  0.86947538663E+02 0.  0.
          5    1    5    5  501    0  0.19690785205E+02  0.29992823424E+02  0.27594749366E+03  0.27830990952E+03  0.47000000000E+01 0. -1.
        -13    1    6    6    0    0  0.42891727906E+02  0.91807906993E+00  0.10419514726E+03  0.11268172835E+03  0.00000000000E+00 0.  1.
         14    1    6    6    0    0 -0.30336752376E+01  0.70201819846E+01 -0.15955643876E+02  0.17693747823E+02  0.00000000000E+00 0. -1.
         -5    1    3    3    0  503 -0.62549631347E+02 -0.52207167906E+02 -0.95742483542E+02  0.12580444315E+03  0.47000000000E+01 0.  1.
         13    1    4    4    0    0  0.38798594560E+02 -0.94017803695E+01 -0.73271075258E+00  0.39928201550E+02  0.00000000000E+00 0. -1.
        -14    1    4    4    0    0 -0.35797801087E+02  0.23677863797E+02  0.34631872971E+01  0.43059464266E+02  0.00000000000E+00 0.  1.
<mgrwt>
<rscale>  2 0.18655898E+03</rscale>
<asrwt>0</asrwt>
<pdfrwt beam="1">  1       21 0.68357883E-01 0.18693023E+03</pdfrwt>
<pdfrwt beam="2">  1       21 0.26638654E-01 0.18693023E+03</pdfrwt>
<totfact> 0.26268389E+04</totfact>
</mgrwt>
</event>
<event>
12    1  0.1019868E-001  0.1776323E+03  0.7546771E-02  0.1170116E+00
         21   -1    0    0  503  502  0.00000000000E+00  0.00000000000E+00  0.12846799468E+03  0.12846799468E+03  0.00000000000E+00 0. -1.
         21   -1    0    0  501  503 -0.00000000000E+00 -0.00000000000E+00 -0.72807139557E+03  0.72807139557E+03  0.00000000000E+00 0. -1.
          6    2    1    2  501    0 -0.26343355852E+02  0.28037841014E+02 -0.64842983420E+03  0.67231872327E+03  0.17341027321E+03 0.  0.
         24    2    3    3    0    0  0.31390853922E+02 -0.34825662015E+02 -0.33231024374E+03  0.34484545037E+03  0.79309987412E+02 0.  0.
         -6    2    1    2    0  502  0.26343355852E+02 -0.28037841014E+02  0.48826433302E+02  0.18422066699E+03  0.17341609103E+03 0.  0.
        -24    2    5    5    0    0  0.40480354442E+02  0.64982989431E-01  0.91022099020E+02  0.13137951208E+03  0.85655649939E+02 0.  0.
          5    1    3    3  501    0 -0.57734209774E+02  0.62863503029E+02 -0.31611959046E+03  0.32747327290E+03  0.47000000000E+01 0. -1.
        -13    1    4    4    0    0 -0.13096815456E+02 -0.41658091862E+02 -0.11706164793E+03  0.12494139669E+03  0.00000000000E+00 0.  1.
         14    1    4    4    0    0  0.44487669379E+02  0.68324298471E+01 -0.21524859581E+03  0.21990405368E+03  0.00000000000E+00 0. -1.
         -5    1    5    5    0  502 -0.14136998590E+02 -0.28102824004E+02 -0.42195665718E+02  0.52841154903E+02  0.47000000000E+01 0.  1.
         11    1    6    6    0    0  0.56265480633E+02 -0.15429059675E+02  0.28245578968E+02  0.64820312593E+02  0.00000000000E+00 0. -1.
        -12    1    6    6    0    0 -0.15785126191E+02  0.15494042664E+02  0.62776520052E+02  0.66559199490E+02  0.00000000000E+00 0.  1.
<mgrwt>
<rscale>  2 0.17763088E+03</rscale>
<asrwt>0</asrwt>
<pdfrwt beam="1">  1       21 0.19764307E-01 0.17763230E+03</pdfrwt>
<pdfrwt beam="2">  1       21 0.11201098E+00 0.17763230E+03</pdfrwt>
<totfact> 0.14900626E+04</totfact>
</mgrwt>
</event>
<event>
12    1  0.1019868E-001  0.2098304E+03  0.7546771E-02  0.1142112E+00
         21   -1    0    0  503  502  0.00000000000E+00  0.00000000000E+00  0.10373745229E+03  0.10373745229E+03  0.00000000000E+00 0. -1.
         21   -1    0    0  501  503 -0.00000000000E+00 -0.00000000000E+00 -0.43564920403E+03  0.43564920403E+03  0.00000000000E+00 0.  1.
          6    2    1    2  501    0  0.11569227862E+03  0.35039092625E+00 -0.21585979160E+03  0.29960165526E+03  0.17257136524E+03 0.  0.
         24    2    3    3    0    0 -0.67150438437E+01  0.17964642704E+02 -0.90045042687E+02  0.12312147081E+03  0.81749413830E+02 0.  0.
         -6    2    1    2    0  502 -0.11569227862E+03 -0.35039092625E+00 -0.11605196015E+03  0.23978500105E+03  0.17505417210E+03 0.  0.
        -24    2    5    5    0    0  0.73295329491E+01  0.27419378712E+02 -0.41844150506E+02  0.93380031056E+02  0.78507024439E+02 0.  0.
          5    1    3    3  501    0  0.12240732247E+03 -0.17614251777E+02 -0.12581474891E+03  0.17648018445E+03  0.47000000000E+01 0. -1.
        -13    1    4    4    0    0  0.15946157034E+02  0.31157837779E+02 -0.65541648485E+01  0.35609659590E+02  0.00000000000E+00 0.  1.
         14    1    4    4    0    0 -0.22661200878E+02 -0.13193195075E+02 -0.83490877839E+02  0.87511811225E+02  0.00000000000E+00 0. -1.
         -5    1    5    5    0  502 -0.12302181157E+03 -0.27769769638E+02 -0.74207809639E+02  0.14640497000E+03  0.47000000000E+01 0.  1.
         13    1    6    6    0    0 -0.35476415717E+02  0.17412703136E+02 -0.19980962425E+02  0.44283373427E+02  0.00000000000E+00 0. -1.
        -14    1    6    6    0    0  0.42805948666E+02  0.10006675576E+02 -0.21863188081E+02  0.49096657629E+02  0.00000000000E+00 0.  1.
<mgrwt>
<rscale>  2 0.20931176E+03</rscale>
<asrwt>0</asrwt>
<pdfrwt beam="1">  1       21 0.15959608E-01 0.20983038E+03</pdfrwt>
<pdfrwt beam="2">  1       21 0.67022954E-01 0.20983038E+03</pdfrwt>
<totfact> 0.70860390E+04</totfact>
</mgrwt>
</event>
<event>
12    1  0.1019868E-001  0.2060365E+03  0.7546771E-02  0.1145516E+00
         21   -1    0    0  503  502  0.00000000000E+00  0.00000000000E+00  0.10421599890E+03  0.10421599890E+03  0.00000000000E+00 0. -1.
         21   -1    0    0  501  503 -0.00000000000E+00 -0.00000000000E+00 -0.45802806382E+03  0.45802806382E+03  0.00000000000E+00 0.  1.
          6    2    1    2  501    0  0.86191168174E+02  0.66035734023E+02 -0.27560862173E+03  0.34186522576E+03  0.17065193983E+03 0.  0.
         24    2    3    3    0    0  0.11871412872E+03  0.46183341590E+02 -0.25980642951E+03  0.30034824457E+03  0.80521685274E+02 0.  0.
         -6    2    1    2    0  502 -0.86191168174E+02 -0.66035734023E+02 -0.78203443182E+02  0.22037883696E+03  0.17510401942E+03 0.  0.
        -24    2    5    5    0    0 -0.55124628954E+02 -0.81626561238E+02  0.60365453818E+01  0.12912825107E+03  0.83282922184E+02 0.  0.
          5    1    3    3  501    0 -0.32522960548E+02  0.19852392433E+02 -0.15802192218E+02  0.41516981189E+02  0.47000000000E+01 0. -1.
        -13    1    4    4    0    0 -0.93038977636E+01  0.74503243898E+00 -0.46730802753E+02  0.47653809007E+02  0.00000000000E+00 0.  1.
         14    1    4    4    0    0  0.12801802649E+03  0.45438309151E+02 -0.21307562676E+03  0.25269443556E+03  0.00000000000E+00 0. -1.
         -5    1    5    5    0  502 -0.31066539221E+02  0.15590827215E+02 -0.84239988564E+02  0.91250585892E+02  0.47000000000E+01 0.  1.
         13    1    6    6    0    0 -0.35372679379E+02 -0.66308194178E+02 -0.33556979375E+02  0.82304762477E+02  0.00000000000E+00 0. -1.
        -14    1    6    6    0    0 -0.19751949574E+02 -0.15318367060E+02  0.39593524757E+02  0.46823488593E+02  0.00000000000E+00 0.  1.
<mgrwt>
<rscale>  2 0.20508748E+03</rscale>
<asrwt>0</asrwt>
<pdfrwt beam="1">  1       21 0.16033231E-01 0.20603653E+03</pdfrwt>
<pdfrwt beam="2">  1       21 0.70465856E-01 0.20603653E+03</pdfrwt>
<totfact> 0.63033080E+04</totfact>
</mgrwt>
</event>
<event>
12    1  0.1019868E-001  0.3756971E+03  0.7546771E-02  0.1052543E+00
         21   -1    0    0  501  502  0.00000000000E+00  0.00000000000E+00  0.23374307180E+03  0.23374307180E+03  0.00000000000E+00 0. -1.
         21   -1    0    0  502  503 -0.00000000000E+00 -0.00000000000E+00 -0.10829371548E+04  0.10829371548E+04  0.00000000000E+00 0.  1.
         -6    2    1    2    0  503 -0.17853515308E+03  0.28159849657E+03 -0.86250486901E+03  0.94074744051E+03  0.17296989218E+03 0.  0.
        -24    2    3    3    0    0 -0.10887165133E+03  0.27118638494E+03 -0.73229896585E+03  0.79263571659E+03  0.81329650116E+02 0.  0.
          6    2    1    2  501    0  0.17853515308E+03 -0.28159849657E+03  0.13310785977E+02  0.37593278612E+03  0.17313511633E+03 0.  0.
         24    2    5    5    0    0  0.13740735094E+03 -0.27262255918E+03  0.50304115036E+02  0.31969525456E+03  0.80440735561E+02 0.  0.
          5    1    5    5  501    0  0.41127802141E+02 -0.89759373896E+01 -0.36993329059E+02  0.56237531559E+02  0.47000000000E+01 0. -1.
        -11    1    6    6    0    0  0.60670738776E+02 -0.65359448122E+02 -0.12213162946E+02  0.90010873519E+02  0.00000000000E+00 0.  1.
         12    1    6    6    0    0  0.76736612163E+02 -0.20726311105E+03  0.62517277982E+02  0.22968438105E+03  0.00000000000E+00 0. -1.
         -5    1    3    3    0  503 -0.69663501748E+02  0.10412111629E+02 -0.13020590316E+03  0.14811172392E+03  0.47000000000E+01 0.  1.
         11    1    4    4    0    0 -0.76595454256E+01  0.11970635777E+03 -0.25688522934E+03  0.28351067314E+03  0.00000000000E+00 0. -1.
        -12    1    4    4    0    0 -0.10121210591E+03  0.15148002717E+03 -0.47541373650E+03  0.50912504345E+03  0.00000000000E+00 0.  1.
<mgrwt>
<rscale>  2 0.37567803E+03</rscale>
<asrwt>0</asrwt>
<pdfrwt beam="1">  1       21 0.35960472E-01 0.37569706E+03</pdfrwt>
<pdfrwt beam="2">  1       21 0.16660572E+00 0.37569706E+03</pdfrwt>
<totfact> 0.14751623E+03</totfact>
</mgrwt>
</event>
<event>
12    1  0.1019868E-001  0.2052648E+03  0.7546771E-02  0.1145425E+00
         21   -1    0    0  501  502  0.00000000000E+00  0.00000000000E+00  0.13135871171E+03  0.13135871171E+03  0.00000000000E+00 0.  1.
         21   -1    0    0  502  503 -0.00000000000E+00 -0.00000000000E+00 -0.52960212890E+03  0.52960212890E+03  0.00000000000E+00 0. -1.
         -6    2    1    2    0  503  0.25843924030E+02  0.10586934854E+03 -0.40693630503E+03  0.45577495084E+03  0.17394660703E+03 0.  0.
        -24    2    3    3    0    0  0.17704108880E+02  0.14179860804E+03 -0.32368362224E+03  0.36461428240E+03  0.88046617823E+02 0.  0.
          6    2    1    2  501    0 -0.25843924030E+02 -0.10586934854E+03  0.86928878414E+01  0.20518588977E+03  0.17363598617E+03 0.  0.
         24    2    5    5    0    0 -0.46521246647E+01 -0.17468369266E+02 -0.49030330180E+02  0.97399594745E+02  0.82194413377E+02 0.  0.
          5    1    5    5  501    0 -0.21191799365E+02 -0.88400979272E+02  0.57723218021E+02  0.10778629503E+03  0.47000000000E+01 0. -1.
        -13    1    6    6    0    0  0.96097981938E+01  0.85255587744E+01  0.19145212519E+02  0.23055856873E+02  0.00000000000E+00 0.  1.
         14    1    6    6    0    0 -0.14261922859E+02 -0.25993928040E+02 -0.68175542699E+02  0.74343737873E+02  0.00000000000E+00 0. -1.
         -5    1    3    3    0  503  0.81398151502E+01 -0.35929259506E+02 -0.83252682793E+02  0.91160668446E+02  0.47000000000E+01 0.  1.
         11    1    4    4    0    0 -0.33078962173E+02  0.68410646287E+02 -0.18120123783E+03  0.19648949808E+03  0.00000000000E+00 0. -1.
        -12    1    4    4    0    0  0.50783071053E+02  0.73387961757E+02 -0.14248238440E+03  0.16812478432E+03  0.00000000000E+00 0.  1.
<mgrwt>
<rscale>  2 0.20519901E+03</rscale>
<asrwt>0</asrwt>
<pdfrwt beam="1">  1       21 0.20209033E-01 0.20526483E+03</pdfrwt>
<pdfrwt beam="2">  1       21 0.81477250E-01 0.20526483E+03</pdfrwt>
<totfact> 0.29662286E+04</totfact>
</mgrwt>
</event>
<event>
12    1  0.1019868E-001  0.1732917E+03  0.7546771E-02  0.1174886E+00
         21   -1    0    0  503  502  0.00000000000E+00  0.00000000000E+00  0.19090498933E+03  0.19090498933E+03  0.00000000000E+00 0. -1.
         21   -1    0    0  501  503 -0.00000000000E+00 -0.00000000000E+00 -0.10595821180E+04  0.10595821180E+04  0.00000000000E+00 0. -1.
          6    2    1    2  501    0  0.22658249885E+01  0.74699395417E+01 -0.10121016184E+04  0.10268299256E+04  0.17311578807E+03 0.  0.
         24    2    3    3    0    0 -0.21064781046E+01 -0.63081123357E+02 -0.59972040018E+03  0.60840797506E+03  0.80697214033E+02 0.  0.
         -6    2    1    2    0  502 -0.22658249885E+01 -0.74699395417E+01  0.14342448981E+03  0.22365718169E+03  0.17143808412E+03 0.  0.
        -24    2    5    5    0    0  0.20909407170E+02  0.81311665178E+01  0.16706691525E+03  0.18675812782E+03  0.80398538298E+02 0.  0.
          5    1    3    3  501    0  0.43723030931E+01  0.70551062898E+02 -0.41238121827E+03  0.41842195054E+03  0.47000000000E+01 0. -1.
        -13    1    4    4    0    0  0.34197623517E+02 -0.74197168935E+01 -0.24904510809E+03  0.25149154164E+03  0.00000000000E+00 0.  1.
         14    1    4    4    0    0 -0.36304101621E+02 -0.55661406463E+02 -0.35067529208E+03  0.35691643342E+03  0.00000000000E+00 0. -1.
         -5    1    5    5    0  502 -0.23175232158E+02 -0.15601106060E+02 -0.23642425438E+02  0.36899053869E+02  0.47000000000E+01 0.  1.
         13    1    6    6    0    0  0.44669160594E+01  0.36021161409E+02  0.33740472141E+02  0.49557006252E+02  0.00000000000E+00 0. -1.
        -14    1    6    6    0    0  0.16442491110E+02 -0.27889994891E+02  0.13332644311E+03  0.13720112157E+03  0.00000000000E+00 0.  1.
<mgrwt>
<rscale>  2 0.17287117E+03</rscale>
<asrwt>0</asrwt>
<pdfrwt beam="1">  1       21 0.29369999E-01 0.17329169E+03</pdfrwt>
<pdfrwt beam="2">  1       21 0.16301263E+00 0.17329169E+03</pdfrwt>
<totfact> 0.27084736E+03</totfact>
</mgrwt>
</event>
<event>
12    1  0.1019868E-001  0.2830979E+03  0.7546771E-02  0.1094117E+00
         21   -1    0    0  501  502  0.00000000000E+00  0.00000000000E+00  0.76294044777E+03  0.76294044777E+03  0.00000000000E+00 0. -1.
         21   -1    0    0  502  503 -0.00000000000E+00 -0.00000000000E+00 -0.21638294701E+03  0.21638294701E+03  0.00000000000E+00 0.  1.
         -6    2    1    2    0  503  0.76114105084E+02 -0.21070283373E+03 -0.78615795725E+02  0.29303914530E+03  0.17176279052E+03 0.  0.
        -24    2    3    3    0    0  0.49564429356E+02 -0.16765692210E+03 -0.12077470153E+03  0.22702930416E+03  0.79939353471E+02 0.  0.
          6    2    1    2  501    0 -0.76114105084E+02  0.21070283373E+03  0.62517329649E+03  0.68628424948E+03  0.17307622397E+03 0.  0.
         24    2    5    5    0    0 -0.53934105544E+00  0.16344969227E+03  0.50249294332E+03  0.53457082426E+03  0.80936489162E+02 0.  0.
          5    1    5    5  501    0 -0.75574764029E+02  0.47253141457E+02  0.12268035318E+03  0.15171342522E+03  0.47000000000E+01 0. -1.
        -11    1    6    6    0    0 -0.38065565568E+01 -0.44974094722E+01  0.13779468243E+01  0.60510579432E+01  0.00000000000E+00 0.  1.
         12    1    6    6    0    0  0.32672155014E+01  0.16794710174E+03  0.50111499649E+03  0.52851976632E+03  0.00000000000E+00 0. -1.
         -5    1    3    3    0  503  0.26549675728E+02 -0.43045911630E+02  0.42158905800E+02  0.66009841142E+02  0.47000000000E+01 0.  1.
         11    1    4    4    0    0 -0.20693229083E+02 -0.34816669898E+02 -0.14697550405E+02  0.43086288081E+02  0.00000000000E+00 0. -1.
        -12    1    4    4    0    0  0.70257658439E+02 -0.13284025220E+03 -0.10607715112E+03  0.18394301608E+03  0.00000000000E+00 0.  1.
<mgrwt>
<rscale>  2 0.28289742E+03</rscale>
<asrwt>0</asrwt>
<pdfrwt beam="1">  1       21 0.11737545E+00 0.28309790E+03</pdfrwt>
<pdfrwt beam="2">  1       21 0.33289685E-01 0.28309790E+03</pdfrwt>
<totfact> 0.45545341E+03</totfact>
</mgrwt>
</event>
<event>
12    1  0.1019868E-001  0.1778109E+03  0.7546771E-02  0.1170318E+00
         21   -1    0    0  501  502  0.00000000000E+00  0.00000000000E+00  0.40402794258E+03  0.40402794258E+03  0.00000000000E+00 0. -1.
         21   -1    0    0  502  503 -0.00000000000E+00 -0.00000000000E+00 -0.11087093182E+03  0.11087093182E+03  0.00000000000E+00 0. -1.
         -6    2    1    2    0  503  0.27699543766E+02 -0.20128176718E+02  0.59501145340E+01  0.17791040825E+03  0.17448295412E+03 0.  0.
        -24    2    3    3    0    0  0.77432165747E+02 -0.19483145727E+02 -0.30520296705E+02  0.11605630046E+03  0.78499956093E+02 0.  0.
          6    2    1    2  501    0 -0.27699543766E+02  0.20128176718E+02  0.28720689622E+03  0.33698846615E+03  0.17291910495E+03 0.  0.
         24    2    5    5    0    0 -0.72545717560E+02  0.86911594769E+01  0.11272420110E+03  0.15641082200E+03  0.80119799907E+02 0.  0.
          5    1    5    5  501    0  0.44846173794E+02  0.11437017241E+02  0.17448269512E+03  0.18057764415E+03  0.47000000000E+01 0. -1.
        -13    1    6    6    0    0 -0.27487259983E+02 -0.15440466341E+02 -0.11954545231E+01  0.31549747602E+02  0.00000000000E+00 0.  1.
         14    1    6    6    0    0 -0.45058457577E+02  0.24131625818E+02  0.11391965562E+03  0.12486107440E+03  0.00000000000E+00 0. -1.
         -5    1    3    3    0  503 -0.49732621981E+02 -0.64503099071E+00  0.36470411239E+02  0.61854107787E+02  0.47000000000E+01 0.  1.
         11    1    4    4    0    0 -0.11466237358E+02  0.11276978231E+02 -0.12279482170E+02  0.20234389527E+02  0.00000000000E+00 0. -1.
        -12    1    4    4    0    0  0.88898403105E+02 -0.30760123958E+02 -0.18240814535E+02  0.95821910936E+02  0.00000000000E+00 0.  1.
<mgrwt>
<rscale>  2 0.17742605E+03</rscale>
<asrwt>0</asrwt>
<pdfrwt beam="1">  1       21 0.62158144E-01 0.17781088E+03</pdfrwt>
<pdfrwt beam="2">  1       21 0.17057067E-01 0.17781088E+03</pdfrwt>
<totfact> 0.74922895E+04</totfact>
</mgrwt>
</event>
<event>
12    1  0.1019868E-001  0.1804338E+03  0.7546771E-02  0.1168936E+00
         21   -1    0    0  501  502  0.00000000000E+00  0.00000000000E+00  0.35796148247E+02  0.35796148247E+02  0.00000000000E+00 0.  1.
         21   -1    0    0  502  503 -0.00000000000E+00 -0.00000000000E+00 -0.96991462621E+03  0.96991462621E+03  0.00000000000E+00 0.  1.
         -6    2    1    2    0  503 -0.27824956541E+02 -0.43502973553E+02 -0.62941537213E+03  0.65476718663E+03  0.17288615071E+03 0.  0.
        -24    2    3    3    0    0 -0.24139841459E+02  0.42407623053E+02 -0.32955259881E+03  0.34278323912E+03  0.80711183876E+02 0.  0.
          6    2    1    2  501    0  0.27824956541E+02  0.43502973553E+02 -0.30470310584E+03  0.35094358782E+03  0.16628494283E+03 0.  0.
         24    2    5    5    0    0  0.42146832467E+02  0.45489344552E+02 -0.89885880039E+02  0.13558901439E+03  0.80369605186E+02 0.  0.
          5    1    5    5  501    0 -0.14321875926E+02 -0.19863709992E+01 -0.21481722580E+03  0.21535457343E+03  0.47000000000E+01 0. -1.
        -11    1    6    6    0    0 -0.12048336561E+02  0.39811941890E+02 -0.61229564741E+02  0.74021704447E+02  0.00000000000E+00 0.  1.
         12    1    6    6    0    0  0.54195169028E+02  0.56774026627E+01 -0.28656315298E+02  0.61567309942E+02  0.00000000000E+00 0. -1.
         -5    1    3    3    0  503 -0.36851150816E+01 -0.85910596606E+02 -0.29986277332E+03  0.31198394751E+03  0.47000000000E+01 0.  1.
         13    1    4    4    0    0 -0.10454256602E+02  0.17029768388E+02 -0.10771498738E+02  0.22700873937E+02  0.00000000000E+00 0. -1.
        -14    1    4    4    0    0 -0.13685584857E+02  0.25377854666E+02 -0.31878110007E+03  0.32008236518E+03  0.00000000000E+00 0.  1.
<mgrwt>
<rscale>  2 0.17883395E+03</rscale>
<asrwt>0</asrwt>
<pdfrwt beam="1">  1       21 0.55070997E-02 0.18043381E+03</pdfrwt>
<pdfrwt beam="2">  1       21 0.14921764E+00 0.18043381E+03</pdfrwt>
<totfact> 0.69613327E+04</totfact>
</mgrwt>
</event>
<event>
12    1  0.1019868E-001  0.1897709E+03  0.7546771E-02  0.1158801E+00
         21   -1    0    0  501  502  0.00000000000E+00  0.00000000000E+00  0.57903222199E+03  0.57903222199E+03  0.00000000000E+00 0.  1.
         21   -1    0    0  502  503 -0.00000000000E+00 -0.00000000000E+00 -0.10130971375E+03  0.10130971375E+03  0.00000000000E+00 0.  1.
         -6    2    1    2    0  503 -0.48864077245E+02  0.44259015962E+02  0.26744909557E+02  0.19106309100E+03  0.17732246337E+03 0.  0.
        -24    2    3    3    0    0 -0.53270729031E+02  0.90439527726E+02  0.46396266736E+02  0.14046344588E+03  0.80995600594E+02 0.  0.
          6    2    1    2  501    0  0.48864077245E+02 -0.44259015962E+02  0.45097759868E+03  0.48927884475E+03  0.17795065290E+03 0.  0.
         24    2    5    5    0    0  0.61924673436E+02 -0.66697299041E+02  0.17486786769E+03  0.21191134617E+03  0.77746077750E+02 0.  0.
          5    1    5    5  501    0 -0.13060596191E+02  0.22438283080E+02  0.27610973099E+03  0.27736749858E+03  0.47000000000E+01 0. -1.
        -11    1    6    6    0    0  0.60550108356E+02 -0.65358816979E+02  0.18301041234E+03  0.20354582188E+03  0.00000000000E+00 0.  1.
         12    1    6    6    0    0  0.13745650805E+01 -0.13384820620E+01 -0.81425446474E+01  0.83655242947E+01  0.00000000000E+00 0. -1.
         -5    1    3    3    0  503  0.44066517858E+01 -0.46180511764E+02 -0.19651357179E+02  0.50599645115E+02  0.47000000000E+01 0.  1.
         11    1    4    4    0    0  0.16746116196E+02  0.44358290438E+02  0.26488779182E+02  0.54311561944E+02  0.00000000000E+00 0. -1.
        -12    1    4    4    0    0 -0.70016845227E+02  0.46081237288E+02  0.19907487554E+02  0.86151883939E+02  0.00000000000E+00 0.  1.
<mgrwt>
<rscale>  2 0.18962349E+03</rscale>
<asrwt>0</asrwt>
<pdfrwt beam="1">  1       21 0.89081878E-01 0.18977090E+03</pdfrwt>
<pdfrwt beam="2">  1       21 0.15586110E-01 0.18977090E+03</pdfrwt>
<totfact> 0.39411641E+04</totfact>
</mgrwt>
</event>
<event>
12    1  0.1019868E-001  0.1951043E+03  0.7546771E-02  0.1154003E+00
         21   -1    0    0  503  502  0.00000000000E+00  0.00000000000E+00  0.22959714795E+03  0.22959714795E+03  0.00000000000E+00 0. -1.
         21   -1    0    0  501  503 -0.00000000000E+00 -0.00000000000E+00 -0.17236025372E+03  0.17236025372E+03  0.00000000000E+00 0. -1.
          6    2    1    2  501    0 -0.78207971867E+02  0.43149313954E+02 -0.11353319499E+02  0.19543433364E+03  0.17345699970E+03 0.  0.
         24    2    3    3    0    0 -0.26911701458E+02 -0.44067548398E+02 -0.15386665471E+02  0.94061525078E+02  0.77101443103E+02 0.  0.
         -6    2    1    2    0  502  0.78207971867E+02 -0.43149313954E+02  0.68590213727E+02  0.20652306803E+03  0.17311501972E+03 0.  0.
        -24    2    5    5    0    0  0.40545644322E+02 -0.90460289977E+02  0.27307987815E+02  0.13315351341E+03  0.84599755319E+02 0.  0.
          5    1    3    3  501    0 -0.51296270409E+02  0.87216862352E+02  0.40333459714E+01  0.10137280856E+03  0.47000000000E+01 0. -1.
        -11    1    4    4    0    0  0.21745143113E+02 -0.36582515662E+02 -0.14041290853E+02  0.44813943701E+02  0.00000000000E+00 0.  1.
         12    1    4    4    0    0 -0.48656844571E+02 -0.74850327357E+01 -0.13453746183E+01  0.49247581378E+02  0.00000000000E+00 0. -1.
         -5    1    5    5    0  502  0.37662327545E+02  0.47310976023E+02  0.41282225913E+02  0.73369554617E+02  0.47000000000E+01 0.  1.
         11    1    6    6    0    0  0.66068156693E+02 -0.75719707106E+02  0.25212256246E+02  0.10360566219E+03  0.00000000000E+00 0. -1.
        -12    1    6    6    0    0 -0.25522512371E+02 -0.14740582871E+02  0.20957315683E+01  0.29547851224E+02  0.00000000000E+00 0.  1.
<mgrwt>
<rscale>  2 0.19502824E+03</rscale>
<asrwt>0</asrwt>
<pdfrwt beam="1">  1       21 0.35322638E-01 0.19510428E+03</pdfrwt>
<pdfrwt beam="2">  1       21 0.26516962E-01 0.19510428E+03</pdfrwt>
<totfact> 0.10446042E+05</totfact>
</mgrwt>
</event>
<event>
12    1  0.1019868E-001  0.1852133E+03  0.7546771E-02  0.1162916E+00
         21   -1    0    0  503  502  0.00000000000E+00  0.00000000000E+00  0.23128067954E+02  0.23128067954E+02  0.00000000000E+00 0. -1.
         21   -1    0    0  501  503 -0.00000000000E+00 -0.00000000000E+00 -0.19317874983E+04  0.19317874983E+04  0.00000000000E+00 0.  1.
          6    2    1    2  501    0 -0.25756859675E+02 -0.60898183372E+02 -0.14270643240E+04  0.14390331987E+04  0.17300854737E+03 0.  0.
         24    2    3    3    0    0  0.22031019242E+02  0.19424025893E+02 -0.85232594511E+03  0.85672603501E+03  0.81592424686E+02 0.  0.
         -6    2    1    2    0  502  0.25756859675E+02  0.60898183372E+02 -0.48159510633E+03  0.51588236757E+03  0.17271006391E+03 0.  0.
        -24    2    5    5    0    0  0.31049211689E+02 -0.17804290892E+02 -0.14664397811E+03  0.17173641490E+03  0.81901731161E+02 0.  0.
          5    1    3    3  501    0 -0.47787878917E+02 -0.80322209265E+02 -0.57473837893E+03  0.58230716369E+03  0.47000000000E+01 0. -1.
        -11    1    4    4    0    0 -0.29138313622E+02  0.20741912480E+01 -0.42411041937E+03  0.42511526838E+03  0.00000000000E+00 0.  1.
         12    1    4    4    0    0  0.51169332864E+02  0.17349834645E+02 -0.42821552574E+03  0.43161076663E+03  0.00000000000E+00 0. -1.
         -5    1    5    5    0  502 -0.52923520146E+01  0.78702474264E+02 -0.33495112822E+03  0.34414595267E+03  0.47000000000E+01 0.  1.
         13    1    6    6    0    0  0.11134073061E+02 -0.48261887982E+02 -0.10708840713E+03  0.11798772969E+03  0.00000000000E+00 0. -1.
        -14    1    6    6    0    0  0.19915138629E+02  0.30457597090E+02 -0.39555570976E+02  0.53748685215E+02  0.00000000000E+00 0.  1.
<mgrwt>
<rscale>  2 0.18514355E+03</rscale>
<asrwt>0</asrwt>
<pdfrwt beam="1">  1       21 0.35581645E-02 0.18521329E+03</pdfrwt>
<pdfrwt beam="2">  1       21 0.29719806E+00 0.18521329E+03</pdfrwt>
<totfact> 0.17012752E+04</totfact>
</mgrwt>
</event>
<event>
12    1  0.1019868E-001  0.2051272E+03  0.7546771E-02  0.1146373E+00
         21   -1    0    0  501  502  0.00000000000E+00  0.00000000000E+00  0.94142276027E+03  0.94142276027E+03  0.00000000000E+00 0.  1.
         21   -1    0    0  502  503 -0.00000000000E+00 -0.00000000000E+00 -0.10126140522E+03  0.10126140522E+03  0.00000000000E+00 0.  1.
         -6    2    1    2    0  503  0.32188791930E+02 -0.10435056088E+03  0.25308455081E+02  0.20240896737E+03  0.16853401523E+03 0.  0.
        -24    2    3    3    0    0  0.24933137586E+02  0.25442318266E+01  0.40826640141E+02  0.94048248947E+02  0.80932837089E+02 0.  0.
          6    2    1    2  501    0 -0.32188791930E+02  0.10435056088E+03  0.81485289997E+03  0.84027519812E+03  0.17364331861E+03 0.  0.
         24    2    5    5    0    0 -0.85585986940E+02  0.51903292831E+02  0.54801562039E+03  0.56309980214E+03  0.82105748953E+02 0.  0.
          5    1    5    5  501    0  0.53397195010E+02  0.52447268054E+02  0.26683727958E+03  0.27717539598E+03  0.47000000000E+01 0. -1.
        -11    1    6    6    0    0  0.14181973604E+02  0.69174407501E+01  0.13160754932E+03  0.13255009016E+03  0.00000000000E+00 0.  1.
         12    1    6    6    0    0 -0.99767960544E+02  0.44985852081E+02  0.41640807107E+03  0.43054971199E+03  0.00000000000E+00 0. -1.
         -5    1    3    3    0  503  0.72556543438E+01 -0.10689479271E+03 -0.15518185060E+02  0.10836071842E+03  0.47000000000E+01 0.  1.
         11    1    4    4    0    0 -0.28728922029E+02  0.99520581445E+01  0.17379849036E+02  0.35020759198E+02  0.00000000000E+00 0. -1.
        -12    1    4    4    0    0  0.53662059616E+02 -0.74078263179E+01  0.23446791105E+02  0.59027489749E+02  0.00000000000E+00 0.  1.
<mgrwt>
<rscale>  2 0.20404193E+03</rscale>
<asrwt>0</asrwt>
<pdfrwt beam="1">  1       21 0.14483426E+00 0.20512718E+03</pdfrwt>
<pdfrwt beam="2">  1       21 0.15578678E-01 0.20512718E+03</pdfrwt>
<totfact> 0.11887491E+04</totfact>
</mgrwt>
</event>
<event>
12    1  0.1019868E-001  0.1826722E+03  0.7546771E-02  0.1165455E+00
         21   -1    0    0  503  502  0.00000000000E+00  0.00000000000E+00  0.20509258959E+03  0.20509258959E+03  0.00000000000E+00 0.  1.
         21   -1    0    0  501  503 -0.00000000000E+00 -0.00000000000E+00 -0.18121935518E+03  0.18121935518E+03  0.00000000000E+00 0.  1.
          6    2    1    2  501    0  0.48196208158E+02  0.30160236152E+02 -0.51145481377E+02  0.18883552504E+03  0.17265711953E+03 0.  0.
         24    2    3    3    0    0  0.66881385428E+02 -0.13637381448E+02  0.15074153873E+02  0.10713792869E+03  0.81192411952E+02 0.  0.
         -6    2    1    2    0  502 -0.48196208158E+02 -0.30160236152E+02  0.75018715788E+02  0.19747641973E+03  0.17359900433E+03 0.  0.
        -24    2    5    5    0    0  0.14121812566E+02 -0.16440555977E+02  0.10245971193E+03  0.12785700002E+03  0.73346454689E+02 0.  0.
          5    1    3    3  501    0 -0.18685177270E+02  0.43797617600E+02 -0.66219635250E+02  0.81697596352E+02  0.47000000000E+01 0. -1.
        -11    1    4    4    0    0  0.38193105105E+02 -0.24968704865E+02 -0.28464149565E+02  0.53780640669E+02  0.00000000000E+00 0.  1.
         12    1    4    4    0    0  0.28688280323E+02  0.11331323418E+02  0.43538303439E+02  0.53357288018E+02  0.00000000000E+00 0. -1.
         -5    1    5    5    0  502 -0.62318020724E+02 -0.13719680174E+02 -0.27440996138E+02  0.69619419705E+02  0.47000000000E+01 0.  1.
         13    1    6    6    0    0  0.35924523108E+02 -0.39217947738E+01  0.94986462260E+02  0.10162863695E+03  0.00000000000E+00 0. -1.
        -14    1    6    6    0    0 -0.21802710542E+02 -0.12518761204E+02  0.74732496661E+01  0.26228363076E+02  0.00000000000E+00 0.  1.
<mgrwt>
<rscale>  2 0.18244806E+03</rscale>
<asrwt>0</asrwt>
<pdfrwt beam="1">  1       21 0.31552706E-01 0.18267219E+03</pdfrwt>
<pdfrwt beam="2">  1       21 0.27879901E-01 0.18267219E+03</pdfrwt>
<totfact> 0.11903280E+05</totfact>
</mgrwt>
</event>
<event>
12    1  0.1019868E-001  0.1813319E+03  0.7546771E-02  0.1166549E+00
         21   -1    0    0  503  502  0.00000000000E+00  0.00000000000E+00  0.18246128363E+02  0.18246128363E+02  0.00000000000E+00 0. -1.
         21   -1    0    0  501  503 -0.00000000000E+00 -0.00000000000E+00 -0.18803405387E+04  0.18803405387E+04  0.00000000000E+00 0. -1.
          6    2    1    2  501    0 -0.12279598640E+02 -0.51727493375E+02 -0.11258742925E+04  0.11403641969E+04  0.17323699647E+03 0.  0.
         24    2    3    3    0    0 -0.40530218312E+02  0.11143686137E+02 -0.89069202674E+03  0.89524448971E+03  0.79771733853E+02 0.  0.
         -6    2    1    2    0  502  0.12279598640E+02  0.51727493375E+02 -0.73622011778E+03  0.75822247011E+03  0.17336300135E+03 0.  0.
        -24    2    5    5    0    0  0.23610862918E+02  0.26088126398E+02 -0.17812234672E+03  0.19940140147E+03  0.82433520615E+02 0.  0.
          5    1    3    3  501    0  0.28250619672E+02 -0.62871179512E+02 -0.23518226580E+03  0.24511970723E+03  0.47000000000E+01 0. -1.
        -13    1    4    4    0    0  0.21309872214E+02  0.20901644342E+00 -0.11098159129E+03  0.11300914984E+03  0.00000000000E+00 0.  1.
         14    1    4    4    0    0 -0.61840090526E+02  0.10934669694E+02 -0.77971043545E+03  0.78223533987E+03  0.00000000000E+00 0. -1.
         -5    1    5    5    0  502 -0.11331264278E+02  0.25639366977E+02 -0.55809777106E+03  0.55882106864E+03  0.47000000000E+01 0.  1.
         13    1    6    6    0    0  0.54542555905E+02  0.16630706253E+02 -0.12083390085E+03  0.13361250835E+03  0.00000000000E+00 0. -1.
        -14    1    6    6    0    0 -0.30931692987E+02  0.94574201448E+01 -0.57288445873E+02  0.65788893115E+02  0.00000000000E+00 0.  1.
<mgrwt>
<rscale>  2 0.18130176E+03</rscale>
<asrwt>0</asrwt>
<pdfrwt beam="1">  1       21 0.28070961E-02 0.18133188E+03</pdfrwt>
<pdfrwt beam="2">  1       21 0.28928322E+00 0.18133188E+03</pdfrwt>
<totfact> 0.28088205E+04</totfact>
</mgrwt>
</event>
<event>
12    1  0.1019868E-001  0.2042788E+03  0.7546771E-02  0.1146537E+00
         21   -1    0    0  503  502  0.00000000000E+00  0.00000000000E+00  0.10987287307E+04  0.10987287307E+04  0.00000000000E+00 0.  1.
         21   -1    0    0  501  503 -0.00000000000E+00 -0.00000000000E+00 -0.10461743081E+03  0.10461743081E+03  0.00000000000E+00 0. -1.
          6    2    1    2  501    0  0.75237951855E+02  0.83077623864E+02  0.14936945647E+02  0.20309007082E+03  0.16870039578E+03 0.  0.
         24    2    3    3    0    0  0.62790209996E+02  0.66031635447E+02  0.72343289081E+02  0.14174603880E+03  0.80966664057E+02 0.  0.
         -6    2    1    2    0  502 -0.75237951855E+02 -0.83077623864E+02  0.97917435427E+03  0.10002560907E+04  0.17078404481E+03 0.  0.
        -24    2    5    5    0    0 -0.42835653902E+02 -0.80009529213E+02  0.94562766978E+03  0.95327958427E+03  0.79333838461E+02 0.  0.
          5    1    3    3  501    0  0.12447741859E+02  0.17045988417E+02 -0.57406343434E+02  0.61344032024E+02  0.47000000000E+01 0. -1.
        -13    1    4    4    0    0  0.64202249294E+02  0.90276353027E+01  0.40293218929E+02  0.76334595730E+02  0.00000000000E+00 0.  1.
         14    1    4    4    0    0 -0.14120392980E+01  0.57004000145E+02  0.32050070153E+02  0.65411443068E+02  0.00000000000E+00 0. -1.
         -5    1    5    5    0  502 -0.32402297953E+02 -0.30680946509E+01  0.33546684498E+02  0.46976506450E+02  0.47000000000E+01 0.  1.
         13    1    6    6    0    0  0.19629769586E+02 -0.73041341920E+01  0.95778107140E+02  0.98041440409E+02  0.00000000000E+00 0. -1.
        -14    1    6    6    0    0 -0.62465423487E+02 -0.72705395021E+02  0.84984956264E+03  0.85523814386E+03  0.00000000000E+00 0.  1.
<mgrwt>
<rscale>  2 0.20384272E+03</rscale>
<asrwt>0</asrwt>
<pdfrwt beam="1">  1       21 0.16903518E+00 0.20427881E+03</pdfrwt>
<pdfrwt beam="2">  1       21 0.16094990E-01 0.20427881E+03</pdfrwt>
<totfact> 0.74053959E+03</totfact>
</mgrwt>
</event>
<event>
12    1  0.1019868E-001  0.2087172E+03  0.7546771E-02  0.1143238E+00
         21   -1    0    0  501  502  0.00000000000E+00  0.00000000000E+00  0.27538133624E+03  0.27538133624E+03  0.00000000000E+00 0.  1.
         21   -1    0    0  502  503 -0.00000000000E+00 -0.00000000000E+00 -0.15674550729E+03  0.15674550729E+03  0.00000000000E+00 0. -1.
         -6    2    1    2    0  503  0.99829984995E+02 -0.59028233925E+02  0.42520185136E+02  0.21300430842E+03  0.17352956797E+03 0.  0.
        -24    2    3    3    0    0  0.50447789567E+02 -0.10404454671E+03  0.26166054349E+02  0.14405057585E+03  0.81827005514E+02 0.  0.
          6    2    1    2  501    0 -0.99829984995E+02  0.59028233925E+02  0.76115643812E+02  0.21912253510E+03  0.16961938525E+03 0.  0.
         24    2    5    5    0    0 -0.16530192952E+02  0.22468666008E+02  0.94419510597E+02  0.12621086253E+03  0.78968662194E+02 0.  0.
          5    1    5    5  501    0 -0.83299792043E+02  0.36559567917E+02 -0.18303866785E+02  0.92911672571E+02  0.47000000000E+01 0. -1.
        -13    1    6    6    0    0 -0.42959523140E+02 -0.23375148182E+01  0.71121654790E+02  0.83122045114E+02  0.00000000000E+00 0.  1.
         14    1    6    6    0    0  0.26429330187E+02  0.24806180826E+02  0.23297855807E+02  0.43088817419E+02  0.00000000000E+00 0. -1.
         -5    1    3    3    0  503  0.49382195428E+02  0.45016312782E+02  0.16354130787E+02  0.68953732572E+02  0.47000000000E+01 0.  1.
         13    1    4    4    0    0  0.11673714253E+02 -0.75011267387E+02 -0.18527616960E+02  0.78142424007E+02  0.00000000000E+00 0. -1.
        -14    1    4    4    0    0  0.38774075315E+02 -0.29033279320E+02  0.44693671309E+02  0.65908151845E+02  0.00000000000E+00 0.  1.
<mgrwt>
<rscale>  2 0.20790257E+03</rscale>
<asrwt>0</asrwt>
<pdfrwt beam="1">  1       21 0.42366359E-01 0.20871720E+03</pdfrwt>
<pdfrwt beam="2">  1       21 0.24114694E-01 0.20871720E+03</pdfrwt>
<totfact> 0.86388264E+04</totfact>
</mgrwt>
</event>
<event>
12    1  0.1019868E-001  0.1827937E+03  0.7546771E-02  0.1165364E+00
         21   -1    0    0  501  502  0.00000000000E+00  0.00000000000E+00  0.28182337146E+03  0.28182337146E+03  0.00000000000E+00 0. -1.
         21   -1    0    0  502  503 -0.00000000000E+00 -0.00000000000E+00 -0.15337285313E+03  0.15337285313E+03  0.00000000000E+00 0. -1.
         -6    2    1    2    0  503  0.37761082849E+02  0.43578327343E+02 -0.40265541016E+02  0.18717601645E+03  0.17346059307E+03 0.  0.
        -24    2    3    3    0    0  0.74496267466E+02  0.70646600714E+02 -0.48374015978E+02  0.14059272998E+03  0.82979721881E+02 0.  0.
          6    2    1    2  501    0 -0.37761082849E+02 -0.43578327343E+02  0.16871605934E+03  0.24802020814E+03  0.17240633682E+03 0.  0.
         24    2    5    5    0    0 -0.30102689192E+02  0.41232428375E+02  0.83871082813E+02  0.12771943790E+03  0.81679931677E+02 0.  0.
          5    1    5    5  501    0 -0.76583936569E+01 -0.84810755718E+02  0.84844976525E+02  0.12030077024E+03  0.47000000000E+01 0. -1.
        -13    1    6    6    0    0 -0.19635752835E+02 -0.67775946061E+01 -0.90091366528E+01  0.22642065305E+02  0.00000000000E+00 0.  1.
         14    1    6    6    0    0 -0.10466936358E+02  0.48010022981E+02  0.92880219466E+02  0.10507737259E+03  0.00000000000E+00 0. -1.
         -5    1    3    3    0  503 -0.36735184616E+02 -0.27068273371E+02  0.81084749616E+01  0.46583286469E+02  0.47000000000E+01 0.  1.
         13    1    4    4    0    0  0.37333899802E+02  0.69283683623E+02 -0.62818467926E+02  0.10069860378E+03  0.00000000000E+00 0. -1.
        -14    1    4    4    0    0  0.37162367663E+02  0.13629170910E+01  0.14444451948E+02  0.39894126202E+02  0.00000000000E+00 0.  1.
<mgrwt>
<rscale>  2 0.18254318E+03</rscale>
<asrwt>0</asrwt>
<pdfrwt beam="1">  1       21 0.43357442E-01 0.18279373E+03</pdfrwt>
<pdfrwt beam="2">  1       21 0.23595824E-01 0.18279373E+03</pdfrwt>
<totfact> 0.86801463E+04</totfact>
</mgrwt>
</event>
<event>
12    1  0.1019868E-001  0.1970573E+03  0.7546771E-02  0.1152443E+00
         21   -1    0    0  503  502  0.00000000000E+00  0.00000000000E+00  0.14025678052E+03  0.14025678052E+03  0.00000000000E+00 0. -1.
         21   -1    0    0  501  503 -0.00000000000E+00 -0.00000000000E+00 -0.28728824072E+03  0.28728824072E+03  0.00000000000E+00 0.  1.
          6    2    1    2  501    0 -0.30603246591E+02 -0.87436662155E+02 -0.11683910121E+03  0.22909162313E+03  0.17392489076E+03 0.  0.
         24    2    3    3    0    0 -0.76110189973E+02 -0.15521998330E+02 -0.66676990891E+02  0.13019304842E+03  0.80440756410E+02 0.  0.
         -6    2    1    2    0  502  0.30603246591E+02  0.87436662155E+02 -0.30192358992E+02  0.19845339810E+03  0.17288853081E+03 0.  0.
        -24    2    5    5    0    0  0.55838928475E+02  0.65662114795E+02  0.29976284018E+02  0.12950902810E+03  0.91894023225E+02 0.  0.
          5    1    3    3  501    0  0.45506943382E+02 -0.71914663825E+02 -0.50162110321E+02  0.98898574717E+02  0.47000000000E+01 0. -1.
        -13    1    4    4    0    0 -0.15071919218E+02  0.11382220484E+02 -0.60294906274E+02  0.63183806585E+02  0.00000000000E+00 0.  1.
         14    1    4    4    0    0 -0.61038270755E+02 -0.26904218814E+02 -0.63820846175E+01  0.67009241832E+02  0.00000000000E+00 0. -1.
         -5    1    5    5    0  502 -0.25235681884E+02  0.21774547361E+02 -0.60168643010E+02  0.68944369999E+02  0.47000000000E+01 0.  1.
         13    1    6    6    0    0 -0.23580484800E+02  0.31417060375E+02  0.58182516189E+01  0.39710489772E+02  0.00000000000E+00 0. -1.
        -14    1    6    6    0    0  0.79419413275E+02  0.34245054420E+02  0.24158032399E+02  0.89798538332E+02  0.00000000000E+00 0.  1.
<mgrwt>
<rscale>  2 0.19682842E+03</rscale>
<asrwt>0</asrwt>
<pdfrwt beam="1">  1       21 0.21577966E-01 0.19705734E+03</pdfrwt>
<pdfrwt beam="2">  1       21 0.44198190E-01 0.19705734E+03</pdfrwt>
<totfact> 0.98258865E+04</totfact>
</mgrwt>
</event>
<event>
12    1  0.1019868E-001  0.2342844E+03  0.7546771E-02  0.1123865E+00
         21   -1    0    0  503  502  0.00000000000E+00  0.00000000000E+00  0.21690202546E+03  0.21690202546E+03  0.00000000000E+00 0.  1.
         21   -1    0    0  501  503 -0.00000000000E+00 -0.00000000000E+00 -0.62286631848E+03  0.62286631848E+03  0.00000000000E+00 0.  1.
          6    2    1    2  501    0  0.49373337172E+02  0.14985976843E+03 -0.52686701491E+03  0.57612723500E+03  0.17157523973E+03 0.  0.
         24    2    3    3    0    0  0.11780455872E+01  0.12449935951E+03 -0.22575249332E+03  0.27009131948E+03  0.80521142000E+02 0.  0.
         -6    2    1    2    0  502 -0.49373337172E+02 -0.14985976843E+03  0.12090272189E+03  0.26364110894E+03  0.17318628567E+03 0.  0.
        -24    2    5    5    0    0  0.24947945209E+02 -0.13182759405E+03  0.92278989823E+02  0.18184734166E+03  0.80945223360E+02 0.  0.
          5    1    3    3  501    0  0.48195291584E+02  0.25360408912E+02 -0.30111452159E+03  0.30603591552E+03  0.47000000000E+01 0. -1.
        -11    1    4    4    0    0  0.38027727028E+02  0.76666900540E+02 -0.10834511207E+03  0.13806732043E+03  0.00000000000E+00 0.  1.
         12    1    4    4    0    0 -0.36849681441E+02  0.47832458973E+02 -0.11740738125E+03  0.13202399905E+03  0.00000000000E+00 0. -1.
         -5    1    5    5    0  502 -0.74321282380E+02 -0.18032174380E+02  0.28623732070E+02  0.81793767276E+02  0.47000000000E+01 0.  1.
         11    1    6    6    0    0 -0.17231449851E+02 -0.13259022839E+02 -0.55600895859E+01  0.22441906042E+02  0.00000000000E+00 0. -1.
        -12    1    6    6    0    0  0.42179395060E+02 -0.11856857121E+03  0.97839079409E+02  0.15940543562E+03  0.00000000000E+00 0.  1.
<mgrwt>
<rscale>  2 0.23398671E+03</rscale>
<asrwt>0</asrwt>
<pdfrwt beam="1">  1       21 0.33369542E-01 0.23428437E+03</pdfrwt>
<pdfrwt beam="2">  1       21 0.95825588E-01 0.23428437E+03</pdfrwt>
<totfact> 0.76284037E+03</totfact>
</mgrwt>
</event>
<event>
12    1  0.1019868E-001  0.1754126E+03  0.7546771E-02  0.1173377E+00
         21   -1    0    0  501  502  0.00000000000E+00  0.00000000000E+00  0.80234901248E+02  0.80234901248E+02  0.00000000000E+00 0. -1.
         21   -1    0    0  502  503 -0.00000000000E+00 -0.00000000000E+00 -0.38270149164E+03  0.38270149164E+03  0.00000000000E+00 0. -1.
         -6    2    1    2    0  503 -0.77134629158E+01  0.53993093075E+01 -0.18350160641E+03  0.25098770606E+03  0.17097759791E+03 0.  0.
        -24    2    3    3    0    0  0.55346767487E+02 -0.86318401471E-01 -0.52378844975E+02  0.10531013972E+03  0.72687069030E+02 0.  0.
          6    2    1    2  501    0  0.77134629158E+01 -0.53993093075E+01 -0.11896498398E+03  0.21194868682E+03  0.17515972249E+03 0.  0.
         24    2    5    5    0    0  0.71907605162E+02  0.78917015310E+01 -0.95079496813E+02  0.14201911250E+03  0.76787596446E+02 0.  0.
          5    1    5    5  501    0 -0.64194142247E+02 -0.13291010838E+02 -0.23885487165E+02  0.69929574323E+02  0.47000000000E+01 0. -1.
        -11    1    6    6    0    0  0.30268819345E+01  0.16444507000E+01  0.13141138098E+02  0.13585129475E+02  0.00000000000E+00 0.  1.
         12    1    6    6    0    0  0.68880723228E+02  0.62472508309E+01 -0.10822063491E+03  0.12843398303E+03  0.00000000000E+00 0. -1.
         -5    1    3    3    0  503 -0.63060230402E+02  0.54856277089E+01 -0.13112276143E+03  0.14567756634E+03  0.47000000000E+01 0.  1.
         13    1    4    4    0    0  0.42897234849E+02  0.34194270910E+02 -0.30119917607E+02  0.62582987764E+02  0.00000000000E+00 0. -1.
        -14    1    4    4    0    0  0.12449532638E+02 -0.34280589312E+02 -0.22258927368E+02  0.42727151953E+02  0.00000000000E+00 0.  1.
<mgrwt>
<rscale>  2 0.17435916E+03</rscale>
<asrwt>0</asrwt>
<pdfrwt beam="1">  1       21 0.12343831E-01 0.17541259E+03</pdfrwt>
<pdfrwt beam="2">  1       21 0.58877151E-01 0.17541259E+03</pdfrwt>
<totfact> 0.15139182E+05</totfact>
</mgrwt>
</event>
<event>
12    1  0.1019868E-001  0.1752887E+03  0.7546771E-02  0.1173270E+00
         21   -1    0    0  503  502  0.00000000000E+00  0.00000000000E+00  0.23219024912E+03  0.23219024912E+03  0.00000000000E+00 0. -1.
         21   -1    0    0  501  503 -0.00000000000E+00 -0.00000000000E+00 -0.13745779002E+03  0.13745779002E+03  0.00000000000E+00 0. -1.
          6    2    1    2  501    0  0.15067506206E+01 -0.24967986757E+02  0.35270532685E+01  0.17205109040E+03  0.17018656511E+03 0.  0.
         24    2    3    3    0    0  0.11513297006E+02  0.20568725380E+02 -0.52512454842E+02  0.99001520983E+02  0.80548834701E+02 0.  0.
         -6    2    1    2    0  502 -0.15067506206E+01  0.24967986757E+02  0.91205405840E+02  0.19759694874E+03  0.17349483403E+03 0.  0.
        -24    2    5    5    0    0 -0.90088840509E+01 -0.44556966553E+02  0.86815561698E+02  0.12737329268E+03  0.81366643500E+02 0.  0.
          5    1    3    3  501    0 -0.10006546386E+02 -0.45536712137E+02  0.56039508111E+02  0.73049569418E+02  0.47000000000E+01 0. -1.
        -13    1    4    4    0    0 -0.24851852027E+02 -0.15423754964E+02 -0.33366244838E+02  0.44371308984E+02  0.00000000000E+00 0.  1.
         14    1    4    4    0    0  0.36365149034E+02  0.35992480344E+02 -0.19146210004E+02  0.54630211999E+02  0.00000000000E+00 0. -1.
         -5    1    5    5    0  502  0.75021334302E+01  0.69524953310E+02  0.43898441419E+01  0.70223656060E+02  0.47000000000E+01 0.  1.
         13    1    6    6    0    0 -0.32224701732E+02 -0.27047774750E+02  0.72902454771E+01  0.42698491774E+02  0.00000000000E+00 0. -1.
        -14    1    6    6    0    0  0.23215817681E+02 -0.17509191803E+02  0.79525316221E+02  0.84674800905E+02  0.00000000000E+00 0.  1.
<mgrwt>
<rscale>  2 0.17446446E+03</rscale>
<asrwt>0</asrwt>
<pdfrwt beam="1">  1       21 0.35721577E-01 0.17528870E+03</pdfrwt>
<pdfrwt beam="2">  1       21 0.21147352E-01 0.17528870E+03</pdfrwt>
<totfact> 0.15799473E+05</totfact>
</mgrwt>
</event>
<event>
12    1  0.1019868E-001  0.3321808E+03  0.7546771E-02  0.1070200E+00
         21   -1    0    0  503  502  0.00000000000E+00  0.00000000000E+00  0.11435375609E+03  0.11435375609E+03  0.00000000000E+00 0. -1.
         21   -1    0    0  501  503 -0.00000000000E+00 -0.00000000000E+00 -0.13314919210E+04  0.13314919210E+04  0.00000000000E+00 0. -1.
          6    2    1    2  501    0 -0.13353517591E+03 -0.24981269336E+03 -0.98834551916E+03  0.10426748963E+04  0.17351094820E+03 0.  0.
         24    2    3    3    0    0 -0.76133596999E+02 -0.53158818799E+02 -0.44377299004E+03  0.46082524465E+03  0.82481845351E+02 0.  0.
         -6    2    1    2    0  502  0.13353517591E+03  0.24981269336E+03 -0.22879264571E+03  0.40317078075E+03  0.17309702120E+03 0.  0.
        -24    2    5    5    0    0  0.12846115274E+03  0.13554878854E+03 -0.20080473085E+03  0.28532597164E+03  0.78820227904E+02 0.  0.
          5    1    3    3  501    0 -0.57401578915E+02 -0.19665387456E+03 -0.54457252912E+03  0.58184965164E+03  0.47000000000E+01 0. -1.
        -13    1    4    4    0    0 -0.86709752245E+02 -0.52473542299E+02 -0.43614788255E+03  0.44776894625E+03  0.00000000000E+00 0.  1.
         14    1    4    4    0    0  0.10576155246E+02 -0.68527650020E+00 -0.76251074891E+01  0.13056298399E+02  0.00000000000E+00 0. -1.
         -5    1    5    5    0  502  0.50740231783E+01  0.11426390481E+03 -0.27987914865E+02  0.11784480911E+03  0.47000000000E+01 0.  1.
         11    1    6    6    0    0  0.94295254860E+02  0.13352774612E+03 -0.18712081087E+03  0.24846619877E+03  0.00000000000E+00 0. -1.
        -12    1    6    6    0    0  0.34165897876E+02  0.20210424268E+01 -0.13683919974E+02  0.36859772870E+02  0.00000000000E+00 0.  1.
<mgrwt>
<rscale>  2 0.33212677E+03</rscale>
<asrwt>0</asrwt>
<pdfrwt beam="1">  1       21 0.17592887E-01 0.33218079E+03</pdfrwt>
<pdfrwt beam="2">  1       21 0.20484490E+00 0.33218079E+03</pdfrwt>
<totfact> 0.32995241E+03</totfact>
</mgrwt>
</event>
<event>
12    1  0.1019868E-001  0.2024873E+03  0.7546771E-02  0.1147882E+00
         21   -1    0    0  501  502  0.00000000000E+00  0.00000000000E+00  0.18603608614E+03  0.18603608614E+03  0.00000000000E+00 0. -1.
         21   -1    0    0  502  503 -0.00000000000E+00 -0.00000000000E+00 -0.22008384529E+03  0.22008384529E+03  0.00000000000E+00 0. -1.
         -6    2    1    2    0  503  0.10377174878E+03  0.37513034760E+01 -0.29709595713E+02  0.20358611784E+03  0.17257461915E+03 0.  0.
        -24    2    3    3    0    0  0.54212062231E+02  0.63336451586E+02 -0.44668667614E+02  0.12451389618E+03  0.80981273659E+02 0.  0.
          6    2    1    2  501    0 -0.10377174878E+03 -0.37513034760E+01 -0.43381634431E+01  0.20253381359E+03  0.17383462792E+03 0.  0.
         24    2    5    5    0    0 -0.50048238340E+01  0.99086236245E+01  0.43088932892E+02  0.92021739417E+02  0.80548838005E+02 0.  0.
          5    1    5    5  501    0 -0.98766924947E+02 -0.13659927100E+02 -0.47427096335E+02  0.11051207418E+03  0.47000000000E+01 0. -1.
        -13    1    6    6    0    0  0.32492455152E+01  0.44438527960E+02  0.31894396629E+02  0.54795920469E+02  0.00000000000E+00 0.  1.
         14    1    6    6    0    0 -0.82540693492E+01 -0.34529904336E+02  0.11194536263E+02  0.37225818949E+02  0.00000000000E+00 0. -1.
         -5    1    3    3    0  503  0.49559686549E+02 -0.59585148110E+02  0.14959071901E+02  0.79072221660E+02  0.47000000000E+01 0.  1.
         13    1    4    4    0    0  0.37545679099E+02  0.22100602640E+02  0.18438484136E+02  0.47308480776E+02  0.00000000000E+00 0. -1.
        -14    1    4    4    0    0  0.16666383132E+02  0.41235848946E+02 -0.63107151750E+02  0.77205415400E+02  0.00000000000E+00 0.  1.
<mgrwt>
<rscale>  2 0.20221664E+03</rscale>
<asrwt>0</asrwt>
<pdfrwt beam="1">  1       21 0.28620936E-01 0.20248735E+03</pdfrwt>
<pdfrwt beam="2">  1       21 0.33859053E-01 0.20248735E+03</pdfrwt>
<totfact> 0.97734683E+04</totfact>
</mgrwt>
</event>
<event>
12    1  0.1019868E-001  0.1788231E+03  0.7546771E-02  0.1172225E+00
         21   -1    0    0  501  502  0.00000000000E+00  0.00000000000E+00  0.20977579974E+03  0.20977579974E+03  0.00000000000E+00 0.  1.
         21   -1    0    0  502  503 -0.00000000000E+00 -0.00000000000E+00 -0.14232844835E+03  0.14232844835E+03  0.00000000000E+00 0.  1.
         -6    2    1    2    0  503  0.94129088928E+01 -0.49503228494E+02  0.20193684440E+02  0.16714311331E+03  0.15808182359E+03 0.  0.
        -24    2    3    3    0    0  0.32869514465E+02 -0.66172698204E+02 -0.27334463791E+02  0.11138382315E+03  0.78739775076E+02 0.  0.
          6    2    1    2  501    0 -0.94129088928E+01  0.49503228494E+02  0.47253666949E+02  0.18496113478E+03  0.17157662968E+03 0.  0.
         24    2    5    5    0    0 -0.36634559447E+02  0.54133732844E+02  0.87839584570E+02  0.13564818984E+03  0.80075506939E+02 0.  0.
          5    1    5    5  501    0  0.27221650554E+02 -0.46305043492E+01 -0.40585917621E+02  0.49312944939E+02  0.47000000000E+01 0. -1.
        -13    1    6    6    0    0 -0.10106321708E+02  0.70816855634E+02  0.54814964238E+02  0.90121279866E+02  0.00000000000E+00 0.  1.
         14    1    6    6    0    0 -0.26528237739E+02 -0.16683122790E+02  0.33024620332E+02  0.45526909972E+02  0.00000000000E+00 0. -1.
         -5    1    3    3    0  503 -0.23456605572E+02  0.16669469710E+02  0.47528148231E+02  0.55759290164E+02  0.47000000000E+01 0.  1.
         13    1    4    4    0    0  0.48357388659E+02 -0.26422088187E+02 -0.38576728884E+02  0.67266096910E+02  0.00000000000E+00 0. -1.
        -14    1    4    4    0    0 -0.15487874194E+02 -0.39750610017E+02  0.11242265093E+02  0.44117726236E+02  0.00000000000E+00 0.  1.
<mgrwt>
<rscale>  2 0.17550587E+03</rscale>
<asrwt>0</asrwt>
<pdfrwt beam="1">  1       21 0.32273200E-01 0.17882313E+03</pdfrwt>
<pdfrwt beam="2">  1       21 0.21896684E-01 0.17882313E+03</pdfrwt>
<totfact> 0.18062525E+05</totfact>
</mgrwt>
</event>
<event>
12    1  0.1019868E-001  0.1951069E+03  0.7546771E-02  0.1154540E+00
         21   -1    0    0  501  502  0.00000000000E+00  0.00000000000E+00  0.19228261244E+04  0.19228261244E+04  0.00000000000E+00 0.  1.
         21   -1    0    0  502  503 -0.00000000000E+00 -0.00000000000E+00 -0.29546248354E+03  0.29546248354E+03  0.00000000000E+00 0.  1.
         -6    2    1    2    0  503 -0.13946110818E+02  0.85770803801E+02 -0.25781689252E+03  0.32332067818E+03  0.17468710908E+03 0.  0.
        -24    2    3    3    0    0 -0.15774663160E+02  0.49856969039E+02 -0.40730982802E+02  0.10322631358E+03  0.79133441067E+02 0.  0.
          6    2    1    2  501    0  0.13946110818E+02 -0.85770803801E+02  0.18851805333E+04  0.18949679297E+04  0.17160036873E+03 0.  0.
         24    2    5    5    0    0 -0.31354634716E+02  0.48421965989E+01  0.76498277878E+03  0.77018885242E+03  0.83580240333E+02 0.  0.
          5    1    5    5  501    0  0.45300745534E+02 -0.90613000400E+02  0.11201977546E+04  0.11247790773E+04  0.47000000000E+01 0. -1.
        -13    1    6    6    0    0 -0.55351960315E+01 -0.35103000808E+02  0.47536547377E+03  0.47669192641E+03  0.00000000000E+00 0.  1.
         14    1    6    6    0    0 -0.25819438684E+02  0.39945197407E+02  0.28961730501E+03  0.29349692600E+03  0.00000000000E+00 0. -1.
         -5    1    3    3    0  503  0.18285523416E+01  0.35913834762E+02 -0.21708590972E+03  0.22009436460E+03  0.47000000000E+01 0.  1.
         13    1    4    4    0    0 -0.21607394985E+02  0.69875503915E+02 -0.37275467579E+02  0.82090962040E+02  0.00000000000E+00 0. -1.
        -14    1    4    4    0    0  0.58327318251E+01 -0.20018534876E+02 -0.34555152231E+01  0.21135351537E+02  0.00000000000E+00 0.  1.
<mgrwt>
<rscale>  2 0.19441354E+03</rscale>
<asrwt>0</asrwt>
<pdfrwt beam="1">  1       21 0.29581939E+00 0.19510692E+03</pdfrwt>
<pdfrwt beam="2">  1       21 0.45455768E-01 0.19510692E+03</pdfrwt>
<totfact> 0.16682435E+02</totfact>
</mgrwt>
</event>
<event>
12    1  0.1019868E-001  0.2294289E+03  0.7546771E-02  0.1128811E+00
         21   -1    0    0  503  502  0.00000000000E+00  0.00000000000E+00  0.17469391333E+03  0.17469391333E+03  0.00000000000E+00 0. -1.
         21   -1    0    0  501  503 -0.00000000000E+00 -0.00000000000E+00 -0.36109335186E+03  0.36109335186E+03  0.00000000000E+00 0. -1.
          6    2    1    2  501    0 -0.13168111573E+03 -0.52685527398E+02 -0.21159060056E+03  0.30497952921E+03  0.16770882491E+03 0.  0.
         24    2    3    3    0    0 -0.61693124822E+02  0.62865612865E+01 -0.18125374152E+03  0.20844745613E+03  0.82169706413E+02 0.  0.
         -6    2    1    2    0  502  0.13168111573E+03  0.52685527398E+02  0.25191162038E+02  0.23080773599E+03  0.18033839112E+03 0.  0.
        -24    2    5    5    0    0  0.13383287572E+03  0.89372955391E+02  0.49824787958E+02  0.18631613038E+03  0.79576549096E+02 0.  0.
          5    1    3    3  501    0 -0.69987990905E+02 -0.58972088684E+02 -0.30336859046E+02  0.96532073072E+02  0.47000000000E+01 0. -1.
        -11    1    4    4    0    0 -0.38291155896E+02  0.37532778699E+02 -0.57222348790E+02  0.78417595588E+02  0.00000000000E+00 0.  1.
         12    1    4    4    0    0 -0.23401968926E+02 -0.31246217412E+02 -0.12403139273E+03  0.13002986055E+03  0.00000000000E+00 0. -1.
         -5    1    5    5    0  502 -0.21517599883E+01 -0.36687427994E+02 -0.24633625920E+02  0.44491605611E+02  0.47000000000E+01 0.  1.
         11    1    6    6    0    0  0.84691808268E+02  0.39074202309E+02  0.65874810065E+02  0.11418838065E+03  0.00000000000E+00 0. -1.
        -12    1    6    6    0    0  0.49141067448E+02  0.50298753082E+02 -0.16050022106E+02  0.72127749730E+02  0.00000000000E+00 0.  1.
<mgrwt>
<rscale>  2 0.22694163E+03</rscale>
<asrwt>0</asrwt>
<pdfrwt beam="1">  1       21 0.26875987E-01 0.22942889E+03</pdfrwt>
<pdfrwt beam="2">  1       21 0.55552823E-01 0.22942889E+03</pdfrwt>
<totfact> 0.39542865E+04</totfact>
</mgrwt>
</event>
<event>
12    1  0.1019868E-001  0.2267180E+03  0.7546771E-02  0.1129033E+00
         21   -1    0    0  501  502  0.00000000000E+00  0.00000000000E+00  0.68909278526E+03  0.68909278526E+03  0.00000000000E+00 0. -1.
         21   -1    0    0  502  503 -0.00000000000E+00 -0.00000000000E+00 -0.76523943497E+02  0.76523943497E+02  0.00000000000E+00 0.  1.
         -6    2    1    2    0  503  0.20737900789E+02 -0.14414668028E+03  0.36908327897E+03  0.43315531916E+03  0.17376057591E+03 0.  0.
        -24    2    3    3    0    0 -0.30572686557E+02 -0.12902788304E+03  0.33608000669E+03  0.37012627519E+03  0.80379132363E+02 0.  0.
          6    2    1    2  501    0 -0.20737900789E+02  0.14414668028E+03  0.24348556279E+03  0.33246140959E+03  0.17331198347E+03 0.  0.
         24    2    5    5    0    0 -0.74132228984E+02  0.11397287410E+03  0.20924423279E+03  0.26206274807E+03  0.80052055371E+02 0.  0.
          5    1    5    5  501    0  0.53394328194E+02  0.30173806186E+02  0.34241330004E+02  0.70398661518E+02  0.47000000000E+01 0. -1.
        -11    1    6    6    0    0 -0.20742831190E+02  0.30259012626E+02  0.78406225723E+01  0.37514640518E+02  0.00000000000E+00 0.  1.
         12    1    6    6    0    0 -0.53389397793E+02  0.83713861469E+02  0.20140361021E+03  0.22454810755E+03  0.00000000000E+00 0. -1.
         -5    1    3    3    0  503  0.51310587346E+02 -0.15118797244E+02  0.33003272278E+02  0.63029043979E+02  0.47000000000E+01 0.  1.
         13    1    4    4    0    0 -0.69494728858E+01 -0.93950715645E+02  0.30030141309E+03  0.31473158540E+03  0.00000000000E+00 0. -1.
        -14    1    4    4    0    0 -0.23623213671E+02 -0.35077167392E+02  0.35778593604E+02  0.55394689787E+02  0.00000000000E+00 0.  1.
<mgrwt>
<rscale>  2 0.22663207E+03</rscale>
<asrwt>0</asrwt>
<pdfrwt beam="1">  1       21 0.10601427E+00 0.22671803E+03</pdfrwt>
<pdfrwt beam="2">  1       21 0.11772915E-01 0.22671803E+03</pdfrwt>
<totfact> 0.42597166E+04</totfact>
</mgrwt>
</event>
<event>
12    1  0.1019868E-001  0.1981025E+03  0.7546771E-02  0.1151487E+00
         21   -1    0    0  503  502  0.00000000000E+00  0.00000000000E+00  0.22900428448E+03  0.22900428448E+03  0.00000000000E+00 0.  1.
         21   -1    0    0  501  503 -0.00000000000E+00 -0.00000000000E+00 -0.19533700505E+03  0.19533700505E+03  0.00000000000E+00 0.  1.
          6    2    1    2  501    0 -0.94821028014E+02 -0.16741679869E+02 -0.58316762184E+02  0.20650775925E+03  0.17312798352E+03 0.  0.
         24    2    3    3    0    0 -0.59314735822E+02  0.12837219608E+02 -0.10294826992E+03  0.14208983036E+03  0.76864435979E+02 0.  0.
         -6    2    1    2    0  502  0.94821028014E+02  0.16741679869E+02  0.91984041617E+02  0.21783353028E+03  0.17239220343E+03 0.  0.
        -24    2    5    5    0    0 -0.55179163488E+01  0.44690657279E+02  0.53811732250E+02  0.10680081304E+03  0.80517134139E+02 0.  0.
          5    1    3    3  501    0 -0.35506292192E+02 -0.29578899477E+02  0.44631507738E+02  0.64417928890E+02  0.47000000000E+01 0. -1.
        -11    1    4    4    0    0 -0.26153511196E+02  0.22770003474E+02 -0.12916391256E+01  0.34700829064E+02  0.00000000000E+00 0.  1.
         12    1    4    4    0    0 -0.33161224626E+02 -0.99327838661E+01 -0.10165663080E+03  0.10738900129E+03  0.00000000000E+00 0. -1.
         -5    1    5    5    0  502  0.10033894436E+03 -0.27948977410E+02  0.38172309367E+02  0.11103271723E+03  0.47000000000E+01 0.  1.
         11    1    6    6    0    0  0.11063614699E+02  0.45059450330E+02  0.69767013049E+02  0.83786596446E+02  0.00000000000E+00 0. -1.
        -12    1    6    6    0    0 -0.16581531048E+02 -0.36879305070E+00 -0.15955280799E+02  0.23014216597E+02  0.00000000000E+00 0.  1.
<mgrwt>
<rscale>  2 0.19794165E+03</rscale>
<asrwt>0</asrwt>
<pdfrwt beam="1">  1       21 0.35231428E-01 0.19810252E+03</pdfrwt>
<pdfrwt beam="2">  1       21 0.30051847E-01 0.19810252E+03</pdfrwt>
<totfact> 0.82299125E+04</totfact>
</mgrwt>
</event>
<event>
12    1  0.1019868E-001  0.1991414E+03  0.7546771E-02  0.1150536E+00
         21   -1    0    0  501  502  0.00000000000E+00  0.00000000000E+00  0.37965198191E+03  0.37965198191E+03  0.00000000000E+00 0. -1.
         21   -1    0    0  502  503 -0.00000000000E+00 -0.00000000000E+00 -0.13579712530E+03  0.13579712530E+03  0.00000000000E+00 0. -1.
         -6    2    1    2    0  503 -0.51210083879E+02  0.84082724277E+02 -0.21478820823E+01  0.19915295927E+03  0.17310375668E+03 0.  0.
        -24    2    3    3    0    0  0.36027547913E+02  0.19196258839E+02 -0.10734313288E+02  0.89990353044E+02  0.79476773949E+02 0.  0.
          6    2    1    2  501    0  0.51210083879E+02 -0.84082724277E+02  0.24600273869E+03  0.31629614794E+03  0.17272385054E+03 0.  0.
         24    2    5    5    0    0 -0.34767117218E+02 -0.17581841556E+02  0.11556203600E+03  0.14643940409E+03  0.81068127615E+02 0.  0.
          5    1    5    5  501    0  0.85977201096E+02 -0.66500882721E+02  0.13044070270E+03  0.16985674385E+03  0.47000000000E+01 0. -1.
        -11    1    6    6    0    0 -0.19422900811E+02  0.48950627556E+01 -0.67493823230E+01  0.21136813313E+02  0.00000000000E+00 0.  1.
         12    1    6    6    0    0 -0.15344216407E+02 -0.22476904312E+02  0.12231141832E+03  0.12530259078E+03  0.00000000000E+00 0. -1.
         -5    1    3    3    0  503 -0.87237631791E+02  0.64886465438E+02  0.85864312052E+01  0.10916260623E+03  0.47000000000E+01 0.  1.
         13    1    4    4    0    0  0.40470941664E+01  0.18377943494E+02 -0.41524303230E+02  0.45589423522E+02  0.00000000000E+00 0. -1.
        -14    1    4    4    0    0  0.31980453746E+02  0.81831534429E+00  0.30789989943E+02  0.44400929523E+02  0.00000000000E+00 0.  1.
<mgrwt>
<rscale>  2 0.19905879E+03</rscale>
<asrwt>0</asrwt>
<pdfrwt beam="1">  1       21 0.58407997E-01 0.19914138E+03</pdfrwt>
<pdfrwt beam="2">  1       21 0.20891866E-01 0.19914138E+03</pdfrwt>
<totfact> 0.58213335E+04</totfact>
</mgrwt>
</event>
<event>
12    1  0.1019868E-001  0.2088023E+03  0.7546771E-02  0.1142813E+00
         21   -1    0    0  503  502  0.00000000000E+00  0.00000000000E+00  0.39642786613E+03  0.39642786613E+03  0.00000000000E+00 0.  1.
         21   -1    0    0  501  503 -0.00000000000E+00 -0.00000000000E+00 -0.11042826091E+03  0.11042826091E+03  0.00000000000E+00 0. -1.
          6    2    1    2  501    0 -0.95960575175E+02 -0.66776902474E+02  0.11581445442E+03  0.23748394603E+03  0.17122514441E+03 0.  0.
         24    2    3    3    0    0  0.15185566543E+02 -0.15806531534E+02  0.64912627058E+02  0.10495270609E+03  0.79504550141E+02 0.  0.
         -6    2    1    2    0  502  0.95960575175E+02  0.66776902474E+02  0.17018515079E+03  0.26937218100E+03  0.17300520124E+03 0.  0.
        -24    2    5    5    0    0  0.47035985767E+02 -0.15430032814E+02  0.29974722544E+02  0.99570385229E+02  0.81026586707E+02 0.  0.
          5    1    3    3  501    0 -0.11114614172E+03 -0.50970370940E+02  0.50901827364E+02  0.13253123995E+03  0.47000000000E+01 0. -1.
        -13    1    4    4    0    0 -0.29074786096E+02  0.10160961576E+02  0.19699556457E+02  0.36560372691E+02  0.00000000000E+00 0.  1.
         14    1    4    4    0    0  0.44260352639E+02 -0.25967493110E+02  0.45213070602E+02  0.68392333396E+02  0.00000000000E+00 0. -1.
         -5    1    5    5    0  502  0.48924589408E+02  0.82206935288E+02  0.14021042825E+03  0.16980179577E+03  0.47000000000E+01 0.  1.
         11    1    6    6    0    0  0.58617318282E+02 -0.16984704032E+02 -0.64016334707E+01  0.61363271463E+02  0.00000000000E+00 0. -1.
        -12    1    6    6    0    0 -0.11581332514E+02  0.15546712180E+01  0.36376356015E+02  0.38207113766E+02  0.00000000000E+00 0.  1.
<mgrwt>
<rscale>  2 0.20843317E+03</rscale>
<asrwt>0</asrwt>
<pdfrwt beam="1">  1       21 0.60988902E-01 0.20880227E+03</pdfrwt>
<pdfrwt beam="2">  1       21 0.16988963E-01 0.20880227E+03</pdfrwt>
<totfact> 0.77590570E+04</totfact>
</mgrwt>
</event>
<event>
12    1  0.1019868E-001  0.2363482E+03  0.7546771E-02  0.1122288E+00
         21   -1    0    0  501  502  0.00000000000E+00  0.00000000000E+00  0.19486336171E+03  0.19486336171E+03  0.00000000000E+00 0.  1.
         21   -1    0    0  502  503 -0.00000000000E+00 -0.00000000000E+00 -0.78054523475E+03  0.78054523475E+03  0.00000000000E+00 0.  1.
         -6    2    1    2    0  503 -0.58337970968E+02 -0.14988632156E+03 -0.68094273122E+03  0.72079363547E+03  0.17317977217E+03 0.  0.
        -24    2    3    3    0    0 -0.39143514161E+02 -0.10616523335E+03 -0.23867924865E+03  0.27593518749E+03  0.79807095465E+02 0.  0.
          6    2    1    2  501    0  0.58337970968E+02  0.14988632156E+03  0.95260858182E+02  0.25461496098E+03  0.17287255134E+03 0.  0.
         24    2    5    5    0    0  0.35711193847E+02  0.49008491973E+01  0.37737986744E+02  0.96932593616E+02  0.81685153932E+02 0.  0.
          5    1    5    5  501    0  0.22626777121E+02  0.14498547236E+03  0.57522871438E+02  0.15768236736E+03  0.47000000000E+01 0. -1.
        -13    1    6    6    0    0  0.12614984360E+02  0.28175345115E+02 -0.15395252168E+02  0.34496401146E+02  0.00000000000E+00 0.  1.
         14    1    6    6    0    0  0.23096209488E+02 -0.23274495918E+02  0.53133238911E+02  0.62436192470E+02  0.00000000000E+00 0. -1.
         -5    1    3    3    0  503 -0.19194456807E+02 -0.43721088208E+02 -0.44226348257E+03  0.44485844798E+03  0.47000000000E+01 0.  1.
         11    1    4    4    0    0 -0.44773302107E+02 -0.11515225072E+03 -0.23341194120E+03  0.26409434625E+03  0.00000000000E+00 0. -1.
        -12    1    4    4    0    0  0.56297879463E+01  0.89870173688E+01 -0.52673074510E+01  0.11840841241E+02  0.00000000000E+00 0.  1.
<mgrwt>
<rscale>  2 0.23629190E+03</rscale>
<asrwt>0</asrwt>
<pdfrwt beam="1">  1       21 0.29978979E-01 0.23634818E+03</pdfrwt>
<pdfrwt beam="2">  1       21 0.12008388E+00 0.23634818E+03</pdfrwt>
<totfact> 0.54460999E+03</totfact>
</mgrwt>
</event>
<event>
12    1  0.1019868E-001  0.2030397E+03  0.7546771E-02  0.1147208E+00
         21   -1    0    0  503  502  0.00000000000E+00  0.00000000000E+00  0.84616028903E+02  0.84616028903E+02  0.00000000000E+00 0. -1.
         21   -1    0    0  501  503 -0.00000000000E+00 -0.00000000000E+00 -0.58395761279E+03  0.58395761279E+03  0.00000000000E+00 0. -1.
          6    2    1    2  501    0 -0.21650844389E+02  0.10439343362E+03 -0.38578987838E+03  0.43593852823E+03  0.17274785695E+03 0.  0.
         24    2    3    3    0    0  0.19589916899E+02  0.35061138414E+02 -0.82921841537E+02  0.12247576282E+03  0.80692207828E+02 0.  0.
         -6    2    1    2    0  502  0.21650844389E+02 -0.10439343362E+03 -0.11355170550E+03  0.23263511347E+03  0.17279571218E+03 0.  0.
        -24    2    5    5    0    0  0.45101783881E+02 -0.12246211973E+03 -0.47867539128E+02  0.16043453388E+03  0.80104910472E+02 0.  0.
          5    1    3    3  501    0 -0.41240761288E+02  0.69332295207E+02 -0.30286803685E+03  0.31346276540E+03  0.47000000000E+01 0. -1.
        -11    1    4    4    0    0 -0.20810977637E+02 -0.81488185774E+01 -0.22827343598E+01  0.22465771978E+02  0.00000000000E+00 0.  1.
         12    1    4    4    0    0  0.40400894536E+02  0.43209956991E+02 -0.80639107177E+02  0.10000999084E+03  0.00000000000E+00 0. -1.
         -5    1    5    5    0  502 -0.23450939492E+02  0.18068686104E+02 -0.65684166374E+02  0.72200579588E+02  0.47000000000E+01 0.  1.
         13    1    6    6    0    0 -0.12811842785E+02 -0.69435938957E+02 -0.40912616086E+02  0.81604749184E+02  0.00000000000E+00 0. -1.
        -14    1    6    6    0    0  0.57913626666E+02 -0.53026180768E+02 -0.69549230425E+01  0.78829784694E+02  0.00000000000E+00 0.  1.
<mgrwt>
<rscale>  2 0.20302948E+03</rscale>
<asrwt>0</asrwt>
<pdfrwt beam="1">  1       21 0.13017851E-01 0.20303967E+03</pdfrwt>
<pdfrwt beam="2">  1       21 0.89839633E-01 0.20303967E+03</pdfrwt>
<totfact> 0.53214429E+04</totfact>
</mgrwt>
</event>
<event>
12    1  0.1019868E-001  0.2130098E+03  0.7546771E-02  0.1139392E+00
         21   -1    0    0  503  502  0.00000000000E+00  0.00000000000E+00  0.23120573285E+03  0.23120573285E+03  0.00000000000E+00 0. -1.
         21   -1    0    0  501  503 -0.00000000000E+00 -0.00000000000E+00 -0.19695841550E+03  0.19695841550E+03  0.00000000000E+00 0. -1.
          6    2    1    2  501    0 -0.73725155361E+02 -0.98276854166E+02 -0.22087133082E+01  0.21205722693E+03  0.17282838448E+03 0.  0.
         24    2    3    3    0    0 -0.88625836191E+02 -0.84839935763E+02 -0.54701883253E+02  0.15566392985E+03  0.78655002911E+02 0.  0.
         -6    2    1    2    0  502  0.73725155361E+02  0.98276854166E+02  0.36456030656E+02  0.21610692141E+03  0.17400982936E+03 0.  0.
        -24    2    5    5    0    0  0.48215916169E+02  0.86362621808E+02  0.90552254460E+02  0.15494188527E+03  0.77614431681E+02 0.  0.
          5    1    3    3  501    0  0.14900680830E+02 -0.13436918403E+02  0.52493169944E+02  0.56393297085E+02  0.47000000000E+01 0. -1.
        -13    1    4    4    0    0 -0.32599229858E+02 -0.55064244909E+01  0.14812480279E+02  0.36227614744E+02  0.00000000000E+00 0.  1.
         14    1    4    4    0    0 -0.56026606333E+02 -0.79333511272E+02 -0.69514363532E+02  0.11943631510E+03  0.00000000000E+00 0. -1.
         -5    1    5    5    0  502  0.25509239193E+02  0.11914232358E+02 -0.54096223804E+02  0.61165036146E+02  0.47000000000E+01 0.  1.
         11    1    6    6    0    0  0.40646369360E+02  0.20260866244E+02  0.73263750055E+02  0.86198649149E+02  0.00000000000E+00 0. -1.
        -12    1    6    6    0    0  0.75695468087E+01  0.66101755564E+02  0.17288504405E+02  0.68743236119E+02  0.00000000000E+00 0.  1.
<mgrwt>
<rscale>  2 0.21276834E+03</rscale>
<asrwt>0</asrwt>
<pdfrwt beam="1">  1       21 0.35570113E-01 0.21300976E+03</pdfrwt>
<pdfrwt beam="2">  1       21 0.30301295E-01 0.21300976E+03</pdfrwt>
<totfact> 0.78954959E+04</totfact>
</mgrwt>
</event>
<event>
12    1  0.1019868E-001  0.1780240E+03  0.7546771E-02  0.1169988E+00
         21   -1    0    0  501  502  0.00000000000E+00  0.00000000000E+00  0.31249803500E+03  0.31249803500E+03  0.00000000000E+00 0.  1.
         21   -1    0    0  502  503 -0.00000000000E+00 -0.00000000000E+00 -0.96551104023E+03  0.96551104023E+03  0.00000000000E+00 0.  1.
         -6    2    1    2    0  503  0.17209313439E+02  0.35583337093E+02 -0.93112775335E+03  0.94779648703E+03  0.17250203892E+03 0.  0.
        -24    2    3    3    0    0 -0.54664967141E+02  0.42928721428E+02 -0.59705511178E+03  0.60596833324E+03  0.76757283918E+02 0.  0.
          6    2    1    2  501    0 -0.17209313439E+02 -0.35583337093E+02  0.27811474812E+03  0.33021258819E+03  0.17358054595E+03 0.  0.
         24    2    5    5    0    0  0.15607624144E+02 -0.87504477351E+02  0.18714165708E+03  0.22034471531E+03  0.75027743288E+02 0.  0.
          5    1    5    5  501    0 -0.32816937583E+02  0.51921140258E+02  0.90973091047E+02  0.10986787289E+03  0.47000000000E+01 0. -1.
        -13    1    6    6    0    0 -0.98870355945E+00 -0.71735055316E+02  0.18367689105E+03  0.19719050687E+03  0.00000000000E+00 0.  1.
         14    1    6    6    0    0  0.16596327703E+02 -0.15769422035E+02  0.34647660270E+01  0.23154208433E+02  0.00000000000E+00 0. -1.
         -5    1    3    3    0  503  0.71874280580E+02 -0.73453843353E+01 -0.33407264157E+03  0.34182815379E+03  0.47000000000E+01 0.  1.
         11    1    4    4    0    0 -0.30848180300E+02  0.35266388964E+02 -0.12900814569E+03  0.13725316052E+03  0.00000000000E+00 0. -1.
        -12    1    4    4    0    0 -0.23816786841E+02  0.76623324637E+01 -0.46804696609E+03  0.46871517272E+03  0.00000000000E+00 0.  1.
<mgrwt>
<rscale>  2 0.17776055E+03</rscale>
<asrwt>0</asrwt>
<pdfrwt beam="1">  1       21 0.48076621E-01 0.17802399E+03</pdfrwt>
<pdfrwt beam="2">  1       21 0.14854016E+00 0.17802399E+03</pdfrwt>
<totfact> 0.12874857E+03</totfact>
</mgrwt>
</event>
<event>
12    1  0.1019868E-001  0.2114163E+03  0.7546771E-02  0.1141875E+00
         21   -1    0    0  501  502  0.00000000000E+00  0.00000000000E+00  0.27212760433E+03  0.27212760433E+03  0.00000000000E+00 0. -1.
         21   -1    0    0  502  503 -0.00000000000E+00 -0.00000000000E+00 -0.18410932061E+03  0.18410932061E+03  0.00000000000E+00 0.  1.
         -6    2    1    2    0  503 -0.77450691978E+02  0.93983013570E+02 -0.41286684670E+02  0.20841313312E+03  0.16401227758E+03 0.  0.
        -24    2    3    3    0    0 -0.67942041004E+01  0.97958730949E+02 -0.22608827825E+00  0.12646065796E+03  0.79687970972E+02 0.  0.
          6    2    1    2  501    0  0.77450691978E+02 -0.93983013570E+02  0.12930496839E+03  0.24782379182E+03  0.17281620414E+03 0.  0.
         24    2    5    5    0    0  0.46876010474E+02  0.21270041775E+02  0.47570968397E+02  0.10318418912E+03  0.75724532446E+02 0.  0.
          5    1    5    5  501    0  0.30574681504E+02 -0.11525305535E+03  0.81733999996E+02  0.14463960271E+03  0.47000000000E+01 0. -1.
        -13    1    6    6    0    0  0.28524850713E+02  0.37951635961E+02  0.59123028102E+02  0.75825630444E+02  0.00000000000E+00 0.  1.
         14    1    6    6    0    0  0.18351159761E+02 -0.16681594186E+02 -0.11552059705E+02  0.27358558671E+02  0.00000000000E+00 0. -1.
         -5    1    3    3    0  503 -0.70656487877E+02 -0.39757173788E+01 -0.41060596392E+02  0.81952475154E+02  0.47000000000E+01 0.  1.
         11    1    4    4    0    0  0.31596434583E+02  0.47956731709E+02 -0.19320025861E+02  0.60592459876E+02  0.00000000000E+00 0. -1.
        -12    1    4    4    0    0 -0.38390638684E+02  0.50001999240E+02  0.19093937583E+02  0.65868198085E+02  0.00000000000E+00 0.  1.
<mgrwt>
<rscale>  2 0.20960990E+03</rscale>
<asrwt>0</asrwt>
<pdfrwt beam="1">  1       21 0.41865786E-01 0.21141631E+03</pdfrwt>
<pdfrwt beam="2">  1       21 0.28324511E-01 0.21141631E+03</pdfrwt>
<totfact> 0.64884183E+04</totfact>
</mgrwt>
</event>
<event>
12    1  0.1019868E-001  0.1773385E+03  0.7546771E-02  0.1170528E+00
         21   -1    0    0  501  502  0.00000000000E+00  0.00000000000E+00  0.29484979506E+02  0.29484979506E+02  0.00000000000E+00 0.  1.
         21   -1    0    0  502  503 -0.00000000000E+00 -0.00000000000E+00 -0.10690588674E+04  0.10690588674E+04  0.00000000000E+00 0.  1.
         -6    2    1    2    0  503 -0.33417955759E+02 -0.19996127434E+02 -0.48121047398E+03  0.51284739715E+03  0.17300961713E+03 0.  0.
        -24    2    3    3    0    0 -0.41585835638E+02 -0.36464738281E+02 -0.19938054254E+03  0.23037947037E+03  0.10130666692E+03 0.  0.
          6    2    1    2  501    0  0.33417955759E+02  0.19996127434E+02 -0.55836341388E+03  0.58569644972E+03  0.17249354878E+03 0.  0.
         24    2    5    5    0    0  0.72030473575E+02  0.12656900866E+02 -0.21715332641E+03  0.24219797146E+03  0.78458294283E+02 0.  0.
          5    1    5    5  501    0 -0.38612517815E+02  0.73392265679E+01 -0.34121008747E+03  0.34349847826E+03  0.47000000000E+01 0. -1.
        -13    1    6    6    0    0 -0.99331073973E+01  0.22590614506E+02 -0.51789140528E+02  0.57368262680E+02  0.00000000000E+00 0.  1.
         14    1    6    6    0    0  0.81963580972E+02 -0.99337136398E+01 -0.16536418589E+03  0.18482970878E+03  0.00000000000E+00 0. -1.
         -5    1    3    3    0  503  0.81678798785E+01  0.16468610848E+02 -0.28182993144E+03  0.28246792678E+03  0.47000000000E+01 0.  1.
         11    1    4    4    0    0 -0.44044621173E+02  0.37608850293E+00 -0.18594117404E+03  0.19108686585E+03  0.00000000000E+00 0. -1.
        -12    1    4    4    0    0  0.24587855356E+01 -0.36840826784E+02 -0.13439368498E+02  0.39292604521E+02  0.00000000000E+00 0.  1.
<mgrwt>
<rscale>  2 0.17721248E+03</rscale>
<asrwt>0</asrwt>
<pdfrwt beam="1">  1       21 0.45361509E-02 0.17733847E+03</pdfrwt>
<pdfrwt beam="2">  1       21 0.16447059E+00 0.17733847E+03</pdfrwt>
<totfact> 0.74695501E+04</totfact>
</mgrwt>
</event>
<event>
12    1  0.1019868E-001  0.2380051E+03  0.7546771E-02  0.1121220E+00
         21   -1    0    0  503  502  0.00000000000E+00  0.00000000000E+00  0.42408657311E+02  0.42408657311E+02  0.00000000000E+00 0. -1.
         21   -1    0    0  501  503 -0.00000000000E+00 -0.00000000000E+00 -0.14356141513E+04  0.14356141513E+04  0.00000000000E+00 0.  1.
          6    2    1    2  501    0 -0.12329529085E+03 -0.10749575991E+03 -0.49799713330E+03  0.55171593257E+03  0.17214022868E+03 0.  0.
         24    2    3    3    0    0 -0.11152676937E+03 -0.99881298215E+01 -0.28098450231E+03  0.31346646660E+03  0.82285795395E+02 0.  0.
         -6    2    1    2    0  502  0.12329529085E+03  0.10749575991E+03 -0.89520836069E+03  0.92630687605E+03  0.17288537362E+03 0.  0.
        -24    2    5    5    0    0  0.44655948783E+02  0.10870164182E+03 -0.72518771862E+03  0.73891768478E+03  0.79321604544E+02 0.  0.
          5    1    3    3  501    0 -0.11768521480E+02 -0.97507630086E+02 -0.21701263099E+03  0.23824946596E+03  0.47000000000E+01 0. -1.
        -11    1    4    4    0    0  0.12129299167E+02 -0.91804493135E+01 -0.34362618247E+02  0.37579117615E+02  0.00000000000E+00 0.  1.
         12    1    4    4    0    0 -0.12365606854E+03 -0.80768050807E+00 -0.24662188406E+03  0.27588734899E+03  0.00000000000E+00 0. -1.
         -5    1    5    5    0  502  0.78639342071E+02 -0.12058819087E+01 -0.17002064207E+03  0.18738919127E+03  0.47000000000E+01 0.  1.
         13    1    6    6    0    0 -0.38383245905E+01  0.45815611647E+02 -0.45456008318E+03  0.45687927533E+03  0.00000000000E+00 0. -1.
        -14    1    6    6    0    0  0.48494273373E+02  0.62886030169E+02 -0.27062763544E+03  0.28203840945E+03  0.00000000000E+00 0.  1.
<mgrwt>
<rscale>  2 0.23786979E+03</rscale>
<asrwt>0</asrwt>
<pdfrwt beam="1">  1       21 0.65244085E-02 0.23800508E+03</pdfrwt>
<pdfrwt beam="2">  1       21 0.22086373E+00 0.23800508E+03</pdfrwt>
<totfact> 0.16391330E+04</totfact>
</mgrwt>
</event>
<event>
12    1  0.1019868E-001  0.1980824E+03  0.7546771E-02  0.1151427E+00
         21   -1    0    0  501  502  0.00000000000E+00  0.00000000000E+00  0.24527319786E+03  0.24527319786E+03  0.00000000000E+00 0.  1.
         21   -1    0    0  502  503 -0.00000000000E+00 -0.00000000000E+00 -0.35012887699E+03  0.35012887699E+03  0.00000000000E+00 0. -1.
         -6    2    1    2    0  503 -0.94103577850E+01 -0.95985397215E+02 -0.27193390777E+03  0.33626546705E+03  0.17269818418E+03 0.  0.
        -24    2    3    3    0    0 -0.59591665833E+02 -0.65185525192E+02 -0.71692888858E+02  0.12749441673E+03  0.57572881232E+02 0.  0.
          6    2    1    2  501    0  0.94103577850E+01  0.95985397215E+02  0.16707822864E+03  0.25913660780E+03  0.17301703877E+03 0.  0.
         24    2    5    5    0    0  0.33473586450E+02  0.87854638370E+02  0.39952040554E+02  0.12941264737E+03  0.79451553043E+02 0.  0.
          5    1    5    5  501    0 -0.24063228665E+02  0.81307588445E+01  0.12712618809E+03  0.12972396044E+03  0.47000000000E+01 0. -1.
        -13    1    6    6    0    0  0.50580683750E+02  0.27515205389E+02  0.32856020423E+02  0.66294872911E+02  0.00000000000E+00 0.  1.
         14    1    6    6    0    0 -0.17107097300E+02  0.60339432982E+02  0.70960201308E+01  0.63117774456E+02  0.00000000000E+00 0. -1.
         -5    1    3    3    0  503  0.50181308048E+02 -0.30799872023E+02 -0.20024101891E+03  0.20877105032E+03  0.47000000000E+01 0.  1.
         13    1    4    4    0    0 -0.49471281973E+02 -0.57589733380E+02 -0.81575663540E+02  0.11143865583E+03  0.00000000000E+00 0. -1.
        -14    1    4    4    0    0 -0.10120383859E+02 -0.75957918121E+01  0.98827746825E+01  0.16055760902E+02  0.00000000000E+00 0.  1.
<mgrwt>
<rscale>  2 0.19801278E+03</rscale>
<asrwt>0</asrwt>
<pdfrwt beam="1">  1       21 0.37734338E-01 0.19808242E+03</pdfrwt>
<pdfrwt beam="2">  1       21 0.53865981E-01 0.19808242E+03</pdfrwt>
<totfact> 0.22006710E+04</totfact>
</mgrwt>
</event>
<event>
12    1  0.1019868E-001  0.1792149E+03  0.7546771E-02  0.1168778E+00
         21   -1    0    0  501  502  0.00000000000E+00  0.00000000000E+00  0.23797159432E+03  0.23797159432E+03  0.00000000000E+00 0.  1.
         21   -1    0    0  502  503 -0.00000000000E+00 -0.00000000000E+00 -0.17103856840E+03  0.17103856840E+03  0.00000000000E+00 0.  1.
         -6    2    1    2    0  503  0.30970896779E+02 -0.32258542186E+02 -0.61239571086E+02  0.18938923495E+03  0.17354592261E+03 0.  0.
        -24    2    3    3    0    0 -0.29259027310E+02 -0.75154337281E+02 -0.27731444286E+02  0.10807147825E+03  0.66378809249E+02 0.  0.
          6    2    1    2  501    0 -0.30970896779E+02  0.32258542186E+02  0.12817259700E+03  0.21962092777E+03  0.17264219444E+03 0.  0.
         24    2    5    5    0    0 -0.11236390849E+02 -0.43606253909E+02  0.36434490047E+02  0.98861297602E+02  0.80114432154E+02 0.  0.
          5    1    5    5  501    0 -0.19734505930E+02  0.75864796095E+02  0.91738106957E+02  0.12075963017E+03  0.47000000000E+01 0. -1.
        -11    1    6    6    0    0 -0.33025258355E+02 -0.43735209466E+02  0.49165606966E+02  0.73625356670E+02  0.00000000000E+00 0.  1.
         12    1    6    6    0    0  0.21788867506E+02  0.12895555724E+00 -0.12731116919E+02  0.25235940932E+02  0.00000000000E+00 0. -1.
         -5    1    3    3    0  503  0.60229924090E+02  0.42895795095E+02 -0.33508126800E+02  0.81317756697E+02  0.47000000000E+01 0.  1.
         11    1    4    4    0    0  0.87277635543E+01 -0.25338113573E+02  0.16419989372E+02  0.31429443315E+02  0.00000000000E+00 0. -1.
        -12    1    4    4    0    0 -0.37986790864E+02 -0.49816223708E+02 -0.44151433658E+02  0.76642034933E+02  0.00000000000E+00 0.  1.
<mgrwt>
<rscale>  2 0.17899580E+03</rscale>
<asrwt>0</asrwt>
<pdfrwt beam="1">  1       21 0.36611014E-01 0.17921495E+03</pdfrwt>
<pdfrwt beam="2">  1       21 0.26313626E-01 0.17921495E+03</pdfrwt>
<totfact> 0.99308641E+04</totfact>
</mgrwt>
</event>
<event>
12    1  0.1019868E-001  0.1810612E+03  0.7546771E-02  0.1167393E+00
         21   -1    0    0  503  502  0.00000000000E+00  0.00000000000E+00  0.22509816016E+03  0.22509816016E+03  0.00000000000E+00 0.  1.
         21   -1    0    0  501  503 -0.00000000000E+00 -0.00000000000E+00 -0.17029744772E+03  0.17029744772E+03  0.00000000000E+00 0.  1.
          6    2    1    2  501    0 -0.41297744618E+02 -0.19716187609E+02 -0.51023800521E+02  0.18567679801E+03  0.17256365010E+03 0.  0.
         24    2    3    3    0    0 -0.45282214282E+02  0.29401251823E+02 -0.81038181476E+02  0.12778593587E+03  0.82747483412E+02 0.  0.
         -6    2    1    2    0  502  0.41297744618E+02  0.19716187609E+02  0.10582451296E+03  0.20971880987E+03  0.17518253311E+03 0.  0.
        -24    2    5    5    0    0  0.11284811837E+02 -0.39434481078E+02  0.60079495279E+01  0.89781267475E+02  0.79637649738E+02 0.  0.
          5    1    3    3  501    0  0.39844696642E+01 -0.49117439432E+02  0.30014380955E+02  0.57890862137E+02  0.47000000000E+01 0. -1.
        -13    1    4    4    0    0  0.15003714311E+02 -0.51152014018E+01 -0.48596018120E+02  0.51116041568E+02  0.00000000000E+00 0.  1.
         14    1    4    4    0    0 -0.60285928593E+02  0.34516453225E+02 -0.32442163357E+02  0.76669894306E+02  0.00000000000E+00 0. -1.
         -5    1    5    5    0  502  0.30012932780E+02  0.59150668687E+02  0.99816563436E+02  0.11993754240E+03  0.47000000000E+01 0.  1.
         13    1    6    6    0    0 -0.18038627339E+02 -0.27280796170E+02  0.34204324532E+02  0.47324092518E+02  0.00000000000E+00 0. -1.
        -14    1    6    6    0    0  0.29323439177E+02 -0.12153684908E+02 -0.28196375004E+02  0.42457174957E+02  0.00000000000E+00 0.  1.
<mgrwt>
<rscale>  2 0.18042468E+03</rscale>
<asrwt>0</asrwt>
<pdfrwt beam="1">  1       21 0.34630486E-01 0.18106118E+03</pdfrwt>
<pdfrwt beam="2">  1       21 0.26199607E-01 0.18106118E+03</pdfrwt>
<totfact> 0.11175337E+05</totfact>
</mgrwt>
</event>
<event>
12    1  0.1019868E-001  0.2119706E+03  0.7546771E-02  0.1140038E+00
         21   -1    0    0  501  502  0.00000000000E+00  0.00000000000E+00  0.10560301873E+03  0.10560301873E+03  0.00000000000E+00 0. -1.
         21   -1    0    0  502  503 -0.00000000000E+00 -0.00000000000E+00 -0.45629410854E+03  0.45629410854E+03  0.00000000000E+00 0. -1.
         -6    2    1    2    0  503 -0.41577109400E+02  0.11545134402E+03 -0.24859920607E+03  0.32662224119E+03  0.17269294808E+03 0.  0.
        -24    2    3    3    0    0 -0.57370676281E+02  0.57361273704E+01 -0.11188001237E+03  0.15055096743E+03  0.82608467907E+02 0.  0.
          6    2    1    2  501    0  0.41577109400E+02 -0.11545134402E+03 -0.10209188374E+03  0.23527488609E+03  0.17284053470E+03 0.  0.
         24    2    5    5    0    0  0.84698682106E+02 -0.55186290260E+02 -0.95373268783E+02  0.16071902432E+03  0.80716485280E+02 0.  0.
          5    1    5    5  501    0 -0.43121572707E+02 -0.60265053759E+02 -0.67186149526E+01  0.74555861769E+02  0.47000000000E+01 0. -1.
        -11    1    6    6    0    0 -0.10726108146E+02 -0.25915596835E+01 -0.33821787863E+02  0.35576381375E+02  0.00000000000E+00 0.  1.
         12    1    6    6    0    0  0.95424790252E+02 -0.52594730577E+02 -0.61551480920E+02  0.12514264294E+03  0.00000000000E+00 0. -1.
         -5    1    3    3    0  503  0.15793566881E+02  0.10971521665E+03 -0.13671919370E+03  0.17607127376E+03  0.47000000000E+01 0.  1.
         13    1    4    4    0    0 -0.33154965310E+02  0.40995288997E+02 -0.85024824076E+02  0.10004542045E+03  0.00000000000E+00 0. -1.
        -14    1    4    4    0    0 -0.24215710971E+02 -0.35259161627E+02 -0.26855188299E+02  0.50505546973E+02  0.00000000000E+00 0.  1.
<mgrwt>
<rscale>  2 0.21194047E+03</rscale>
<asrwt>0</asrwt>
<pdfrwt beam="1">  1       21 0.16246618E-01 0.21197056E+03</pdfrwt>
<pdfrwt beam="2">  1       21 0.70199094E-01 0.21197056E+03</pdfrwt>
<totfact> 0.61873603E+04</totfact>
</mgrwt>
</event>
<event>
12    1  0.1019868E-001  0.2062691E+03  0.7546771E-02  0.1145244E+00
         21   -1    0    0  501  502  0.00000000000E+00  0.00000000000E+00  0.15048742953E+03  0.15048742953E+03  0.00000000000E+00 0. -1.
         21   -1    0    0  502  503 -0.00000000000E+00 -0.00000000000E+00 -0.34824170617E+03  0.34824170617E+03  0.00000000000E+00 0.  1.
         -6    2    1    2    0  503  0.10085687518E+03  0.39453452905E+02  0.13665350937E+02  0.20335613418E+03  0.17157590529E+03 0.  0.
        -24    2    3    3    0    0  0.42617033429E+02 -0.20171056591E+02  0.54578878898E+02  0.11038856957E+03  0.83568530009E+02 0.  0.
          6    2    1    2  501    0 -0.10085687518E+03 -0.39453452905E+02 -0.21141962757E+03  0.29537300152E+03  0.17555132266E+03 0.  0.
         24    2    5    5    0    0 -0.89626645337E+02  0.16056641481E+02 -0.19428678312E+03  0.23601718462E+03  0.98315848415E+02 0.  0.
          5    1    5    5  501    0 -0.11230229839E+02 -0.55510094386E+02 -0.17132844452E+02  0.59355816901E+02  0.47000000000E+01 0. -1.
        -11    1    6    6    0    0 -0.61285766831E+02  0.29419782255E+02 -0.40628739218E+02  0.79196990185E+02  0.00000000000E+00 0.  1.
         12    1    6    6    0    0 -0.28340878506E+02 -0.13363140774E+02 -0.15365804390E+03  0.15682019443E+03  0.00000000000E+00 0. -1.
         -5    1    3    3    0  503  0.58239841747E+02  0.59624509496E+02 -0.40913527961E+02  0.92967564610E+02  0.47000000000E+01 0.  1.
         13    1    4    4    0    0  0.64685338155E+02 -0.28879729871E+02  0.32346650420E+02  0.77875140855E+02  0.00000000000E+00 0. -1.
        -14    1    4    4    0    0 -0.22068304727E+02  0.87086732799E+01  0.22232228477E+02  0.32513428716E+02  0.00000000000E+00 0.  1.
<mgrwt>
<rscale>  2 0.20542074E+03</rscale>
<asrwt>0</asrwt>
<pdfrwt beam="1">  1       21 0.23151913E-01 0.20626912E+03</pdfrwt>
<pdfrwt beam="2">  1       21 0.53575646E-01 0.20626912E+03</pdfrwt>
<totfact> 0.57419454E+04</totfact>
</mgrwt>
</event>
<event>
12    1  0.1019868E-001  0.2220912E+03  0.7546771E-02  0.1133517E+00
         21   -1    0    0  503  502  0.00000000000E+00  0.00000000000E+00  0.81618769078E+03  0.81618769078E+03  0.00000000000E+00 0. -1.
         21   -1    0    0  501  503 -0.00000000000E+00 -0.00000000000E+00 -0.72454387235E+02  0.72454387235E+02  0.00000000000E+00 0. -1.
          6    2    1    2  501    0 -0.86868392773E+02 -0.10491919282E+03  0.17410067859E+03  0.27724547066E+03  0.16733155719E+03 0.  0.
         24    2    3    3    0    0 -0.52976897541E+01  0.22334605441E+01  0.80686990883E+02  0.11328304275E+03  0.79307019961E+02 0.  0.
         -6    2    1    2    0  502  0.86868392773E+02  0.10491919282E+03  0.56963262496E+03  0.61139660736E+03  0.17541473538E+03 0.  0.
        -24    2    5    5    0    0  0.55292501436E+02  0.28560495215E+02  0.13775327825E+03  0.17165856292E+03  0.81349455767E+02 0.  0.
          5    1    3    3  501    0 -0.81570703019E+02 -0.10715265336E+03  0.93413687708E+02  0.16396242791E+03  0.47000000000E+01 0. -1.
        -11    1    4    4    0    0 -0.38878784744E+02  0.14344269072E+02  0.56878093356E+02  0.70373542345E+02  0.00000000000E+00 0.  1.
         12    1    4    4    0    0  0.33581094989E+02 -0.12110808528E+02  0.23808897527E+02  0.42909500409E+02  0.00000000000E+00 0. -1.
         -5    1    5    5    0  502  0.31575891338E+02  0.76358697603E+02  0.43187934671E+03  0.43973804444E+03  0.47000000000E+01 0.  1.
         13    1    6    6    0    0  0.42474372669E+02 -0.19220147141E+02  0.96780349206E+02  0.10742403075E+03  0.00000000000E+00 0. -1.
        -14    1    6    6    0    0  0.12818128767E+02  0.47780642356E+02  0.40972929041E+02  0.64234532171E+02  0.00000000000E+00 0.  1.
<mgrwt>
<rscale>  2 0.22049213E+03</rscale>
<asrwt>0</asrwt>
<pdfrwt beam="1">  1       21 0.12556733E+00 0.22209116E+03</pdfrwt>
<pdfrwt beam="2">  1       21 0.11146829E-01 0.22209116E+03</pdfrwt>
<totfact> 0.31042395E+04</totfact>
</mgrwt>
</event>
<event>
12    1  0.1019868E-001  0.3144798E+03  0.7546771E-02  0.1079681E+00
         21   -1    0    0  501  502  0.00000000000E+00  0.00000000000E+00  0.35240834870E+03  0.35240834870E+03  0.00000000000E+00 0. -1.
         21   -1    0    0  502  503 -0.00000000000E+00 -0.00000000000E+00 -0.27509645935E+03  0.27509645935E+03  0.00000000000E+00 0. -1.
         -6    2    1    2    0  503  0.18215087767E+03  0.16788359532E+03  0.81138895414E+02  0.31300173795E+03  0.17327066629E+03 0.  0.
        -24    2    3    3    0    0  0.12864576302E+03  0.55605467238E+02 -0.59974004377E+01  0.16106754366E+03  0.79152286634E+02 0.  0.
          6    2    1    2  501    0 -0.18215087767E+03 -0.16788359532E+03 -0.38270060705E+01  0.31450307010E+03  0.19373613838E+03 0.  0.
         24    2    5    5    0    0 -0.12072420948E+03 -0.19753889222E+03  0.27178164419E+01  0.24581830541E+03  0.82603293253E+02 0.  0.
          5    1    5    5  501    0 -0.61426668187E+02  0.29655296897E+02 -0.65448225124E+01  0.68684764688E+02  0.47000000000E+01 0. -1.
        -13    1    6    6    0    0  0.11591053333E+02 -0.30697843058E+02  0.20574777663E+01  0.32877702179E+02  0.00000000000E+00 0.  1.
         14    1    6    6    0    0 -0.13231526282E+03 -0.16684104916E+03  0.66033867558E+00  0.21294060323E+03  0.00000000000E+00 0. -1.
         -5    1    3    3    0  503  0.53505114653E+02  0.11227812808E+03  0.87136295852E+02  0.15193419429E+03  0.47000000000E+01 0.  1.
         11    1    4    4    0    0  0.13336495061E+03  0.54325552454E+02 -0.20780517720E+02  0.14549675466E+03  0.00000000000E+00 0. -1.
        -12    1    4    4    0    0 -0.47191875931E+01  0.12799147837E+01  0.14783117282E+02  0.15570788996E+02  0.00000000000E+00 0.  1.
<mgrwt>
<rscale>  2 0.31139013E+03</rscale>
<asrwt>0</asrwt>
<pdfrwt beam="1">  1       21 0.54216670E-01 0.31447978E+03</pdfrwt>
<pdfrwt beam="2">  1       21 0.42322532E-01 0.31447978E+03</pdfrwt>
<totfact> 0.16251622E+04</totfact>
</mgrwt>
</event>
<event>
12    1  0.1019868E-001  0.2354189E+03  0.7546771E-02  0.1122956E+00
         21   -1    0    0  503  502  0.00000000000E+00  0.00000000000E+00  0.10341190467E+03  0.10341190467E+03  0.00000000000E+00 0. -1.
         21   -1    0    0  501  503 -0.00000000000E+00 -0.00000000000E+00 -0.60183599473E+03  0.60183599473E+03  0.00000000000E+00 0. -1.
          6    2    1    2  501    0  0.15371166357E+03 -0.41300990102E+02 -0.13145920057E+03  0.26926015989E+03  0.17287702274E+03 0.  0.
         24    2    3    3    0    0  0.40449333923E+02 -0.65199529713E+02 -0.97763044121E+02  0.14860769837E+03  0.81483175750E+02 0.  0.
         -6    2    1    2    0  502 -0.15371166357E+03  0.41300990102E+02 -0.36696488949E+03  0.43598773950E+03  0.17346190238E+03 0.  0.
        -24    2    5    5    0    0 -0.22319886420E+02  0.54591338430E+02 -0.19146440776E+03  0.21629945682E+03  0.81537991262E+02 0.  0.
          5    1    3    3  501    0  0.11326232965E+03  0.23898539610E+02 -0.33696156445E+02  0.12065246152E+03  0.47000000000E+01 0. -1.
        -13    1    4    4    0    0  0.63462055697E+02 -0.43915015905E+02 -0.84872524381E+02  0.11471402063E+03  0.00000000000E+00 0.  1.
         14    1    4    4    0    0 -0.23012721774E+02 -0.21284513808E+02 -0.12890519740E+02  0.33893677738E+02  0.00000000000E+00 0. -1.
         -5    1    5    5    0  502 -0.13139177715E+03 -0.13290348328E+02 -0.17550048173E+03  0.21968828269E+03  0.47000000000E+01 0.  1.
         13    1    6    6    0    0 -0.44686209889E+02  0.61849877703E+02 -0.13385907406E+03  0.15407957826E+03  0.00000000000E+00 0. -1.
        -14    1    6    6    0    0  0.22366323470E+02 -0.72585392732E+01 -0.57605333695E+02  0.62219878560E+02  0.00000000000E+00 0.  1.
<mgrwt>
<rscale>  2 0.23531121E+03</rscale>
<asrwt>0</asrwt>
<pdfrwt beam="1">  1       21 0.15909523E-01 0.23541894E+03</pdfrwt>
<pdfrwt beam="2">  1       21 0.92590156E-01 0.23541894E+03</pdfrwt>
<totfact> 0.33892498E+04</totfact>
</mgrwt>
</event>
<event>
12    1  0.1019868E-001  0.1960325E+03  0.7546771E-02  0.1153335E+00
         21   -1    0    0  501  502  0.00000000000E+00  0.00000000000E+00  0.62486335948E+02  0.62486335948E+02  0.00000000000E+00 0.  1.
         21   -1    0    0  502  503 -0.00000000000E+00 -0.00000000000E+00 -0.62059514628E+03  0.62059514628E+03  0.00000000000E+00 0.  1.
         -6    2    1    2    0  503  0.86478721092E+02 -0.25124105126E+02 -0.31983040058E+03  0.37512694602E+03  0.17412337764E+03 0.  0.
        -24    2    3    3    0    0  0.57982188935E+02 -0.78629882763E+02 -0.16165636726E+03  0.20566888218E+03  0.81377609479E+02 0.  0.
          6    2    1    2  501    0 -0.86478721092E+02  0.25124105126E+02 -0.23827840975E+03  0.30795453620E+03  0.17305954453E+03 0.  0.
         24    2    5    5    0    0 -0.93191405130E+02 -0.39263730744E+02 -0.14495202153E+03  0.19427622573E+03  0.80659065167E+02 0.  0.
          5    1    5    5  501    0  0.67126840379E+01  0.64387835870E+02 -0.93326388220E+02  0.11367831048E+03  0.47000000000E+01 0. -1.
        -11    1    6    6    0    0 -0.29340484943E+02 -0.11811061899E+01 -0.10670101788E+03  0.11066781956E+03  0.00000000000E+00 0.  1.
         12    1    6    6    0    0 -0.63850920186E+02 -0.38082624554E+02 -0.38251003651E+02  0.83608406168E+02  0.00000000000E+00 0. -1.
         -5    1    3    3    0  503  0.28496532156E+02  0.53505777638E+02 -0.15817403332E+03  0.16945806384E+03  0.47000000000E+01 0.  1.
         11    1    4    4    0    0 -0.69312349174E+01  0.10681068269E+02 -0.37090078085E+02  0.39214807525E+02  0.00000000000E+00 0. -1.
        -12    1    4    4    0    0  0.64913423853E+02 -0.89310951032E+02 -0.12456628917E+03  0.16645407465E+03  0.00000000000E+00 0.  1.
<mgrwt>
<rscale>  2 0.19579599E+03</rscale>
<asrwt>0</asrwt>
<pdfrwt beam="1">  1       21 0.96132819E-02 0.19603250E+03</pdfrwt>
<pdfrwt beam="2">  1       21 0.95476181E-01 0.19603250E+03</pdfrwt>
<totfact> 0.79526429E+04</totfact>
</mgrwt>
</event>
<event>
12    1  0.1019868E-001  0.2286176E+03  0.7546771E-02  0.1128272E+00
         21   -1    0    0  503  502  0.00000000000E+00  0.00000000000E+00  0.49349374790E+03  0.49349374790E+03  0.00000000000E+00 0.  1.
         21   -1    0    0  501  503 -0.00000000000E+00 -0.00000000000E+00 -0.57181859800E+03  0.57181859800E+03  0.00000000000E+00 0.  1.
          6    2    1    2  501    0  0.13037171614E+03 -0.48368552308E+02 -0.52077689424E+03  0.56728644533E+03  0.17683052977E+03 0.  0.
         24    2    3    3    0    0  0.31830397184E+02 -0.32985727331E+02 -0.39955512743E+03  0.41023922442E+03  0.80936326875E+02 0.  0.
         -6    2    1    2    0  502 -0.13037171614E+03  0.48368552308E+02  0.44245204415E+03  0.49802590057E+03  0.18146538250E+03 0.  0.
        -24    2    5    5    0    0 -0.12183985453E+03  0.96939153889E+00  0.42077909379E+03  0.44500439662E+03  0.78281398619E+02 0.  0.
          5    1    3    3  501    0  0.98541318954E+02 -0.15382824978E+02 -0.12122176681E+03  0.15704722091E+03  0.47000000000E+01 0. -1.
        -11    1    4    4    0    0  0.51357586694E+02 -0.40589050411E+02 -0.35522009374E+03  0.36120131191E+03  0.00000000000E+00 0.  1.
         12    1    4    4    0    0 -0.19527189510E+02  0.76033230801E+01 -0.44335033685E+02  0.49037912515E+02  0.00000000000E+00 0. -1.
         -5    1    5    5    0  502 -0.85318616088E+01  0.47399160769E+02  0.21672950363E+02  0.53021503954E+02  0.47000000000E+01 0.  1.
         11    1    6    6    0    0 -0.19418677167E+02 -0.25066458750E+02  0.16895925361E+03  0.17190881814E+03  0.00000000000E+00 0. -1.
        -12    1    6    6    0    0 -0.10242117736E+03  0.26035850288E+02  0.25181984018E+03  0.27309557847E+03  0.00000000000E+00 0.  1.
<mgrwt>
<rscale>  2 0.22769669E+03</rscale>
<asrwt>0</asrwt>
<pdfrwt beam="1">  1       21 0.75922116E-01 0.22861755E+03</pdfrwt>
<pdfrwt beam="2">  1       21 0.87972091E-01 0.22861755E+03</pdfrwt>
<totfact> 0.16599002E+03</totfact>
</mgrwt>
</event>
<event>
12    1  0.1019868E-001  0.1842537E+03  0.7546771E-02  0.1164400E+00
         21   -1    0    0  501  502  0.00000000000E+00  0.00000000000E+00  0.41714983526E+03  0.41714983526E+03  0.00000000000E+00 0.  1.
         21   -1    0    0  502  503 -0.00000000000E+00 -0.00000000000E+00 -0.92477167023E+02  0.92477167023E+02  0.00000000000E+00 0.  1.
         -6    2    1    2    0  503  0.39031158477E+02  0.48565750109E+02  0.68334016639E+02  0.19393897230E+03  0.17047206144E+03 0.  0.
        -24    2    3    3    0    0  0.11075624297E+02  0.31105578664E+02 -0.27074185317E+02  0.92888566667E+02  0.82492713796E+02 0.  0.
          6    2    1    2  501    0 -0.39031158477E+02 -0.48565750109E+02  0.25633865159E+03  0.31568802998E+03  0.17339943643E+03 0.  0.
         24    2    5    5    0    0  0.31486698621E+02 -0.45040276439E+02  0.20999142826E+03  0.23109871479E+03  0.79310638259E+02 0.  0.
          5    1    5    5  501    0 -0.70517857097E+02 -0.35254736697E+01  0.46347223334E+02  0.84589315194E+02  0.47000000000E+01 0. -1.
        -11    1    6    6    0    0  0.20725064344E+01  0.57500038084E+01  0.13834924857E+03  0.13848419551E+03  0.00000000000E+00 0.  1.
         12    1    6    6    0    0  0.29414192186E+02 -0.50790280247E+02  0.71642179692E+02  0.92614519276E+02  0.00000000000E+00 0. -1.
         -5    1    3    3    0  503  0.27955534180E+02  0.17460171445E+02  0.95408201956E+02  0.10105040563E+03  0.47000000000E+01 0. -1.
         11    1    4    4    0    0 -0.27999906002E+02  0.11262209835E+02 -0.37205952704E+02  0.47907358758E+02  0.00000000000E+00 0. -1.
        -12    1    4    4    0    0  0.39075530299E+02  0.19843368829E+02  0.10131767388E+02  0.44981207910E+02  0.00000000000E+00 0.  1.
<mgrwt>
<rscale>  2 0.18356176E+03</rscale>
<asrwt>0</asrwt>
<pdfrwt beam="1">  1       21 0.64176897E-01 0.18425371E+03</pdfrwt>
<pdfrwt beam="2">  1       21 0.14227257E-01 0.18425371E+03</pdfrwt>
<totfact> 0.97081510E+04</totfact>
</mgrwt>
</event>
<event>
12    1  0.1019868E-001  0.2077850E+03  0.7546771E-02  0.1143911E+00
         21   -1    0    0  501  502  0.00000000000E+00  0.00000000000E+00  0.31854530507E+03  0.31854530507E+03  0.00000000000E+00 0.  1.
         21   -1    0    0  502  503 -0.00000000000E+00 -0.00000000000E+00 -0.18365396763E+03  0.18365396763E+03  0.00000000000E+00 0.  1.
         -6    2    1    2    0  503 -0.68953042545E+02 -0.83499174990E+02 -0.63879969545E+02  0.21464987582E+03  0.17397495331E+03 0.  0.
        -24    2    3    3    0    0 -0.55294072521E+01 -0.35458484117E+02  0.23595295808E+02  0.96309360602E+02  0.86202531951E+02 0.  0.
          6    2    1    2  501    0  0.68953042545E+02  0.83499174990E+02  0.19877130699E+03  0.28754939687E+03  0.17733580818E+03 0.  0.
         24    2    5    5    0    0  0.41827405263E+02  0.91951826194E+02  0.21771564729E+03  0.25307874936E+03  0.80275028061E+02 0.  0.
          5    1    5    5  501    0  0.27125637282E+02 -0.84526512048E+01 -0.18944340307E+02  0.34470647513E+02  0.47000000000E+01 0. -1.
        -11    1    6    6    0    0  0.23174634134E+02  0.16270895749E+01  0.10449618485E+03  0.10704748356E+03  0.00000000000E+00 0.  1.
         12    1    6    6    0    0  0.18652771129E+02  0.90324736619E+02  0.11321946244E+03  0.14603126580E+03  0.00000000000E+00 0. -1.
         -5    1    3    3    0  503 -0.63423635293E+02 -0.48040690872E+02 -0.87475265353E+02  0.11834051522E+03  0.47000000000E+01 0.  1.
         11    1    4    4    0    0  0.52908141456E+01 -0.61354618011E+02  0.28433658481E+02  0.67829601209E+02  0.00000000000E+00 0. -1.
        -12    1    4    4    0    0 -0.10820221398E+02  0.25896133893E+02 -0.48383626733E+01  0.28479759393E+02  0.00000000000E+00 0.  1.
<mgrwt>
<rscale>  2 0.20706610E+03</rscale>
<asrwt>0</asrwt>
<pdfrwt beam="1">  1       21 0.49006970E-01 0.20778504E+03</pdfrwt>
<pdfrwt beam="2">  1       21 0.28254457E-01 0.20778504E+03</pdfrwt>
<totfact> 0.47211359E+04</totfact>
</mgrwt>
</event>
<event>
12    1  0.1019868E-001  0.3134570E+03  0.7546771E-02  0.1078759E+00
         21   -1    0    0  501  502  0.00000000000E+00  0.00000000000E+00  0.26602255805E+04  0.26602255805E+04  0.00000000000E+00 0. -1.
         21   -1    0    0  502  503 -0.00000000000E+00 -0.00000000000E+00 -0.61066529801E+02  0.61066529801E+02  0.00000000000E+00 0. -1.
         -6    2    1    2    0  503  0.11923219456E+03  0.23217711531E+03  0.44260087305E+03  0.54207242440E+03  0.17269757200E+03 0.  0.
        -24    2    3    3    0    0  0.99493397571E+02  0.18422925638E+03  0.22460250658E+03  0.31794300852E+03  0.82474939426E+02 0.  0.
          6    2    1    2  501    0 -0.11923219456E+03 -0.23217711531E+03  0.21565581776E+04  0.21792196859E+04  0.17358783578E+03 0.  0.
         24    2    5    5    0    0 -0.10749141555E+02 -0.67270943253E+02  0.10258107328E+04  0.10313632086E+04  0.82349770741E+02 0.  0.
          5    1    5    5  501    0 -0.10848305300E+03 -0.16490617206E+03  0.11307474448E+04  0.11478564772E+04  0.47000000000E+01 0. -1.
        -11    1    6    6    0    0  0.24909348585E+02 -0.48974679712E+01  0.11728078160E+03  0.11999684401E+03  0.00000000000E+00 0.  1.
         12    1    6    6    0    0 -0.35658490140E+02 -0.62373475282E+02  0.90852995121E+03  0.91136636463E+03  0.00000000000E+00 0. -1.
         -5    1    3    3    0  503  0.19738796988E+02  0.47947858929E+02  0.21799836646E+03  0.22412941588E+03  0.47000000000E+01 0.  1.
         13    1    4    4    0    0  0.39038461477E+02  0.12981155611E+03  0.97249066657E+02  0.16683052041E+03  0.00000000000E+00 0. -1.
        -14    1    4    4    0    0  0.60454936094E+02  0.54417700273E+02  0.12735343992E+03  0.15111248811E+03  0.00000000000E+00 0.  1.
<mgrwt>
<rscale>  2 0.31333385E+03</rscale>
<asrwt>0</asrwt>
<pdfrwt beam="1">  1       21 0.40926538E+00 0.31345696E+03</pdfrwt>
<pdfrwt beam="2">  1       21 0.93948528E-02 0.31345696E+03</pdfrwt>
<totfact> 0.59509524E+02</totfact>
</mgrwt>
</event>
<event>
12    1  0.1019868E-001  0.2560815E+03  0.7546771E-02  0.1109669E+00
         21   -1    0    0  503  502  0.00000000000E+00  0.00000000000E+00  0.21500662170E+03  0.21500662170E+03  0.00000000000E+00 0.  1.
         21   -1    0    0  501  503 -0.00000000000E+00 -0.00000000000E+00 -0.77252248263E+03  0.77252248263E+03  0.00000000000E+00 0.  1.
          6    2    1    2  501    0  0.13589627466E+02 -0.18513313739E+03 -0.66355259462E+03  0.71125224804E+03  0.17640509625E+03 0.  0.
         24    2    3    3    0    0 -0.41511700122E+02 -0.10562478495E+03 -0.25945143922E+03  0.29570734289E+03  0.85134992086E+02 0.  0.
         -6    2    1    2    0  502 -0.13589627466E+02  0.18513313739E+03  0.10603673368E+03  0.27627685629E+03  0.17500330252E+03 0.  0.
        -24    2    5    5    0    0 -0.45716188847E+02  0.31622756118E+02  0.32567622658E+02  0.10302168788E+03  0.80391849713E+02 0.  0.
          5    1    3    3  501    0  0.55101327588E+02 -0.79508352442E+02 -0.40410115539E+03  0.41554490515E+03  0.47000000000E+01 0. -1.
        -13    1    4    4    0    0  0.17501651461E+02 -0.24408689110E+02 -0.12110305573E+03  0.12477196006E+03  0.00000000000E+00 0.  1.
         14    1    4    4    0    0 -0.59013351583E+02 -0.81216095842E+02 -0.13834838349E+03  0.17093538283E+03  0.00000000000E+00 0. -1.
         -5    1    5    5    0  502  0.32126561381E+02  0.15351038128E+03  0.73469111024E+02  0.17325516841E+03  0.47000000000E+01 0.  1.
         11    1    6    6    0    0 -0.45341157523E+02  0.42041483745E+02 -0.68848093546E+01  0.62215010415E+02  0.00000000000E+00 0. -1.
        -12    1    6    6    0    0 -0.37503132360E+00 -0.10418727627E+02  0.39452432012E+02  0.40806677463E+02  0.00000000000E+00 0.  1.
<mgrwt>
<rscale>  2 0.25584021E+03</rscale>
<asrwt>0</asrwt>
<pdfrwt beam="1">  1       21 0.33077942E-01 0.25608146E+03</pdfrwt>
<pdfrwt beam="2">  1       21 0.11884961E+00 0.25608146E+03</pdfrwt>
<totfact> 0.45449571E+03</totfact>
</mgrwt>
</event>
<event>
12    1  0.1019868E-001  0.1775960E+03  0.7546771E-02  0.1170321E+00
         21   -1    0    0  503  502  0.00000000000E+00  0.00000000000E+00  0.19470404490E+03  0.19470404490E+03  0.00000000000E+00 0.  1.
         21   -1    0    0  501  503 -0.00000000000E+00 -0.00000000000E+00 -0.22440072361E+03  0.22440072361E+03  0.00000000000E+00 0.  1.
          6    2    1    2  501    0 -0.26900030724E+02  0.38338025550E+02 -0.12593855594E+03  0.21771737426E+03  0.17130942568E+03 0.  0.
         24    2    3    3    0    0  0.65566207233E+01  0.35142138886E+02  0.43977164907E+01  0.83035545016E+02  0.74817127885E+02 0.  0.
         -6    2    1    2    0  502  0.26900030724E+02 -0.38338025550E+02  0.96241877236E+02  0.20138739425E+03  0.17059005766E+03 0.  0.
        -24    2    5    5    0    0  0.67857516700E+02 -0.52744227410E+02  0.26850956222E+02  0.11939810087E+03  0.78411329183E+02 0.  0.
          5    1    3    3  501    0 -0.33456651447E+02  0.31958866644E+01 -0.13033627243E+03  0.13468182924E+03  0.47000000000E+01 0. -1.
        -13    1    4    4    0    0 -0.10949932542E+01  0.20301256575E+02 -0.34870679913E+02  0.40364642279E+02  0.00000000000E+00 0.  1.
         14    1    4    4    0    0  0.76516139775E+01  0.14840882311E+02  0.39268396404E+02  0.42670902737E+02  0.00000000000E+00 0. -1.
         -5    1    5    5    0  502 -0.40957485976E+02  0.14406201860E+02  0.69390921014E+02  0.81989293379E+02  0.47000000000E+01 0.  1.
         11    1    6    6    0    0  0.13673652214E+01 -0.31153616134E+00 -0.21729975117E+02  0.21775182227E+02  0.00000000000E+00 0. -1.
        -12    1    6    6    0    0  0.66490151479E+02 -0.52432691248E+02  0.48580931339E+02  0.97622918646E+02  0.00000000000E+00 0.  1.
<mgrwt>
<rscale>  2 0.17742228E+03</rscale>
<asrwt>0</asrwt>
<pdfrwt beam="1">  1       21 0.29954469E-01 0.17759599E+03</pdfrwt>
<pdfrwt beam="2">  1       21 0.34523188E-01 0.17759599E+03</pdfrwt>
<totfact> 0.86942740E+04</totfact>
</mgrwt>
</event>
<event>
11    1  0.1019868E-001  0.2598027E+03  0.7546771E-02  0.1107408E+00
         21   -1    0    0  501  502  0.00000000000E+00  0.00000000000E+00  0.15321752789E+03  0.15321752789E+03  0.00000000000E+00 0.  1.
         21   -1    0    0  502  503 -0.00000000000E+00 -0.00000000000E+00 -0.14367834510E+04  0.14367834510E+04  0.00000000000E+00 0. -1.
         -6    2    1    2    0  503  0.11696133671E+03 -0.15411055759E+03 -0.13046894108E+04  0.13303052006E+04  0.17339968289E+03 0.  0.
          6    2    1    2  501    0 -0.11696133671E+03  0.15411055759E+03  0.21123487687E+02  0.25969577823E+03  0.17194672795E+03 0.  0.
         24    2    4    4    0    0 -0.33334959490E+02  0.12365030710E+03 -0.33487499309E+02  0.15516995497E+03  0.80967180665E+02 0.  0.
          5    1    4    4  501    0 -0.83626377222E+02  0.30460250489E+02  0.54610986996E+02  0.10452582326E+03  0.47000000000E+01 0. -1.
        -13    1    5    5    0    0  0.22198546089E+02  0.42903165663E+02  0.76089752532E+01  0.48901468043E+02  0.00000000000E+00 0.  1.
         14    1    5    5    0    0 -0.55533505578E+02  0.80747141442E+02 -0.41096474562E+02  0.10626848693E+03  0.00000000000E+00 0. -1.
         -5    1    3    3    0  503  0.26764514072E+02  0.63672389772E+01 -0.95971595227E+02  0.99947576439E+02  0.47000000000E+01 0.  1.
         11    1    3    3    0    0  0.90649418816E+02 -0.28998106014E+02 -0.60937037284E+03  0.61675802271E+03  0.00000000000E+00 0. -1.
        -12    1    3    3    0    0 -0.45259617563E+00 -0.13147969056E+03 -0.59934744270E+03  0.61359960149E+03  0.00000000000E+00 0.  1.
<mgrwt>
<rscale>  2 0.25956054E+03</rscale>
<asrwt>0</asrwt>
<pdfrwt beam="1">  1       21 0.23571929E-01 0.25980275E+03</pdfrwt>
<pdfrwt beam="2">  1       21 0.22104359E+00 0.25980275E+03</pdfrwt>
<totfact> 0.15738214E+03</totfact>
</mgrwt>
</event>
<event>
12    1  0.1019868E-001  0.1790922E+03  0.7546771E-02  0.1169348E+00
         21   -1    0    0  503  502  0.00000000000E+00  0.00000000000E+00  0.86207012079E+03  0.86207012079E+03  0.00000000000E+00 0. -1.
         21   -1    0    0  501  503 -0.00000000000E+00 -0.00000000000E+00 -0.52565645961E+02  0.52565645961E+02  0.00000000000E+00 0. -1.
          6    2    1    2  501    0 -0.41051656001E+02  0.18499587032E+02  0.15523646116E+03  0.23700712293E+03  0.17333939040E+03 0.  0.
         24    2    3    3    0    0 -0.39867913114E+02  0.75951693461E+02  0.12830177122E+03  0.17336976517E+03  0.78978609396E+02 0.  0.
         -6    2    1    2    0  502  0.41051656001E+02 -0.18499587032E+02  0.65426801367E+03  0.67762864382E+03  0.17054756532E+03 0.  0.
        -24    2    5    5    0    0 -0.32631301163E+02 -0.22870159007E+02  0.48419687623E+03  0.49217093472E+03  0.78725904525E+02 0.  0.
          5    1    3    3  501    0 -0.11837428868E+01 -0.57452106429E+02  0.26934689945E+02  0.63637357761E+02  0.47000000000E+01 0. -1.
        -13    1    4    4    0    0 -0.11523517110E+02  0.58063627126E+01  0.85454928088E+02  0.86423665908E+02  0.00000000000E+00 0.  1.
         14    1    4    4    0    0 -0.28344396004E+02  0.70145330749E+02  0.42846843128E+02  0.86946099261E+02  0.00000000000E+00 0. -1.
         -5    1    5    5    0  502  0.73682957164E+02  0.43705719743E+01  0.17007113744E+03  0.18545770910E+03  0.47000000000E+01 0.  1.
         11    1    6    6    0    0 -0.31116828978E+01 -0.28714180400E+02  0.42290620203E+03  0.42389130970E+03  0.00000000000E+00 0. -1.
        -12    1    6    6    0    0 -0.29519618265E+02  0.58440213933E+01  0.61290674208E+02  0.68279625024E+02  0.00000000000E+00 0.  1.
<mgrwt>
<rscale>  2 0.17841316E+03</rscale>
<asrwt>0</asrwt>
<pdfrwt beam="1">  1       21 0.13262616E+00 0.17909220E+03</pdfrwt>
<pdfrwt beam="2">  1       21 0.80870231E-02 0.17909220E+03</pdfrwt>
<totfact> 0.48748689E+04</totfact>
</mgrwt>
</event>
<event>
12    1  0.1019868E-001  0.1907460E+03  0.7546771E-02  0.1158354E+00
         21   -1    0    0  503  502  0.00000000000E+00  0.00000000000E+00  0.17433372234E+03  0.17433372234E+03  0.00000000000E+00 0. -1.
         21   -1    0    0  501  503 -0.00000000000E+00 -0.00000000000E+00 -0.23865474849E+03  0.23865474849E+03  0.00000000000E+00 0. -1.
          6    2    1    2  501    0  0.73392692884E+02 -0.24155264846E+02 -0.10874767074E+03  0.21956795608E+03  0.17439629370E+03 0.  0.
         24    2    3    3    0    0  0.39449386955E+02 -0.97722147476E+01  0.13820883743E+02  0.91489227575E+02  0.80793017165E+02 0.  0.
         -6    2    1    2    0  502 -0.73392692884E+02  0.24155264846E+02  0.44426644582E+02  0.19342051476E+03  0.17166189033E+03 0.  0.
        -24    2    5    5    0    0 -0.32774940130E+02  0.80313086948E+02  0.32991752472E+02  0.12301916832E+03  0.80751912721E+02 0.  0.
          5    1    3    3  501    0  0.33943305929E+02 -0.14383050098E+02 -0.12256855448E+03  0.12807872850E+03  0.47000000000E+01 0. -1.
        -11    1    4    4    0    0 -0.19641685866E+01  0.26120814096E+02 -0.14351957732E+02  0.29868605224E+02  0.00000000000E+00 0.  1.
         12    1    4    4    0    0  0.41413555542E+02 -0.35893028844E+02  0.28172841474E+02  0.61620622351E+02  0.00000000000E+00 0. -1.
         -5    1    5    5    0  502 -0.40617752755E+02 -0.56157822102E+02  0.11434892110E+02  0.70401346433E+02  0.47000000000E+01 0.  1.
         11    1    6    6    0    0 -0.44020120260E+02  0.64993983892E+02 -0.69315697354E+01  0.78803779026E+02  0.00000000000E+00 0. -1.
        -12    1    6    6    0    0  0.11245180130E+02  0.15319103056E+02  0.39923322208E+02  0.44215389297E+02  0.00000000000E+00 0.  1.
<mgrwt>
<rscale>  2 0.19011871E+03</rscale>
<asrwt>0</asrwt>
<pdfrwt beam="1">  1       21 0.26820573E-01 0.19074599E+03</pdfrwt>
<pdfrwt beam="2">  1       21 0.36716115E-01 0.19074599E+03</pdfrwt>
<totfact> 0.94778598E+04</totfact>
</mgrwt>
</event>
<event>
12    1  0.1019868E-001  0.1777708E+03  0.7546771E-02  0.1170871E+00
         21   -1    0    0  503  502  0.00000000000E+00  0.00000000000E+00  0.57191552138E+02  0.57191552138E+02  0.00000000000E+00 0.  1.
         21   -1    0    0  501  503 -0.00000000000E+00 -0.00000000000E+00 -0.54293590284E+03  0.54293590284E+03  0.00000000000E+00 0. -1.
          6    2    1    2  501    0  0.26420309077E+02 -0.33161835538E+02 -0.22480587574E+03  0.28438811432E+03  0.16894134406E+03 0.  0.
         24    2    3    3    0    0  0.12250991049E+02 -0.45402840803E+02 -0.24115143868E+03  0.25909228046E+03  0.82239216196E+02 0.  0.
         -6    2    1    2    0  502 -0.26420309077E+02  0.33161835538E+02 -0.26093847496E+03  0.31573934066E+03  0.17264038767E+03 0.  0.
        -24    2    5    5    0    0 -0.83062615434E+02  0.36120918693E+02 -0.17464007163E+03  0.21236327253E+03  0.79968031448E+02 0.  0.
          5    1    3    3  501    0  0.14169318027E+02  0.12241005265E+02  0.16345562937E+02  0.25295833866E+02  0.47000000000E+01 0. -1.
        -11    1    4    4    0    0 -0.21165267330E+02 -0.21678997865E+02 -0.25556307221E+02  0.39636754766E+02  0.00000000000E+00 0.  1.
         12    1    4    4    0    0  0.33416258379E+02 -0.23723842937E+02 -0.21559513146E+03  0.21945552569E+03  0.00000000000E+00 0. -1.
         -5    1    5    5    0  502  0.56642306357E+02 -0.29590831552E+01 -0.86298403337E+02  0.10337606813E+03  0.47000000000E+01 0.  1.
         13    1    6    6    0    0 -0.21256712272E+02 -0.20039586533E+02 -0.84862705515E+02  0.89750273717E+02  0.00000000000E+00 0. -1.
        -14    1    6    6    0    0 -0.61805903161E+02  0.56160505226E+02 -0.89777366112E+02  0.12261299882E+03  0.00000000000E+00 0.  1.
<mgrwt>
<rscale>  2 0.17686637E+03</rscale>
<asrwt>0</asrwt>
<pdfrwt beam="1">  1       21 0.87987002E-02 0.17777076E+03</pdfrwt>
<pdfrwt beam="2">  1       21 0.83528602E-01 0.17777076E+03</pdfrwt>
<totfact> 0.12743164E+05</totfact>
</mgrwt>
</event>
<event>
12    1  0.1019868E-001  0.1878504E+03  0.7546771E-02  0.1161168E+00
         21   -1    0    0  501  502  0.00000000000E+00  0.00000000000E+00  0.62121307052E+02  0.62121307052E+02  0.00000000000E+00 0. -1.
         21   -1    0    0  502  503 -0.00000000000E+00 -0.00000000000E+00 -0.66257231091E+03  0.66257231091E+03  0.00000000000E+00 0. -1.
         -6    2    1    2    0  503  0.53482766372E+02  0.34969105544E+02 -0.44623651754E+03  0.48416401000E+03  0.17664799562E+03 0.  0.
        -24    2    3    3    0    0  0.30180065256E+02  0.64366118909E+02 -0.14201532343E+03  0.17760271888E+03  0.79501824262E+02 0.  0.
          6    2    1    2  501    0 -0.53482766372E+02 -0.34969105544E+02 -0.15421448632E+03  0.24052960796E+03  0.17317372743E+03 0.  0.
         24    2    5    5    0    0 -0.50939822396E+02  0.29327558780E+02 -0.37532323591E+02  0.10719789865E+03  0.81410951055E+02 0.  0.
          5    1    5    5  501    0 -0.25429439763E+01 -0.64296664324E+02 -0.11668216273E+03  0.13333170931E+03  0.47000000000E+01 0. -1.
        -13    1    6    6    0    0 -0.43478297306E+01 -0.18231861182E+02  0.13677439031E+02  0.23202946450E+02  0.00000000000E+00 0.  1.
         14    1    6    6    0    0 -0.46591992665E+02  0.47559419962E+02 -0.51209762621E+02  0.83994952202E+02  0.00000000000E+00 0. -1.
         -5    1    3    3    0  503  0.23302701115E+02 -0.29397013365E+02 -0.30422119411E+03  0.30656129113E+03  0.47000000000E+01 0.  1.
         11    1    4    4    0    0 -0.26222056123E+01 -0.17305115021E+02 -0.14865390953E+02  0.22963510540E+02  0.00000000000E+00 0. -1.
        -12    1    4    4    0    0  0.32802270869E+02  0.81671233930E+02 -0.12714993248E+03  0.15463920834E+03  0.00000000000E+00 0.  1.
<mgrwt>
<rscale>  2 0.18702917E+03</rscale>
<asrwt>0</asrwt>
<pdfrwt beam="1">  1       21 0.95571234E-02 0.18785036E+03</pdfrwt>
<pdfrwt beam="2">  1       21 0.10193421E+00 0.18785036E+03</pdfrwt>
<totfact> 0.69091005E+04</totfact>
</mgrwt>
</event>
<event>
12    1  0.1019868E-001  0.1995649E+03  0.7546771E-02  0.1151388E+00
         21   -1    0    0  503  502  0.00000000000E+00  0.00000000000E+00  0.10396412864E+03  0.10396412864E+03  0.00000000000E+00 0. -1.
         21   -1    0    0  501  503 -0.00000000000E+00 -0.00000000000E+00 -0.64770889736E+03  0.64770889736E+03  0.00000000000E+00 0. -1.
          6    2    1    2  501    0 -0.93092593504E+02  0.40799173750E+02 -0.51955555652E+03  0.55656457421E+03  0.17174208980E+03 0.  0.
         24    2    3    3    0    0  0.30931489388E+01  0.31011822848E+02 -0.35722558806E+03  0.36756563785E+03  0.80765565880E+02 0.  0.
         -6    2    1    2    0  502  0.93092593504E+02 -0.40799173750E+02 -0.24189212194E+02  0.19510845179E+03  0.16477677758E+03 0.  0.
        -24    2    5    5    0    0 -0.14000229949E+00 -0.47358519954E+02  0.13163097872E+02  0.94348206603E+02  0.80532402986E+02 0.  0.
          5    1    3    3  501    0 -0.96185742443E+02  0.97873509023E+01 -0.16232996846E+03  0.18899893636E+03  0.47000000000E+01 0. -1.
        -11    1    4    4    0    0 -0.55732530692E+01  0.27257864968E+02 -0.32832801854E+02  0.43035395083E+02  0.00000000000E+00 0.  1.
         12    1    4    4    0    0  0.86664020080E+01  0.37539578794E+01 -0.32439278621E+03  0.32453024276E+03  0.00000000000E+00 0. -1.
         -5    1    5    5    0  502  0.93232595804E+02  0.65593462042E+01 -0.37352310066E+02  0.10076024519E+03  0.47000000000E+01 0.  1.
         11    1    6    6    0    0  0.15376164554E+02  0.96886416403E+00  0.35647150458E+02  0.38834063268E+02  0.00000000000E+00 0. -1.
        -12    1    6    6    0    0 -0.15516166853E+02 -0.48327384118E+02 -0.22484052586E+02  0.55514143335E+02  0.00000000000E+00 0.  1.
<mgrwt>
<rscale>  2 0.19805747E+03</rscale>
<asrwt>0</asrwt>
<pdfrwt beam="1">  1       21 0.15994481E-01 0.19956490E+03</pdfrwt>
<pdfrwt beam="2">  1       21 0.99647524E-01 0.19956490E+03</pdfrwt>
<totfact> 0.28768874E+04</totfact>
</mgrwt>
</event>
<event>
12    1  0.1019868E-001  0.2567632E+03  0.7546771E-02  0.1109114E+00
         21   -1    0    0  501  502  0.00000000000E+00  0.00000000000E+00  0.35450354531E+03  0.35450354531E+03  0.00000000000E+00 0. -1.
         21   -1    0    0  502  503 -0.00000000000E+00 -0.00000000000E+00 -0.19538825187E+03  0.19538825187E+03  0.00000000000E+00 0. -1.
         -6    2    1    2    0  503 -0.13355243118E+03  0.13409910968E+03  0.19050607796E+02  0.25746892437E+03  0.17351800559E+03 0.  0.
        -24    2    3    3    0    0 -0.13539032572E+03  0.12880072428E+03 -0.31846796216E+02  0.20604824293E+03  0.80755762106E+02 0.  0.
          6    2    1    2  501    0  0.13355243118E+03 -0.13409910968E+03  0.14006468564E+03  0.29242287281E+03  0.17341913761E+03 0.  0.
         24    2    5    5    0    0  0.18610482578E+01 -0.82330221232E+02  0.58392377272E+02  0.12897534575E+03  0.80269802916E+02 0.  0.
          5    1    5    5  501    0  0.13169138292E+03 -0.51768888452E+02  0.81672308370E+02  0.16344752706E+03  0.47000000000E+01 0. -1.
        -11    1    6    6    0    0 -0.29743726252E+02 -0.38079232805E+01  0.10820589745E+02  0.31879063560E+02  0.00000000000E+00 0.  1.
         12    1    6    6    0    0  0.31604774509E+02 -0.78522297951E+02  0.47571787527E+02  0.97096282194E+02  0.00000000000E+00 0. -1.
         -5    1    3    3    0  503  0.18378945364E+01  0.52983854075E+01  0.50897404011E+02  0.51420681436E+02  0.47000000000E+01 0.  1.
         13    1    4    4    0    0  0.49025500327E+01  0.20935672174E+02 -0.18868573889E+02  0.28606999962E+02  0.00000000000E+00 0. -1.
        -14    1    4    4    0    0 -0.14029287575E+03  0.10786505210E+03 -0.12978222326E+02  0.17744124297E+03  0.00000000000E+00 0.  1.
<mgrwt>
<rscale>  2 0.25674646E+03</rscale>
<asrwt>0</asrwt>
<pdfrwt beam="1">  1       21 0.54539007E-01 0.25676316E+03</pdfrwt>
<pdfrwt beam="2">  1       21 0.30059731E-01 0.25676316E+03</pdfrwt>
<totfact> 0.32673001E+04</totfact>
</mgrwt>
</event>
<event>
12    1  0.1019868E-001  0.2142212E+03  0.7546771E-02  0.1138561E+00
         21   -1    0    0  503  502  0.00000000000E+00  0.00000000000E+00  0.10715120091E+03  0.10715120091E+03  0.00000000000E+00 0. -1.
         21   -1    0    0  501  503 -0.00000000000E+00 -0.00000000000E+00 -0.54601564239E+03  0.54601564239E+03  0.00000000000E+00 0. -1.
          6    2    1    2  501    0 -0.44474402534E+02 -0.11782997298E+03 -0.37241634323E+03  0.42887668528E+03  0.17140421073E+03 0.  0.
         24    2    3    3    0    0 -0.87779261647E+02 -0.10793275544E+03 -0.23800032273E+03  0.28723268680E+03  0.80646043140E+02 0.  0.
         -6    2    1    2    0  502  0.44474402534E+02  0.11782997298E+03 -0.66448098248E+02  0.22429015802E+03  0.17328834413E+03 0.  0.
        -24    2    5    5    0    0 -0.27766572333E+02  0.38611168618E+02 -0.70185905604E+02  0.11691027807E+03  0.80499359574E+02 0.  0.
          5    1    3    3  501    0  0.43304859113E+02 -0.98972175426E+01 -0.13441602050E+03  0.14164399848E+03  0.47000000000E+01 0. -1.
        -13    1    4    4    0    0 -0.40556386076E+02 -0.86536220062E+02 -0.93442840663E+02  0.13365965100E+03  0.00000000000E+00 0.  1.
         14    1    4    4    0    0 -0.47222875572E+02 -0.21396535380E+02 -0.14455748206E+03  0.15357303580E+03  0.00000000000E+00 0. -1.
         -5    1    5    5    0  502  0.72240974867E+02  0.79218804367E+02  0.37378073562E+01  0.10737987995E+03  0.47000000000E+01 0.  1.
         11    1    6    6    0    0  0.23204663160E+02  0.31322350250E+02 -0.15928457182E+02  0.42110114768E+02  0.00000000000E+00 0. -1.
        -12    1    6    6    0    0 -0.50971235493E+02  0.72888183679E+01 -0.54257448422E+02  0.74800163303E+02  0.00000000000E+00 0.  1.
<mgrwt>
<rscale>  2 0.21383988E+03</rscale>
<asrwt>0</asrwt>
<pdfrwt beam="1">  1       21 0.16484800E-01 0.21422121E+03</pdfrwt>
<pdfrwt beam="2">  1       21 0.84002405E-01 0.21422121E+03</pdfrwt>
<totfact> 0.40186469E+04</totfact>
</mgrwt>
</event>
<event>
12    1  0.1019868E-001  0.1833233E+03  0.7546771E-02  0.1166214E+00
         21   -1    0    0  501  502  0.00000000000E+00  0.00000000000E+00  0.87376891590E+03  0.87376891590E+03  0.00000000000E+00 0.  1.
         21   -1    0    0  502  503 -0.00000000000E+00 -0.00000000000E+00 -0.39402660482E+02  0.39402660482E+02  0.00000000000E+00 0.  1.
         -6    2    1    2    0  503 -0.83829976952E+01  0.53080772590E+02  0.31380214160E+03  0.36342704149E+03  0.17527004121E+03 0.  0.
        -24    2    3    3    0    0 -0.66651107378E+02  0.20889309643E+02  0.13661387867E+03  0.17408810358E+03  0.82247082551E+02 0.  0.
          6    2    1    2  501    0  0.83829976952E+01 -0.53080772590E+02  0.52056411382E+03  0.54974453489E+03  0.16835739953E+03 0.  0.
         24    2    5    5    0    0  0.69793044525E+02 -0.38761544962E+02  0.31688940622E+03  0.33648012002E+03  0.80165135607E+02 0.  0.
          5    1    5    5  501    0 -0.61410046830E+02 -0.14319227628E+02  0.20367470760E+03  0.21326441487E+03  0.47000000000E+01 0. -1.
        -11    1    6    6    0    0 -0.38928347639E+00  0.20878220720E+02  0.65679271982E+02  0.68918926356E+02  0.00000000000E+00 0.  1.
         12    1    6    6    0    0  0.70182328001E+02 -0.59639765682E+02  0.25121013423E+03  0.26756119367E+03  0.00000000000E+00 0. -1.
         -5    1    3    3    0  503  0.58268109683E+02  0.32191462947E+02  0.17718826292E+03  0.18933893791E+03  0.47000000000E+01 0.  1.
         13    1    4    4    0    0 -0.24669517937E+02  0.50353213972E+02  0.80035250060E+02  0.97722425904E+02  0.00000000000E+00 0. -1.
        -14    1    4    4    0    0 -0.41981589441E+02 -0.29463904329E+02  0.56578628615E+02  0.76365677672E+02  0.00000000000E+00 0.  1.
<mgrwt>
<rscale>  2 0.18165122E+03</rscale>
<asrwt>0</asrwt>
<pdfrwt beam="1">  1       21 0.13442597E+00 0.18332329E+03</pdfrwt>
<pdfrwt beam="2">  1       21 0.60619484E-02 0.18332329E+03</pdfrwt>
<totfact> 0.77284544E+04</totfact>
</mgrwt>
</event>
<event>
12    1  0.1019868E-001  0.1825822E+03  0.7546771E-02  0.1165691E+00
         21   -1    0    0  501  502  0.00000000000E+00  0.00000000000E+00  0.52535623091E+03  0.52535623091E+03  0.00000000000E+00 0.  1.
         21   -1    0    0  502  503 -0.00000000000E+00 -0.00000000000E+00 -0.10429600069E+03  0.10429600069E+03  0.00000000000E+00 0.  1.
         -6    2    1    2    0  503  0.59916358720E+02 -0.28727921777E+02  0.11715729886E+02  0.18143445251E+03  0.16842190682E+03 0.  0.
        -24    2    3    3    0    0  0.98807411202E+02 -0.42406335273E+02 -0.10060532591E+02  0.13457393003E+03  0.80297736888E+02 0.  0.
          6    2    1    2  501    0 -0.59916358720E+02  0.28727921777E+02  0.40934450033E+03  0.44821777910E+03  0.17006173590E+03 0.  0.
         24    2    5    5    0    0  0.28217092753E+02  0.15158579440E+01  0.15573934156E+03  0.17831841222E+03  0.82123148251E+02 0.  0.
          5    1    5    5  501    0 -0.88133451473E+02  0.27212063833E+02  0.25360515877E+03  0.26989936687E+03  0.47000000000E+01 0. -1.
        -11    1    6    6    0    0  0.30518753382E+02 -0.34050499195E+02  0.55375860209E+02  0.71814460225E+02  0.00000000000E+00 0.  1.
         12    1    6    6    0    0 -0.23016606294E+01  0.35566357139E+02  0.10036348136E+03  0.10650395200E+03  0.00000000000E+00 0. -1.
         -5    1    3    3    0  503 -0.38891052481E+02  0.13678413496E+02  0.21776262477E+02  0.46860522472E+02  0.47000000000E+01 0.  1.
         13    1    4    4    0    0  0.53649913831E+01 -0.61885291778E+01  0.26623615036E+02  0.27854943969E+02  0.00000000000E+00 0. -1.
        -14    1    4    4    0    0  0.93442419818E+02 -0.36217806095E+02 -0.36684147627E+02  0.10671898607E+03  0.00000000000E+00 0.  1.
<mgrwt>
<rscale>  2 0.18219939E+03</rscale>
<asrwt>0</asrwt>
<pdfrwt beam="1">  1       21 0.80824034E-01 0.18258219E+03</pdfrwt>
<pdfrwt beam="2">  1       21 0.16045539E-01 0.18258219E+03</pdfrwt>
<totfact> 0.46844937E+04</totfact>
</mgrwt>
</event>
<event>
12    1  0.1019868E-001  0.2155326E+03  0.7546771E-02  0.1137332E+00
         21   -1    0    0  501  502  0.00000000000E+00  0.00000000000E+00  0.29488489650E+03  0.29488489650E+03  0.00000000000E+00 0. -1.
         21   -1    0    0  502  503 -0.00000000000E+00 -0.00000000000E+00 -0.29371982785E+03  0.29371982785E+03  0.00000000000E+00 0.  1.
         -6    2    1    2    0  503  0.12110212086E+03 -0.41226920000E+02 -0.20002299176E+03  0.29376416866E+03  0.17298210008E+03 0.  0.
        -24    2    3    3    0    0  0.93764348773E+02 -0.77862554410E+02 -0.90988684245E+02  0.17544217702E+03  0.87445333417E+02 0.  0.
          6    2    1    2  501    0 -0.12110212086E+03  0.41226920000E+02  0.20118806041E+03  0.29484055569E+03  0.17346162405E+03 0.  0.
         24    2    5    5    0    0 -0.12671335125E+03  0.70120749457E+02  0.20665642336E+03  0.26453655793E+03  0.79369517305E+02 0.  0.
          5    1    5    5  501    0  0.56112303848E+01 -0.28893829457E+02 -0.54683629427E+01  0.30303997763E+02  0.47000000000E+01 0. -1.
        -11    1    6    6    0    0 -0.13709114783E+03  0.69364573434E+02  0.19993310074E+03  0.25214811447E+03  0.00000000000E+00 0.  1.
         12    1    6    6    0    0  0.10377796587E+02  0.75617602338E+00  0.67233226190E+01  0.12388443454E+02  0.00000000000E+00 0. -1.
         -5    1    3    3    0  503  0.27337772088E+02  0.36635634411E+02 -0.10903430752E+03  0.11832199165E+03  0.47000000000E+01 0.  1.
         13    1    4    4    0    0  0.47509111225E+02 -0.15179784239E+02  0.68874337868E+01  0.50348567438E+02  0.00000000000E+00 0. -1.
        -14    1    4    4    0    0  0.46255237548E+02 -0.62682770171E+02 -0.97876118031E+02  0.12509360958E+03  0.00000000000E+00 0.  1.
<mgrwt>
<rscale>  2 0.21543614E+03</rscale>
<asrwt>0</asrwt>
<pdfrwt beam="1">  1       21 0.45366907E-01 0.21553264E+03</pdfrwt>
<pdfrwt beam="2">  1       21 0.45187666E-01 0.21553264E+03</pdfrwt>
<totfact> 0.21607460E+04</totfact>
</mgrwt>
</event>
<event>
12    1  0.1019868E-001  0.2347322E+03  0.7546771E-02  0.1123516E+00
         21   -1    0    0  501  502  0.00000000000E+00  0.00000000000E+00  0.16750535240E+03  0.16750535240E+03  0.00000000000E+00 0. -1.
         21   -1    0    0  502  503 -0.00000000000E+00 -0.00000000000E+00 -0.36849160955E+03  0.36849160955E+03  0.00000000000E+00 0. -1.
         -6    2    1    2    0  503  0.12763154308E+03  0.98747591995E+02 -0.18993755658E+03  0.30195280349E+03  0.17046501818E+03 0.  0.
        -24    2    3    3    0    0  0.82620983686E+02  0.81570843657E+01 -0.43769996329E+02  0.12413369260E+03  0.81244052639E+02 0.  0.
          6    2    1    2  501    0 -0.12763154308E+03 -0.98747591995E+02 -0.11048700575E+02  0.23404415846E+03  0.16915583528E+03 0.  0.
         24    2    5    5    0    0 -0.10246600145E+02 -0.44719326121E+02 -0.28801770574E+02  0.10352389246E+03  0.88220424955E+02 0.  0.
          5    1    5    5  501    0 -0.11738494293E+03 -0.54028265874E+02  0.17753069999E+02  0.13052026599E+03  0.47000000000E+01 0. -1.
        -11    1    6    6    0    0 -0.20362040985E+02  0.69824583796E+01 -0.43752797812E+02  0.48761406404E+02  0.00000000000E+00 0.  1.
         12    1    6    6    0    0  0.10115440840E+02 -0.51701784501E+02  0.14951027238E+02  0.54762486059E+02  0.00000000000E+00 0. -1.
         -5    1    3    3    0  503  0.45010559393E+02  0.90590507629E+02 -0.14616756025E+03  0.17781911089E+03  0.47000000000E+01 0.  1.
         11    1    4    4    0    0  0.96909183828E+02  0.18946612557E+01 -0.47724649478E+02  0.10803990846E+03  0.00000000000E+00 0. -1.
        -12    1    4    4    0    0 -0.14288200142E+02  0.62624231100E+01  0.39546531490E+01  0.16093784143E+02  0.00000000000E+00 0.  1.
<mgrwt>
<rscale>  2 0.23449462E+03</rscale>
<asrwt>0</asrwt>
<pdfrwt beam="1">  1       21 0.25770055E-01 0.23473223E+03</pdfrwt>
<pdfrwt beam="2">  1       21 0.56691016E-01 0.23473223E+03</pdfrwt>
<totfact> 0.40967258E+04</totfact>
</mgrwt>
</event>
<event>
12    1  0.1019868E-001  0.2125715E+03  0.7546771E-02  0.1139597E+00
         21   -1    0    0  501  502  0.00000000000E+00  0.00000000000E+00  0.27931486466E+03  0.27931486466E+03  0.00000000000E+00 0. -1.
         21   -1    0    0  502  503 -0.00000000000E+00 -0.00000000000E+00 -0.37087917630E+03  0.37087917630E+03  0.00000000000E+00 0.  1.
         -6    2    1    2    0  503 -0.99793618737E+02 -0.72565595369E+02 -0.29001738589E+03  0.35957854146E+03  0.17309567120E+03 0.  0.
        -24    2    3    3    0    0 -0.47637000802E+01  0.92469436852E+00 -0.62756682051E+02  0.10247734419E+03  0.80868145972E+02 0.  0.
          6    2    1    2  501    0  0.99793618737E+02  0.72565595369E+02  0.19845307425E+03  0.29061549950E+03  0.17276925043E+03 0.  0.
         24    2    5    5    0    0  0.10781362552E+03  0.49260379956E+02  0.21664816328E+03  0.25962187372E+03  0.80104480377E+02 0.  0.
          5    1    5    5  501    0 -0.80200067864E+01  0.23305215413E+02 -0.18195089029E+02  0.30993625781E+02  0.47000000000E+01 0. -1.
        -11    1    6    6    0    0  0.15341530744E+02 -0.15531101325E+02  0.77013042137E+02  0.80047400540E+02  0.00000000000E+00 0.  1.
         12    1    6    6    0    0  0.92472094779E+02  0.64791481281E+02  0.13963512115E+03  0.17957447318E+03  0.00000000000E+00 0. -1.
         -5    1    3    3    0  503 -0.95029918657E+02 -0.73490289738E+02 -0.22726070384E+03  0.25710119726E+03  0.47000000000E+01 0.  1.
         11    1    4    4    0    0 -0.20217451532E+02  0.30500340270E+02 -0.58270451196E+02  0.68807423914E+02  0.00000000000E+00 0. -1.
        -12    1    4    4    0    0  0.15453751452E+02 -0.29575645901E+02 -0.44862308546E+01  0.33669920281E+02  0.00000000000E+00 0.  1.
<mgrwt>
<rscale>  2 0.21250504E+03</rscale>
<asrwt>0</asrwt>
<pdfrwt beam="1">  1       21 0.42971518E-01 0.21257150E+03</pdfrwt>
<pdfrwt beam="2">  1       21 0.57058335E-01 0.21257150E+03</pdfrwt>
<totfact> 0.14839204E+04</totfact>
</mgrwt>
</event>
<event>
12    1  0.1019868E-001  0.1844839E+03  0.7546771E-02  0.1163694E+00
         21   -1    0    0  503  502  0.00000000000E+00  0.00000000000E+00  0.14214480799E+03  0.14214480799E+03  0.00000000000E+00 0.  1.
         21   -1    0    0  501  503 -0.00000000000E+00 -0.00000000000E+00 -0.26044889709E+03  0.26044889709E+03  0.00000000000E+00 0.  1.
          6    2    1    2  501    0  0.59136043593E+02  0.12008272905E+02 -0.11762742847E+03  0.21879328937E+03  0.17433594373E+03 0.  0.
         24    2    3    3    0    0  0.25524499161E+02  0.68076967085E+02 -0.10737946800E+03  0.15245668500E+03  0.80166808265E+02 0.  0.
         -6    2    1    2    0  502 -0.59136043593E+02 -0.12008272905E+02 -0.67666062918E+00  0.18380041571E+03  0.17361124582E+03 0.  0.
        -24    2    5    5    0    0 -0.28165842221E+02 -0.56921298902E+02  0.44933607745E+02  0.11253527796E+03  0.81313041660E+02 0.  0.
          5    1    3    3  501    0  0.33611544432E+02 -0.56068694181E+02 -0.10247960463E+02  0.66336604374E+02  0.47000000000E+01 0. -1.
        -13    1    4    4    0    0  0.73000015093E+00 -0.14674514495E+02 -0.65389527687E-01  0.14692806120E+02  0.00000000000E+00 0.  1.
         14    1    4    4    0    0  0.24794499010E+02  0.82751481580E+02 -0.10731407848E+03  0.13776387888E+03  0.00000000000E+00 0. -1.
         -5    1    5    5    0  502 -0.30970201372E+02  0.44913025997E+02 -0.45610268375E+02  0.71265137750E+02  0.47000000000E+01 0.  1.
         11    1    6    6    0    0  0.23402638079E+02 -0.95137924544E+00 -0.13513886619E+01  0.23460921611E+02  0.00000000000E+00 0. -1.
        -12    1    6    6    0    0 -0.51568480299E+02 -0.55969919656E+02  0.46284996407E+02  0.89074356350E+02  0.00000000000E+00 0.  1.
<mgrwt>
<rscale>  2 0.18431244E+03</rscale>
<asrwt>0</asrwt>
<pdfrwt beam="1">  1       21 0.21868432E-01 0.18448385E+03</pdfrwt>
<pdfrwt beam="2">  1       21 0.40069061E-01 0.18448385E+03</pdfrwt>
<totfact> 0.11752379E+05</totfact>
</mgrwt>
</event>
<event>
12    1  0.1019868E-001  0.2054597E+03  0.7546771E-02  0.1146024E+00
         21   -1    0    0  501  502  0.00000000000E+00  0.00000000000E+00  0.87643624274E+03  0.87643624274E+03  0.00000000000E+00 0. -1.
         21   -1    0    0  502  503 -0.00000000000E+00 -0.00000000000E+00 -0.48143607461E+02  0.48143607461E+02  0.00000000000E+00 0. -1.
         -6    2    1    2    0  503 -0.66287439178E+02 -0.80152578614E+02  0.34707829175E+03  0.40133905819E+03  0.17260138636E+03 0.  0.
        -24    2    3    3    0    0 -0.24227374566E+02 -0.11782346767E+03  0.25373464729E+03  0.29214532724E+03  0.80611945649E+02 0.  0.
          6    2    1    2  501    0  0.66287439178E+02  0.80152578614E+02  0.48121434353E+03  0.52324079201E+03  0.17718696779E+03 0.  0.
         24    2    5    5    0    0 -0.17280124187E+00 -0.22146372511E+02  0.18052100556E+03  0.19870941840E+03  0.80044411655E+02 0.  0.
          5    1    5    5  501    0  0.66460240420E+02  0.10229895112E+03  0.30069333797E+03  0.32453137361E+03  0.47000000000E+01 0. -1.
        -11    1    6    6    0    0  0.26745931552E+02 -0.13877463563E+02  0.21014120940E+02  0.36735842558E+02  0.00000000000E+00 0.  1.
         12    1    6    6    0    0 -0.26918732794E+02 -0.82689089474E+01  0.15950688462E+03  0.16197357584E+03  0.00000000000E+00 0. -1.
         -5    1    3    3    0  503 -0.42060064612E+02  0.37670889056E+02  0.93343644459E+02  0.10919373095E+03  0.47000000000E+01 0.  1.
         11    1    4    4    0    0 -0.45363023309E+02 -0.95925600359E+02  0.14793739376E+03  0.18205767537E+03  0.00000000000E+00 0. -1.
        -12    1    4    4    0    0  0.21135648742E+02 -0.21897867311E+02  0.10579725353E+03  0.11008765187E+03  0.00000000000E+00 0.  1.
<mgrwt>
<rscale>  2 0.20446722E+03</rscale>
<asrwt>0</asrwt>
<pdfrwt beam="1">  1       21 0.13483633E+00 0.20545968E+03</pdfrwt>
<pdfrwt beam="2">  1       21 0.74067095E-02 0.20545968E+03</pdfrwt>
<totfact> 0.53686748E+04</totfact>
</mgrwt>
</event>
<event>
12    1  0.1019868E-001  0.1852763E+03  0.7546771E-02  0.1163071E+00
         21   -1    0    0  501  502  0.00000000000E+00  0.00000000000E+00  0.87430908889E+02  0.87430908889E+02  0.00000000000E+00 0. -1.
         21   -1    0    0  502  503 -0.00000000000E+00 -0.00000000000E+00 -0.65988035976E+03  0.65988035976E+03  0.00000000000E+00 0. -1.
         -6    2    1    2    0  503  0.57550931240E+02 -0.23614472341E+02 -0.52459256075E+03  0.55595403128E+03  0.17325639124E+03 0.  0.
        -24    2    3    3    0    0  0.65000391880E+02 -0.74950427839E+02 -0.41830110793E+03  0.43758664669E+03  0.81631114717E+02 0.  0.
          6    2    1    2  501    0 -0.57550931240E+02  0.23614472341E+02 -0.47856890115E+02  0.19135723737E+03  0.17452093677E+03 0.  0.
         24    2    5    5    0    0 -0.16989115399E+02 -0.46522564509E+02  0.16850040706E+01  0.96273305381E+02  0.82539269683E+02 0.  0.
          5    1    5    5  501    0 -0.40561815841E+02  0.70137036851E+02 -0.49541894186E+02  0.95083931987E+02  0.47000000000E+01 0. -1.
        -13    1    6    6    0    0  0.29033118395E+02  0.17353088631E+01 -0.39448383622E+01  0.29351235243E+02  0.00000000000E+00 0.  1.
         14    1    6    6    0    0 -0.46022233794E+02 -0.48257873372E+02  0.56298424328E+01  0.66922070138E+02  0.00000000000E+00 0. -1.
         -5    1    3    3    0  503 -0.74494606399E+01  0.51335955497E+02 -0.10629145282E+03  0.11836738459E+03  0.47000000000E+01 0.  1.
         11    1    4    4    0    0  0.41999294279E+02  0.71714352882E+01 -0.15970676986E+03  0.16529253626E+03  0.00000000000E+00 0. -1.
        -12    1    4    4    0    0  0.23001097600E+02 -0.82121863127E+02 -0.25859433807E+03  0.27229411043E+03  0.00000000000E+00 0.  1.
<mgrwt>
<rscale>  2 0.18497793E+03</rscale>
<asrwt>0</asrwt>
<pdfrwt beam="1">  1       21 0.13450909E-01 0.18527631E+03</pdfrwt>
<pdfrwt beam="2">  1       21 0.10152006E+00 0.18527631E+03</pdfrwt>
<totfact> 0.38006408E+04</totfact>
</mgrwt>
</event>
<event>
12    1  0.1019868E-001  0.2549405E+03  0.7546771E-02  0.1112208E+00
         21   -1    0    0  501  502  0.00000000000E+00  0.00000000000E+00  0.25059115442E+02  0.25059115442E+02  0.00000000000E+00 0.  1.
         21   -1    0    0  502  503 -0.00000000000E+00 -0.00000000000E+00 -0.39679847703E+04  0.39679847703E+04  0.00000000000E+00 0. -1.
         -6    2    1    2    0  503 -0.70371053339E+02  0.17371018317E+03 -0.31679951922E+04  0.31772547607E+04  0.15371064886E+03 0.  0.
        -24    2    3    3    0    0 -0.66960336755E+02  0.12859969420E+03 -0.15973234974E+04  0.16059246706E+04  0.80809183808E+02 0.  0.
          6    2    1    2  501    0  0.70371053339E+02 -0.17371018317E+03 -0.77493046263E+03  0.81578912503E+03  0.17282176288E+03 0.  0.
         24    2    5    5    0    0  0.83257532606E+02 -0.19490004161E+03 -0.72741477371E+03  0.76198483020E+03  0.81060381765E+02 0.  0.
          5    1    5    5  501    0 -0.12886479267E+02  0.21189858441E+02 -0.47515688917E+02  0.53804294828E+02  0.47000000000E+01 0. -1.
        -13    1    6    6    0    0 -0.96248386086E+01 -0.37184344266E+02 -0.20153847545E+03  0.20516595737E+03  0.00000000000E+00 0.  1.
         14    1    6    6    0    0  0.92882371215E+02 -0.15771569735E+03 -0.52587629827E+03  0.55681887284E+03  0.00000000000E+00 0. -1.
         -5    1    3    3    0  503 -0.34107165845E+01  0.45110488969E+02 -0.15706716948E+04  0.15713300901E+04  0.47000000000E+01 0.  1.
         11    1    4    4    0    0 -0.76920558800E+02  0.13196578304E+03 -0.13970836871E+04  0.14054090398E+04  0.00000000000E+00 0. -1.
        -12    1    4    4    0    0  0.99602220453E+01 -0.33660888405E+01 -0.20023981025E+03  0.20051563078E+03  0.00000000000E+00 0.  1.
<mgrwt>
<rscale>  2 0.25174398E+03</rscale>
<asrwt>0</asrwt>
<pdfrwt beam="1">  1       21 0.38552508E-02 0.25494053E+03</pdfrwt>
<pdfrwt beam="2">  1       21 0.61045883E+00 0.25494053E+03</pdfrwt>
<totfact> 0.10726904E+02</totfact>
</mgrwt>
</event>
<event>
12    1  0.1019868E-001  0.1801499E+03  0.7546771E-02  0.1169369E+00
         21   -1    0    0  501  502  0.00000000000E+00  0.00000000000E+00  0.23613960971E+03  0.23613960971E+03  0.00000000000E+00 0.  1.
         21   -1    0    0  502  503 -0.00000000000E+00 -0.00000000000E+00 -0.14451000880E+03  0.14451000880E+03  0.00000000000E+00 0. -1.
         -6    2    1    2    0  503  0.30708852484E+02 -0.38451441766E+02 -0.10549653633E+02  0.17353950758E+03  0.16608166215E+03 0.  0.
        -24    2    3    3    0    0  0.17354854397E+02  0.99968427091E+01 -0.61125374490E+02  0.10208631259E+03  0.79272794681E+02 0.  0.
          6    2    1    2  501    0 -0.30708852484E+02  0.38451441766E+02  0.10217925455E+03  0.20711011093E+03  0.17329873339E+03 0.  0.
         24    2    5    5    0    0 -0.32008811584E+02 -0.57766931746E+01 -0.10220240695E+02  0.86223575932E+02  0.79196701469E+02 0.  0.
          5    1    5    5  501    0  0.12999591002E+01  0.44228134941E+02  0.11239949524E+03  0.12088653500E+03  0.47000000000E+01 0. -1.
        -11    1    6    6    0    0 -0.48485212583E+02 -0.28359429804E+02  0.79892167539E+00  0.56175718722E+02  0.00000000000E+00 0.  1.
         12    1    6    6    0    0  0.16476400999E+02  0.22582736630E+02 -0.11019162370E+02  0.30047857210E+02  0.00000000000E+00 0. -1.
         -5    1    3    3    0  503  0.13353998087E+02 -0.48448284475E+02  0.50575720856E+02  0.71453194986E+02  0.47000000000E+01 0.  1.
         11    1    4    4    0    0  0.49664590891E+01  0.41897037356E+02 -0.51423846918E+02  0.66516460271E+02  0.00000000000E+00 0. -1.
        -12    1    4    4    0    0  0.12388395307E+02 -0.31900194647E+02 -0.97015275717E+01  0.35569852320E+02  0.00000000000E+00 0.  1.
<mgrwt>
<rscale>  2 0.17839151E+03</rscale>
<asrwt>0</asrwt>
<pdfrwt beam="1">  1       21 0.36329171E-01 0.18014993E+03</pdfrwt>
<pdfrwt beam="2">  1       21 0.22232309E-01 0.18014993E+03</pdfrwt>
<totfact> 0.13885516E+05</totfact>
</mgrwt>
</event>
<event>
12    1  0.1019868E-001  0.1893122E+03  0.7546771E-02  0.1161005E+00
         21   -1    0    0  503  502  0.00000000000E+00  0.00000000000E+00  0.29875322462E+03  0.29875322462E+03  0.00000000000E+00 0.  1.
         21   -1    0    0  501  503 -0.00000000000E+00 -0.00000000000E+00 -0.13583278224E+03  0.13583278224E+03  0.00000000000E+00 0.  1.
          6    2    1    2  501    0  0.27974429471E+02  0.46138931567E+02 -0.56212635968E+01  0.18111924353E+03  0.17280397004E+03 0.  0.
         24    2    3    3    0    0  0.51278166709E+02  0.59664024586E+02 -0.52656835507E+02  0.12670943435E+03  0.84221684956E+02 0.  0.
         -6    2    1    2    0  502 -0.27974429471E+02 -0.46138931567E+02  0.16854170598E+03  0.25346676333E+03  0.18145997837E+03 0.  0.
        -24    2    5    5    0    0 -0.18445303072E+02  0.68027713474E+01  0.15485366370E+02  0.91164695408E+02  0.87662410495E+02 0.  0.
          5    1    3    3  501    0 -0.23303737238E+02 -0.13525093019E+02  0.47035571910E+02  0.54409809183E+02  0.47000000000E+01 0. -1.
        -11    1    4    4    0    0 -0.62823987226E+01  0.30713473636E+02 -0.53801047894E+02  0.62268280456E+02  0.00000000000E+00 0.  1.
         12    1    4    4    0    0  0.57560565431E+02  0.28950550950E+02  0.11442123872E+01  0.64441153893E+02  0.00000000000E+00 0. -1.
         -5    1    5    5    0  502 -0.95291263992E+01 -0.52941702914E+02  0.15305633961E+03  0.16230206793E+03  0.47000000000E+01 0.  1.
         11    1    6    6    0    0  0.30743983281E+02  0.17705851183E+02  0.19743932806E+02  0.40601878734E+02  0.00000000000E+00 0. -1.
        -12    1    6    6    0    0 -0.49189286353E+02 -0.10903079835E+02 -0.42585664356E+01  0.50562816673E+02  0.00000000000E+00 0.  1.
<mgrwt>
<rscale>  2 0.18720727E+03</rscale>
<asrwt>0</asrwt>
<pdfrwt beam="1">  1       21 0.45962034E-01 0.18931216E+03</pdfrwt>
<pdfrwt beam="2">  1       21 0.20897351E-01 0.18931216E+03</pdfrwt>
<totfact> 0.96591253E+04</totfact>
</mgrwt>
</event>
<event>
12    1  0.1019868E-001  0.2902856E+03  0.7546771E-02  0.1090433E+00
         21   -1    0    0  503  502  0.00000000000E+00  0.00000000000E+00  0.10627882402E+04  0.10627882402E+04  0.00000000000E+00 0.  1.
         21   -1    0    0  501  503 -0.00000000000E+00 -0.00000000000E+00 -0.86053714861E+02  0.86053714861E+02  0.00000000000E+00 0.  1.
          6    2    1    2  501    0  0.23115538162E+03 -0.12266117965E+02  0.32298745576E+03  0.43426561727E+03  0.17516409925E+03 0.  0.
         24    2    3    3    0    0  0.66676261055E+02  0.87344877589E+01  0.20756652297E+03  0.23218026830E+03  0.79383880387E+02 0.  0.
         -6    2    1    2    0  502 -0.23115538162E+03  0.12266117965E+02  0.65374706961E+03  0.71457633782E+03  0.17219420271E+03 0.  0.
        -24    2    5    5    0    0 -0.13382824045E+03 -0.49767171321E+02  0.45451696014E+03  0.48428211751E+03  0.86929471439E+02 0.  0.
          5    1    3    3  501    0  0.16447912056E+03 -0.21000605724E+02  0.11542093279E+03  0.20208534897E+03  0.47000000000E+01 0. -1.
        -11    1    4    4    0    0  0.77022161739E+02  0.10542500900E+02  0.20759905365E+03  0.22167752434E+03  0.00000000000E+00 0.  1.
         12    1    4    4    0    0 -0.10345900684E+02 -0.18080131408E+01 -0.32530670987E-01  0.10502743961E+02  0.00000000000E+00 0. -1.
         -5    1    5    5    0  502 -0.97327141168E+02  0.62033289286E+02  0.19923010947E+03  0.23029422031E+03  0.47000000000E+01 0.  1.
         11    1    6    6    0    0 -0.34965720030E+02  0.25154145171E+02  0.11228371504E+03  0.12026206908E+03  0.00000000000E+00 0. -1.
        -12    1    6    6    0    0 -0.98862520421E+02 -0.74921316492E+02  0.34223324510E+03  0.36402004843E+03  0.00000000000E+00 0.  1.
<mgrwt>
<rscale>  2 0.28983898E+03</rscale>
<asrwt>0</asrwt>
<pdfrwt beam="1">  1       21 0.16350587E+00 0.29028560E+03</pdfrwt>
<pdfrwt beam="2">  1       21 0.13239034E-01 0.29028560E+03</pdfrwt>
<totfact> 0.10971898E+04</totfact>
</mgrwt>
</event>
<event>
12    1  0.1019868E-001  0.1903481E+03  0.7546771E-02  0.1158228E+00
         21   -1    0    0  503  502  0.00000000000E+00  0.00000000000E+00  0.78325210461E+03  0.78325210461E+03  0.00000000000E+00 0.  1.
         21   -1    0    0  501  503 -0.00000000000E+00 -0.00000000000E+00 -0.53283157921E+02  0.53283157921E+02  0.00000000000E+00 0.  1.
          6    2    1    2  501    0  0.11783082051E+02  0.78625798677E+02  0.21248417460E+03  0.28527516445E+03  0.17294952372E+03 0.  0.
         24    2    3    3    0    0 -0.37194593140E+02  0.65868785884E+02  0.20617012414E+03  0.23405494114E+03  0.80953447558E+02 0.  0.
         -6    2    1    2    0  502 -0.11783082051E+02 -0.78625798677E+02  0.51748477209E+03  0.55126009809E+03  0.17255824858E+03 0.  0.
        -24    2    5    5    0    0  0.52561363333E+02 -0.96983785420E+01  0.25261973004E+03  0.27007194507E+03  0.79154103136E+02 0.  0.
          5    1    3    3  501    0  0.48977675192E+02  0.12757012793E+02  0.63140504608E+01  0.51220223309E+02  0.47000000000E+01 0. -1.
        -11    1    4    4    0    0  0.19888324555E+02 -0.40355812894E+01  0.44256485797E+02  0.48687451208E+02  0.00000000000E+00 0.  1.
         12    1    4    4    0    0 -0.57082917696E+02  0.69904367173E+02  0.16191363834E+03  0.18536748993E+03  0.00000000000E+00 0. -1.
         -5    1    5    5    0  502 -0.64344445384E+02 -0.68927420135E+02  0.26486504205E+03  0.28118815302E+03  0.47000000000E+01 0.  1.
         11    1    6    6    0    0  0.61410147148E+02 -0.23485862712E+02  0.12344331926E+03  0.13986080577E+03  0.00000000000E+00 0. -1.
        -12    1    6    6    0    0 -0.88487838148E+01  0.13787484170E+02  0.12917641079E+03  0.13021113930E+03  0.00000000000E+00 0.  1.
<mgrwt>
<rscale>  2 0.19025917E+03</rscale>
<asrwt>0</asrwt>
<pdfrwt beam="1">  1       21 0.12050032E+00 0.19034809E+03</pdfrwt>
<pdfrwt beam="2">  1       21 0.81974095E-02 0.19034809E+03</pdfrwt>
<totfact> 0.60184106E+04</totfact>
</mgrwt>
</event>
<event>
12    1  0.1019868E-001  0.1768186E+03  0.7546771E-02  0.1170926E+00
         21   -1    0    0  503  502  0.00000000000E+00  0.00000000000E+00  0.98732099083E+03  0.98732099083E+03  0.00000000000E+00 0.  1.
         21   -1    0    0  501  503 -0.00000000000E+00 -0.00000000000E+00 -0.56005339607E+02  0.56005339607E+02  0.00000000000E+00 0.  1.
          6    2    1    2  501    0 -0.18148388416E+01  0.37110301082E+02  0.12169364415E+03  0.21462094719E+03  0.17283616479E+03 0.  0.
         24    2    3    3    0    0 -0.28723516945E+02 -0.27736980996E+02  0.10284752358E+02  0.82851155045E+02  0.71862070808E+02 0.  0.
         -6    2    1    2    0  502  0.18148388416E+01 -0.37110301082E+02  0.80962200707E+03  0.82870538325E+03  0.17287090504E+03 0.  0.
        -24    2    5    5    0    0  0.89438829930E+01 -0.86579765084E+02  0.43520644682E+03  0.45093938042E+03  0.79784865057E+02 0.  0.
          5    1    3    3  501    0  0.26908678103E+02  0.64847282078E+02  0.11140889179E+03  0.13176979214E+03  0.47000000000E+01 0. -1.
        -11    1    4    4    0    0 -0.39789398748E+02 -0.12328464057E+02 -0.20703818181E+02  0.46517043822E+02  0.00000000000E+00 0.  1.
         12    1    4    4    0    0  0.11065881803E+02 -0.15408516938E+02  0.30988570539E+02  0.36334111223E+02  0.00000000000E+00 0. -1.
         -5    1    5    5    0  502 -0.71290441514E+01  0.49469464002E+02  0.37441556025E+03  0.37776600283E+03  0.47000000000E+01 0.  1.
         11    1    6    6    0    0  0.91012336201E+01  0.13575183844E+02  0.91069104853E+02  0.92524050541E+02  0.00000000000E+00 0. -1.
        -12    1    6    6    0    0 -0.15735062711E+00 -0.10015494893E+03  0.34413734197E+03  0.35841532988E+03  0.00000000000E+00 0.  1.
<mgrwt>
<rscale>  2 0.17681011E+03</rscale>
<asrwt>0</asrwt>
<pdfrwt beam="1">  1       21 0.15189552E+00 0.17681860E+03</pdfrwt>
<pdfrwt beam="2">  1       21 0.86162068E-02 0.17681860E+03</pdfrwt>
<totfact> 0.30792531E+04</totfact>
</mgrwt>
</event>
<event>
12    1  0.1019868E-001  0.1825000E+03  0.7546771E-02  0.1165764E+00
         21   -1    0    0  503  502  0.00000000000E+00  0.00000000000E+00  0.11015537299E+04  0.11015537299E+04  0.00000000000E+00 0. -1.
         21   -1    0    0  501  503 -0.00000000000E+00 -0.00000000000E+00 -0.42999493849E+02  0.42999493849E+02  0.00000000000E+00 0.  1.
          6    2    1    2  501    0  0.49118006691E+02  0.89246351761E+01  0.21599450192E+03  0.28277176604E+03  0.17553922386E+03 0.  0.
         24    2    3    3    0    0 -0.97044287463E+01  0.56155758326E+02  0.77389626402E+02  0.12489757745E+03  0.79765941653E+02 0.  0.
         -6    2    1    2    0  502 -0.49118006691E+02 -0.89246351761E+01  0.84255973414E+03  0.86178145772E+03  0.17397743412E+03 0.  0.
        -24    2    5    5    0    0 -0.34780478998E+02 -0.20420319113E+02  0.83723362840E+03  0.84207935499E+03  0.80689655017E+02 0.  0.
          5    1    3    3  501    0  0.58822435437E+02 -0.47231123150E+02  0.13860487552E+03  0.15787418859E+03  0.47000000000E+01 0. -1.
        -13    1    4    4    0    0  0.18166393033E+02  0.10791379763E+02 -0.93618093361E+01  0.23110932198E+02  0.00000000000E+00 0.  1.
         14    1    4    4    0    0 -0.27870821779E+02  0.45364378563E+02  0.86751435738E+02  0.10178664525E+03  0.00000000000E+00 0. -1.
         -5    1    5    5    0  502 -0.14337527693E+02  0.11495683937E+02  0.53261057374E+01  0.19702102727E+02  0.47000000000E+01 0.  1.
         11    1    6    6    0    0 -0.53299610152E+02  0.86653392613E+01  0.58752535586E+03  0.59000167824E+03  0.00000000000E+00 0. -1.
        -12    1    6    6    0    0  0.18519131154E+02 -0.29085658374E+02  0.24970827254E+03  0.25207767676E+03  0.00000000000E+00 0.  1.
<mgrwt>
<rscale>  2 0.18212340E+03</rscale>
<asrwt>0</asrwt>
<pdfrwt beam="1">  1       21 0.16946978E+00 0.18249999E+03</pdfrwt>
<pdfrwt beam="2">  1       21 0.66153076E-02 0.18249999E+03</pdfrwt>
<totfact> 0.36120316E+04</totfact>
</mgrwt>
</event>
<event>
12    1  0.1019868E-001  0.1967366E+03  0.7546771E-02  0.1152522E+00
         21   -1    0    0  501  502  0.00000000000E+00  0.00000000000E+00  0.52055633336E+02  0.52055633336E+02  0.00000000000E+00 0.  1.
         21   -1    0    0  502  503 -0.00000000000E+00 -0.00000000000E+00 -0.11506360702E+04  0.11506360702E+04  0.00000000000E+00 0. -1.
         -6    2    1    2    0  503  0.85673050067E+02  0.37736480633E+02 -0.90698101495E+03  0.92807261056E+03  0.17303264287E+03 0.  0.
        -24    2    3    3    0    0  0.66188263121E+02 -0.39598481304E+02 -0.62913658562E+03  0.63897060404E+03  0.80756817450E+02 0.  0.
          6    2    1    2  501    0 -0.85673050067E+02 -0.37736480633E+02 -0.19159942187E+03  0.27461909294E+03  0.17303581788E+03 0.  0.
         24    2    5    5    0    0 -0.10791182260E+03 -0.14646621317E+02 -0.19973918193E+03  0.24121175392E+03  0.80174088435E+02 0.  0.
          5    1    5    5  501    0  0.22238772531E+02 -0.23089859316E+02  0.81397600584E+01  0.33407339025E+02  0.47000000000E+01 0. -1.
        -13    1    6    6    0    0 -0.81166177463E+01 -0.58856966156E+01  0.64865820779E+01  0.11941384147E+02  0.00000000000E+00 0.  1.
         14    1    6    6    0    0 -0.99795204852E+02 -0.87609247018E+01 -0.20622576401E+03  0.22927036977E+03  0.00000000000E+00 0. -1.
         -5    1    3    3    0  503  0.19484786945E+02  0.77334961937E+02 -0.27784442933E+03  0.28910200651E+03  0.47000000000E+01 0.  1.
         11    1    4    4    0    0  0.39553195607E+02 -0.63551336410E+02 -0.38365616113E+03  0.39089036521E+03  0.00000000000E+00 0. -1.
        -12    1    4    4    0    0  0.26635067514E+02  0.23952855106E+02 -0.24548042449E+03  0.24808023883E+03  0.00000000000E+00 0.  1.
<mgrwt>
<rscale>  2 0.19673595E+03</rscale>
<asrwt>0</asrwt>
<pdfrwt beam="1">  1       21 0.80085606E-02 0.19673665E+03</pdfrwt>
<pdfrwt beam="2">  1       21 0.17702090E+00 0.19673665E+03</pdfrwt>
<totfact> 0.22776610E+04</totfact>
</mgrwt>
</event>
<event>
12    1  0.1019868E-001  0.2419425E+03  0.7546771E-02  0.1118833E+00
         21   -1    0    0  501  502  0.00000000000E+00  0.00000000000E+00  0.65944165566E+02  0.65944165566E+02  0.00000000000E+00 0.  1.
         21   -1    0    0  502  503 -0.00000000000E+00 -0.00000000000E+00 -0.92480802512E+03  0.92480802512E+03  0.00000000000E+00 0.  1.
         -6    2    1    2    0  503  0.15054511071E+03  0.72015086073E+02 -0.31922750419E+03  0.39936099356E+03  0.17243259775E+03 0.  0.
        -24    2    3    3    0    0  0.32551598920E+01  0.20221796488E+02 -0.80531090800E+02  0.11409805832E+03  0.78189469927E+02 0.  0.
          6    2    1    2  501    0 -0.15054511071E+03 -0.72015086073E+02 -0.53963635536E+03  0.59139119712E+03  0.17517462438E+03 0.  0.
         24    2    5    5    0    0 -0.32228424016E+02  0.16421044437E+02 -0.26446739297E+03  0.27904549859E+03  0.81333057998E+02 0.  0.
          5    1    5    5  501    0 -0.11831668669E+03 -0.88436130510E+02 -0.27516896240E+03  0.31234569854E+03  0.47000000000E+01 0. -1.
        -13    1    6    6    0    0 -0.28483463510E+02 -0.28603060125E+02 -0.16386827878E+03  0.16876686740E+03  0.00000000000E+00 0.  1.
         14    1    6    6    0    0 -0.37449605065E+01  0.45024104562E+02 -0.10059911419E+03  0.11027863118E+03  0.00000000000E+00 0. -1.
         -5    1    3    3    0  503  0.14728995082E+03  0.51793289585E+02 -0.23869641339E+03  0.28526293524E+03  0.47000000000E+01 0.  1.
         13    1    4    4    0    0  0.16902172744E+02 -0.25943351558E+02 -0.20438826312E+02  0.37101031718E+02  0.00000000000E+00 0. -1.
        -14    1    4    4    0    0 -0.13647012852E+02  0.46165148047E+02 -0.60092264488E+02  0.76997026600E+02  0.00000000000E+00 0.  1.
<mgrwt>
<rscale>  2 0.24144647E+03</rscale>
<asrwt>0</asrwt>
<pdfrwt beam="1">  1       21 0.10145256E-01 0.24194246E+03</pdfrwt>
<pdfrwt beam="2">  1       21 0.14227816E+00 0.24194246E+03</pdfrwt>
<totfact> 0.26376296E+04</totfact>
</mgrwt>
</event>
<event>
12    1  0.1019868E-001  0.1814588E+03  0.7546771E-02  0.1166514E+00
         21   -1    0    0  503  502  0.00000000000E+00  0.00000000000E+00  0.37988467757E+03  0.37988467757E+03  0.00000000000E+00 0. -1.
         21   -1    0    0  501  503 -0.00000000000E+00 -0.00000000000E+00 -0.11074131545E+03  0.11074131545E+03  0.00000000000E+00 0.  1.
          6    2    1    2  501    0 -0.37542450737E+02 -0.39403575025E+02  0.19535897834E+02  0.18203052242E+03  0.17260180316E+03 0.  0.
         24    2    3    3    0    0 -0.21458948535E+02 -0.82538282841E+02 -0.22728623267E+02  0.11935946207E+03  0.80355685941E+02 0.  0.
         -6    2    1    2    0  502  0.37542450737E+02  0.39403575025E+02  0.24960746429E+03  0.30859547061E+03  0.17310459532E+03 0.  0.
        -24    2    5    5    0    0 -0.25598037589E+02 -0.27238518412E+02  0.13147812658E+03  0.15891407460E+03  0.81055468192E+02 0.  0.
          5    1    3    3  501    0 -0.16083502202E+02  0.43134707816E+02  0.42264521101E+02  0.62671060350E+02  0.47000000000E+01 0. -1.
        -13    1    4    4    0    0 -0.69009504739E+01  0.10493597153E+00 -0.33997114024E+02  0.34690602343E+02  0.00000000000E+00 0.  1.
         14    1    4    4    0    0 -0.14557998062E+02 -0.82643218812E+02  0.11268490756E+02  0.84668859725E+02  0.00000000000E+00 0. -1.
         -5    1    5    5    0  502  0.63140488326E+02  0.66642093437E+02  0.11812933771E+03  0.14968139601E+03  0.47000000000E+01 0.  1.
         11    1    6    6    0    0 -0.25914685838E+02 -0.12956783930E+02  0.13953645538E+03  0.14251270670E+03  0.00000000000E+00 0. -1.
        -12    1    6    6    0    0  0.31664824945E+00 -0.14281734482E+02 -0.80583287999E+01  0.16401367899E+02  0.00000000000E+00 0.  1.
<mgrwt>
<rscale>  2 0.18133874E+03</rscale>
<asrwt>0</asrwt>
<pdfrwt beam="1">  1       21 0.58443796E-01 0.18145875E+03</pdfrwt>
<pdfrwt beam="2">  1       21 0.17037126E-01 0.18145875E+03</pdfrwt>
<totfact> 0.85561118E+04</totfact>
</mgrwt>
</event>
<event>
12    1  0.1019868E-001  0.1996314E+03  0.7546771E-02  0.1150325E+00
         21   -1    0    0  501  502  0.00000000000E+00  0.00000000000E+00  0.94735572322E+02  0.94735572322E+02  0.00000000000E+00 0.  1.
         21   -1    0    0  502  503 -0.00000000000E+00 -0.00000000000E+00 -0.42824602247E+03  0.42824602247E+03  0.00000000000E+00 0. -1.
         -6    2    1    2    0  503  0.60045485163E+02  0.69367540121E+02 -0.20676875775E+03  0.28651562339E+03  0.17584245038E+03 0.  0.
        -24    2    3    3    0    0 -0.34891657888E+02  0.11914607952E+02 -0.72063690223E+02  0.11192626013E+03  0.77297649291E+02 0.  0.
          6    2    1    2  501    0 -0.60045485163E+02 -0.69367540121E+02 -0.12674169240E+03  0.23646597140E+03  0.17730026263E+03 0.  0.
         24    2    5    5    0    0 -0.19086411783E+02 -0.67418054275E+02 -0.32547470369E+01  0.10626396734E+03  0.79824508888E+02 0.  0.
          5    1    5    5  501    0 -0.40959073380E+02 -0.19494858463E+01 -0.12348694536E+03  0.13020200407E+03  0.47000000000E+01 0. -1.
        -13    1    6    6    0    0 -0.43519397999E+02 -0.35665825644E+02 -0.23970886428E+02  0.61160383560E+02  0.00000000000E+00 0.  1.
         14    1    6    6    0    0  0.24432986215E+02 -0.31752228631E+02  0.20716139391E+02  0.45103583779E+02  0.00000000000E+00 0. -1.
         -5    1    3    3    0  503  0.94937143051E+02  0.57452932169E+02 -0.13470506753E+03  0.17458936326E+03  0.47000000000E+01 0.  1.
         11    1    4    4    0    0  0.17874539193E+01  0.14580561886E+02 -0.73665163154E+02  0.75115537933E+02  0.00000000000E+00 0. -1.
        -12    1    4    4    0    0 -0.36679111807E+02 -0.26659539337E+01  0.16014729310E+01  0.36810722200E+02  0.00000000000E+00 0.  1.
<mgrwt>
<rscale>  2 0.19930722E+03</rscale>
<asrwt>0</asrwt>
<pdfrwt beam="1">  1       21 0.14574704E-01 0.19963141E+03</pdfrwt>
<pdfrwt beam="2">  1       21 0.65884002E-01 0.19963141E+03</pdfrwt>
<totfact> 0.87216241E+04</totfact>
</mgrwt>
</event>
<event>
12    1  0.1019868E-001  0.1814709E+03  0.7546771E-02  0.1166824E+00
         21   -1    0    0  501  502  0.00000000000E+00  0.00000000000E+00  0.44917045159E+03  0.44917045159E+03  0.00000000000E+00 0.  1.
         21   -1    0    0  502  503 -0.00000000000E+00 -0.00000000000E+00 -0.14549326628E+03  0.14549326628E+03  0.00000000000E+00 0.  1.
         -6    2    1    2    0  503  0.23680210313E+02  0.43712904288E+02 -0.59020406025E+02  0.18910086715E+03  0.17263881159E+03 0.  0.
        -24    2    3    3    0    0 -0.29590209700E+02  0.33275608021E+02  0.15532644990E+02  0.96759531780E+02  0.84488444954E+02 0.  0.
          6    2    1    2  501    0 -0.23680210313E+02 -0.43712904288E+02  0.36269759134E+03  0.40556285072E+03  0.17452825778E+03 0.  0.
         24    2    5    5    0    0 -0.62708848515E+02 -0.28622674683E+02  0.34367075310E+03  0.35935613906E+03  0.79218627585E+02 0.  0.
          5    1    5    5  501    0  0.39028638202E+02 -0.15090229605E+02  0.19026838237E+02  0.46206711663E+02  0.47000000000E+01 0. -1.
        -11    1    6    6    0    0 -0.19451479206E+02 -0.50526861107E+02  0.21887588604E+03  0.22547278600E+03  0.00000000000E+00 0.  1.
         12    1    6    6    0    0 -0.43257369309E+02  0.21904186423E+02  0.12479486705E+03  0.13388335306E+03  0.00000000000E+00 0. -1.
         -5    1    3    3    0  503  0.53270420013E+02  0.10437296267E+02 -0.74553051015E+02  0.92341335367E+02  0.47000000000E+01 0.  1.
         11    1    4    4    0    0  0.12845457504E+02 -0.21631904302E+02  0.10242643663E+02  0.27163519864E+02  0.00000000000E+00 0. -1.
        -12    1    4    4    0    0 -0.42435667204E+02  0.54907512323E+02  0.52900013269E+01  0.69596011916E+02  0.00000000000E+00 0.  1.
<mgrwt>
<rscale>  2 0.18101507E+03</rscale>
<asrwt>0</asrwt>
<pdfrwt beam="1">  1       21 0.69103146E-01 0.18147089E+03</pdfrwt>
<pdfrwt beam="2">  1       21 0.22383580E-01 0.18147089E+03</pdfrwt>
<totfact> 0.35824852E+04</totfact>
</mgrwt>
</event>
<event>
11    1  0.1019868E-001  0.1867817E+03  0.7546771E-02  0.1161579E+00
         21   -1    0    0  503  502  0.00000000000E+00  0.00000000000E+00  0.16956354516E+03  0.16956354516E+03  0.00000000000E+00 0. -1.
         21   -1    0    0  501  503 -0.00000000000E+00 -0.00000000000E+00 -0.21922917980E+03  0.21922917980E+03  0.00000000000E+00 0. -1.
          6    2    1    2  501    0 -0.17307846819E+02 -0.66444218790E+02  0.24856043288E+02  0.18842830375E+03  0.17370379097E+03 0.  0.
         -6    2    1    2    0  502  0.17307846819E+02  0.66444218790E+02 -0.74521677924E+02  0.20036442121E+03  0.17285261072E+03 0.  0.
        -24    2    4    4    0    0  0.18229923789E+02  0.70107438556E+02 -0.11508320914E+03  0.15935713869E+03  0.83085314974E+02 0.  0.
          5    1    3    3  501    0  0.33644801137E+02 -0.18444753039E+02  0.36900921623E+01  0.38831537935E+02  0.47000000000E+01 0. -1.
        -13    1    3    3    0    0 -0.13657381678E+02  0.44655171075E+02 -0.31412250379E+01  0.46802517804E+02  0.00000000000E+00 0.  1.
         14    1    3    3    0    0 -0.37295266279E+02 -0.92654636826E+02  0.24307176163E+02  0.10279424802E+03  0.00000000000E+00 0. -1.
         -5    1    4    4    0  502 -0.92207697040E+00 -0.36632197662E+01  0.40561531214E+02  0.41007282517E+02  0.47000000000E+01 0.  1.
         11    1    5    5    0    0  0.29714890835E+02  0.79289556404E+02 -0.63834872878E+02  0.10604102738E+03  0.00000000000E+00 0. -1.
        -12    1    5    5    0    0 -0.11484967046E+02 -0.91821178475E+01 -0.51248336260E+02  0.53316111314E+02  0.00000000000E+00 0.  1.
<mgrwt>
<rscale>  2 0.18658355E+03</rscale>
<asrwt>0</asrwt>
<pdfrwt beam="1">  1       21 0.26086699E-01 0.18678170E+03</pdfrwt>
<pdfrwt beam="2">  1       21 0.33727566E-01 0.18678170E+03</pdfrwt>
<totfact> 0.11848181E+05</totfact>
</mgrwt>
</event>
<event>
12    1  0.1019868E-001  0.2518537E+03  0.7546771E-02  0.1112290E+00
         21   -1    0    0  503  502  0.00000000000E+00  0.00000000000E+00  0.88644533275E+02  0.88644533275E+02  0.00000000000E+00 0. -1.
         21   -1    0    0  501  503 -0.00000000000E+00 -0.00000000000E+00 -0.74236917122E+03  0.74236917122E+03  0.00000000000E+00 0. -1.
          6    2    1    2  501    0 -0.42787768415E+02  0.17820527059E+03 -0.24458045274E+03  0.35106963459E+03  0.17274946854E+03 0.  0.
         24    2    3    3    0    0  0.23519672119E+02  0.38953559552E+02 -0.37637742623E+02  0.92931898168E+02  0.71757809673E+02 0.  0.
         -6    2    1    2    0  502  0.42787768415E+02 -0.17820527059E+03 -0.40914418520E+03  0.47994406990E+03  0.17134594934E+03 0.  0.
        -24    2    5    5    0    0  0.21619914548E+02 -0.13984247796E+03 -0.16264245514E+03  0.22953445583E+03  0.78804561101E+02 0.  0.
          5    1    3    3  501    0 -0.66307440534E+02  0.13925171104E+03 -0.20694271012E+03  0.25813773643E+03  0.47000000000E+01 0. -1.
        -11    1    4    4    0    0 -0.15309218267E+02 -0.37844345819E+01  0.94840049052E+01  0.18402186232E+02  0.00000000000E+00 0.  1.
         12    1    4    4    0    0  0.38828890387E+02  0.42737994134E+02 -0.47121747529E+02  0.74529711937E+02  0.00000000000E+00 0. -1.
         -5    1    5    5    0  502  0.21167853867E+02 -0.38362792628E+02 -0.24650173006E+03  0.25040961407E+03  0.47000000000E+01 0.  1.
         11    1    6    6    0    0  0.39960225195E+02 -0.44258586073E+02 -0.35430779811E+02  0.69361244199E+02  0.00000000000E+00 0. -1.
        -12    1    6    6    0    0 -0.18340310647E+02 -0.95583891888E+02 -0.12721167533E+03  0.16017321163E+03  0.00000000000E+00 0.  1.
<mgrwt>
<rscale>  2 0.25161321E+03</rscale>
<asrwt>0</asrwt>
<pdfrwt beam="1">  1       21 0.13637621E-01 0.25185371E+03</pdfrwt>
<pdfrwt beam="2">  1       21 0.11421064E+00 0.25185371E+03</pdfrwt>
<totfact> 0.26920534E+04</totfact>
</mgrwt>
</event>
<event>
12    1  0.1019868E-001  0.1802638E+03  0.7546771E-02  0.1168539E+00
         21   -1    0    0  501  502  0.00000000000E+00  0.00000000000E+00  0.25964038312E+02  0.25964038312E+02  0.00000000000E+00 0. -1.
         21   -1    0    0  502  503 -0.00000000000E+00 -0.00000000000E+00 -0.12768839471E+04  0.12768839471E+04  0.00000000000E+00 0. -1.
         -6    2    1    2    0  503  0.35439359119E+02  0.37902588105E+01 -0.75176855485E+03  0.77214361706E+03  0.17256735226E+03 0.  0.
        -24    2    3    3    0    0  0.37595257909E+01  0.26729700730E+02 -0.70951271489E+03  0.71437272607E+03  0.78686010329E+02 0.  0.
          6    2    1    2  501    0 -0.35439359119E+02 -0.37902588105E+01 -0.49915135398E+03  0.53070436840E+03  0.17670522974E+03 0.  0.
         24    2    5    5    0    0 -0.64434317194E+01 -0.67076168254E+02 -0.36129696619E+03  0.37619937698E+03  0.80310293867E+02 0.  0.
          5    1    5    5  501    0 -0.28995927399E+02  0.63285909443E+02 -0.13785438779E+03  0.15450499141E+03  0.47000000000E+01 0. -1.
        -11    1    6    6    0    0  0.53934774122E+01 -0.18073720841E+02 -0.27936254613E+03  0.27999853779E+03  0.00000000000E+00 0.  1.
         12    1    6    6    0    0 -0.11836909132E+02 -0.49002447413E+02 -0.81934420060E+02  0.96200839190E+02  0.00000000000E+00 0. -1.
         -5    1    3    3    0  503  0.31679833328E+02 -0.22939441920E+02 -0.42255839961E+02  0.57770890993E+02  0.47000000000E+01 0.  1.
         11    1    4    4    0    0 -0.28009359233E+02 -0.70341464125E+01 -0.43629094204E+03  0.43724568554E+03  0.00000000000E+00 0. -1.
        -12    1    4    4    0    0  0.31768885024E+02  0.33763847143E+02 -0.27322177285E+03  0.27712704053E+03  0.00000000000E+00 0.  1.
<mgrwt>
<rscale>  2 0.17924161E+03</rscale>
<asrwt>0</asrwt>
<pdfrwt beam="1">  1       21 0.39944673E-02 0.18026384E+03</pdfrwt>
<pdfrwt beam="2">  1       21 0.19644369E+00 0.18026384E+03</pdfrwt>
<totfact> 0.56037343E+04</totfact>
</mgrwt>
</event>
<event>
12    1  0.1019868E-001  0.3249433E+03  0.7546771E-02  0.1073571E+00
         21   -1    0    0  503  502  0.00000000000E+00  0.00000000000E+00  0.14038811226E+04  0.14038811226E+04  0.00000000000E+00 0.  1.
         21   -1    0    0  501  503 -0.00000000000E+00 -0.00000000000E+00 -0.11143503927E+03  0.11143503927E+03  0.00000000000E+00 0. -1.
          6    2    1    2  501    0 -0.11758575681E+03 -0.24656638930E+03  0.21108791532E+03  0.38619100072E+03  0.17310108754E+03 0.  0.
         24    2    3    3    0    0 -0.76268920281E+02 -0.40366196767E+02  0.75410587198E+02  0.13587913974E+03  0.73006889491E+02 0.  0.
         -6    2    1    2    0  502  0.11758575681E+03  0.24656638930E+03  0.10813581680E+04  0.11291251611E+04  0.17597371244E+03 0.  0.
        -24    2    5    5    0    0  0.87736344391E+02  0.26076591287E+03  0.10170570645E+04  0.10566728609E+04  0.80348834321E+02 0.  0.
          5    1    3    3  501    0 -0.41316836527E+02 -0.20620019253E+03  0.13567732812E+03  0.25031186098E+03  0.47000000000E+01 0. -1.
        -11    1    4    4    0    0 -0.81706522037E+02 -0.40418560205E+02  0.85139841681E+02  0.12473334916E+03  0.00000000000E+00 0.  1.
         12    1    4    4    0    0  0.54376017561E+01  0.52363437596E-01 -0.97292544831E+01  0.11145790577E+02  0.00000000000E+00 0. -1.
         -5    1    5    5    0  502  0.29849412417E+02 -0.14199523569E+02  0.64301103538E+02  0.72452300222E+02  0.47000000000E+01 0.  1.
         11    1    6    6    0    0  0.18594534564E+02  0.20561960908E+02  0.43844787767E+02  0.51874043282E+02  0.00000000000E+00 0. -1.
        -12    1    6    6    0    0  0.69141809827E+02  0.24020395196E+03  0.97321227671E+03  0.10047988176E+04  0.00000000000E+00 0.  1.
<mgrwt>
<rscale>  2 0.32455593E+03</rscale>
<asrwt>0</asrwt>
<pdfrwt beam="1">  1       21 0.21598170E+00 0.32494329E+03</pdfrwt>
<pdfrwt beam="2">  1       21 0.17143853E-01 0.32494329E+03</pdfrwt>
<totfact> 0.29491954E+03</totfact>
</mgrwt>
</event>
<event>
12    1  0.1019868E-001  0.2387264E+03  0.7546771E-02  0.1120766E+00
         21   -1    0    0  503  502  0.00000000000E+00  0.00000000000E+00  0.14377365353E+03  0.14377365353E+03  0.00000000000E+00 0.  1.
         21   -1    0    0  501  503 -0.00000000000E+00 -0.00000000000E+00 -0.63011078851E+03  0.63011078851E+03  0.00000000000E+00 0.  1.
          6    2    1    2  501    0  0.11337255222E+03  0.11712363383E+03 -0.47920232267E+03  0.53505144556E+03  0.17341828666E+03 0.  0.
         24    2    3    3    0    0  0.15026263470E+03  0.79540446266E+02 -0.39645862876E+03  0.43685784570E+03  0.68991238941E+02 0.  0.
         -6    2    1    2    0  502 -0.11337255222E+03 -0.11712363383E+03 -0.71348123111E+01  0.23883299647E+03  0.17441047405E+03 0.  0.
        -24    2    5    5    0    0 -0.14704910481E+02 -0.81726581776E+02  0.43512618659E+02  0.12231901840E+03  0.78569241563E+02 0.  0.
          5    1    3    3  501    0 -0.36890082474E+02  0.37583187569E+02 -0.82743693913E+02  0.98193599869E+02  0.47000000000E+01 0. -1.
        -11    1    4    4    0    0  0.47500003912E+02  0.36128998650E+02 -0.22118476381E+03  0.22909442301E+03  0.00000000000E+00 0.  1.
         12    1    4    4    0    0  0.10276263079E+03  0.43411447615E+02 -0.17527386495E+03  0.20776342268E+03  0.00000000000E+00 0. -1.
         -5    1    5    5    0  502 -0.98667641744E+02 -0.35397052059E+02 -0.50647430970E+02  0.11651397807E+03  0.47000000000E+01 0.  1.
         11    1    6    6    0    0 -0.74033700607E+01 -0.12077627690E+02  0.50019428939E+02  0.51986750718E+02  0.00000000000E+00 0. -1.
        -12    1    6    6    0    0 -0.73015404200E+01 -0.69648954086E+02 -0.65068102800E+01  0.70332267686E+02  0.00000000000E+00 0.  1.
<mgrwt>
<rscale>  2 0.23854522E+03</rscale>
<asrwt>0</asrwt>
<pdfrwt beam="1">  1       21 0.22119023E-01 0.23872640E+03</pdfrwt>
<pdfrwt beam="2">  1       21 0.96940123E-01 0.23872640E+03</pdfrwt>
<totfact> 0.16421694E+04</totfact>
</mgrwt>
</event>
<event>
12    1  0.1019868E-001  0.2485759E+03  0.7546771E-02  0.1114325E+00
         21   -1    0    0  503  502  0.00000000000E+00  0.00000000000E+00  0.55526137128E+03  0.55526137128E+03  0.00000000000E+00 0.  1.
         21   -1    0    0  501  503 -0.00000000000E+00 -0.00000000000E+00 -0.12282126001E+03  0.12282126001E+03  0.00000000000E+00 0.  1.
          6    2    1    2  501    0  0.16890183592E+03 -0.53933599541E+02  0.32131973420E+03  0.40580025568E+03  0.17317855695E+03 0.  0.
         24    2    3    3    0    0  0.72715382504E+02 -0.48284949087E+02  0.71435130701E+02  0.13794181146E+03  0.79410341209E+02 0.  0.
         -6    2    1    2    0  502 -0.16890183592E+03  0.53933599541E+02  0.11112037707E+03  0.27228237562E+03  0.17422195767E+03 0.  0.
        -24    2    5    5    0    0 -0.10055300214E+02 -0.10288346603E+02  0.24902180880E+02  0.80416934157E+02  0.75098638792E+02 0.  0.
          5    1    3    3  501    0  0.96186453416E+02 -0.56486504539E+01  0.24988460349E+03  0.26785844421E+03  0.47000000000E+01 0. -1.
        -13    1    4    4    0    0  0.89756564037E+02 -0.34850540504E+02  0.59253541012E+02  0.11305654817E+03  0.00000000000E+00 0.  1.
         14    1    4    4    0    0 -0.17041181533E+02 -0.13434408583E+02  0.12181589689E+02  0.24885263297E+02  0.00000000000E+00 0. -1.
         -5    1    5    5    0  502 -0.15884653571E+03  0.64221946143E+02  0.86218196193E+02  0.19186544146E+03  0.47000000000E+01 0.  1.
         13    1    6    6    0    0  0.19772167113E+02  0.22829133970E+02  0.18428668692E+02  0.35379708590E+02  0.00000000000E+00 0. -1.
        -14    1    6    6    0    0 -0.29827467328E+02 -0.33117480573E+02  0.64735121882E+01  0.45037225566E+02  0.00000000000E+00 0.  1.
<mgrwt>
<rscale>  2 0.24839310E+03</rscale>
<asrwt>0</asrwt>
<pdfrwt beam="1">  1       21 0.85424825E-01 0.24857585E+03</pdfrwt>
<pdfrwt beam="2">  1       21 0.18895579E-01 0.24857585E+03</pdfrwt>
<totfact> 0.29534897E+04</totfact>
</mgrwt>
</event>
<event>
12    1  0.1019868E-001  0.2483475E+03  0.7546771E-02  0.1116647E+00
         21   -1    0    0  503  502  0.00000000000E+00  0.00000000000E+00  0.14758505897E+03  0.14758505897E+03  0.00000000000E+00 0.  1.
         21   -1    0    0  501  503 -0.00000000000E+00 -0.00000000000E+00 -0.43792913327E+03  0.43792913327E+03  0.00000000000E+00 0. -1.
          6    2    1    2  501    0  0.70842352334E+02  0.14002521020E+03 -0.24083831778E+03  0.34594736385E+03  0.19248580434E+03 0.  0.
         24    2    3    3    0    0 -0.34946549894E+02  0.38665761322E+02 -0.64120729464E+02  0.11634722071E+03  0.81907907873E+02 0.  0.
         -6    2    1    2    0  502 -0.70842352334E+02 -0.14002521020E+03 -0.49505756524E+02  0.23956682839E+03  0.17411417794E+03 0.  0.
        -24    2    5    5    0    0 -0.10838181057E+03 -0.75889531492E+02 -0.55229733764E+02  0.16488450034E+03  0.81429338124E+02 0.  0.
          5    1    3    3  501    0  0.10578890223E+03  0.10135944887E+03 -0.17671758831E+03  0.22960014314E+03  0.47000000000E+01 0. -1.
        -13    1    4    4    0    0 -0.18493579252E+02  0.26906532591E+01  0.17526803902E+02  0.25621103480E+02  0.00000000000E+00 0.  1.
         14    1    4    4    0    0 -0.16452970643E+02  0.35975108063E+02 -0.81647533367E+02  0.90726117232E+02  0.00000000000E+00 0. -1.
         -5    1    5    5    0  502  0.37539458235E+02 -0.64135678704E+02  0.57239772396E+01  0.74682328049E+02  0.47000000000E+01 0.  1.
         13    1    6    6    0    0 -0.28486456056E+02 -0.16136366648E+02 -0.56280914684E+02  0.65110689328E+02  0.00000000000E+00 0. -1.
        -14    1    6    6    0    0 -0.79895354513E+02 -0.59753164844E+02  0.10511809201E+01  0.99773811008E+02  0.00000000000E+00 0.  1.
<mgrwt>
<rscale>  2 0.24478362E+03</rscale>
<asrwt>0</asrwt>
<pdfrwt beam="1">  1       21 0.22705394E-01 0.24834751E+03</pdfrwt>
<pdfrwt beam="2">  1       21 0.67373712E-01 0.24834751E+03</pdfrwt>
<totfact> 0.35670395E+04</totfact>
</mgrwt>
</event>
<event>
12    1  0.1019868E-001  0.1927468E+03  0.7546771E-02  0.1158205E+00
         21   -1    0    0  503  502  0.00000000000E+00  0.00000000000E+00  0.69658252235E+03  0.69658252235E+03  0.00000000000E+00 0. -1.
         21   -1    0    0  501  503 -0.00000000000E+00 -0.00000000000E+00 -0.59456520355E+02  0.59456520355E+02  0.00000000000E+00 0.  1.
          6    2    1    2  501    0 -0.11615180259E+02 -0.72190890545E+02  0.16649686237E+03  0.24746938397E+03  0.16784949727E+03 0.  0.
         24    2    3    3    0    0  0.46913233485E+02 -0.36468014296E+02  0.14328639945E+03  0.17492619207E+03  0.80854269281E+02 0.  0.
         -6    2    1    2    0  502  0.11615180259E+02  0.72190890545E+02  0.47062913962E+03  0.50856965873E+03  0.17833920946E+03 0.  0.
        -24    2    5    5    0    0  0.34301681955E+02  0.63512088822E+02  0.47134239603E+03  0.48381894777E+03  0.81894622020E+02 0.  0.
          5    1    3    3  501    0 -0.58528413744E+02 -0.35722876249E+02  0.23210462921E+02  0.72543191906E+02  0.47000000000E+01 0. -1.
        -11    1    4    4    0    0  0.24085039214E+01  0.22074995248E+02  0.14187344714E+02  0.26351224950E+02  0.00000000000E+00 0.  1.
         12    1    4    4    0    0  0.44504729563E+02 -0.58543009544E+02  0.12909905473E+03  0.14857496712E+03  0.00000000000E+00 0. -1.
         -5    1    5    5    0  502 -0.22686501696E+02  0.86788017229E+01 -0.71325640274E+00  0.24750710964E+02  0.47000000000E+01 0.  1.
         11    1    6    6    0    0  0.34759307493E+02 -0.43886248369E+01  0.24556847706E+03  0.24805512777E+03  0.00000000000E+00 0. -1.
        -12    1    6    6    0    0 -0.45762553771E+00  0.67900713659E+02  0.22577391897E+03  0.23576382000E+03  0.00000000000E+00 0.  1.
<mgrwt>
<rscale>  2 0.19028437E+03</rscale>
<asrwt>0</asrwt>
<pdfrwt beam="1">  1       21 0.10716654E+00 0.19274675E+03</pdfrwt>
<pdfrwt beam="2">  1       21 0.91471575E-02 0.19274675E+03</pdfrwt>
<totfact> 0.66040370E+04</totfact>
</mgrwt>
</event>
<event>
12    1  0.1019868E-001  0.3839773E+03  0.7546771E-02  0.1049510E+00
         21   -1    0    0  503  502  0.00000000000E+00  0.00000000000E+00  0.17587299454E+03  0.17587299454E+03  0.00000000000E+00 0.  1.
         21   -1    0    0  501  503 -0.00000000000E+00 -0.00000000000E+00 -0.14672099461E+04  0.14672099461E+04  0.00000000000E+00 0. -1.
          6    2    1    2  501    0  0.36954101259E+02 -0.34057606746E+03 -0.11837089286E+04  0.12443068410E+04  0.17255440820E+03 0.  0.
         24    2    3    3    0    0  0.69493524999E+02 -0.20185993895E+03 -0.56550289868E+03  0.60987657396E+03  0.81111787583E+02 0.  0.
         -6    2    1    2    0  502 -0.36954101259E+02  0.34057606746E+03 -0.10762802300E+03  0.39877609960E+03  0.17343852788E+03 0.  0.
        -24    2    5    5    0    0  0.29957538832E+01  0.16763874608E+03  0.83191391972E+01  0.18671680961E+03  0.81744939806E+02 0.  0.
          5    1    3    3  501    0 -0.32539423740E+02 -0.13871612850E+03 -0.61820602989E+03  0.63443026709E+03  0.47000000000E+01 0. -1.
        -13    1    4    4    0    0 -0.57421248099E+01 -0.42541281035E+02 -0.54648379954E+02  0.69492287493E+02  0.00000000000E+00 0.  1.
         14    1    4    4    0    0  0.75235649809E+02 -0.15931865792E+03 -0.51085451873E+03  0.54038428647E+03  0.00000000000E+00 0. -1.
         -5    1    5    5    0  502 -0.39949855142E+02  0.17293732138E+03 -0.11594716220E+03  0.21205928999E+03  0.47000000000E+01 0.  1.
         13    1    6    6    0    0  0.81430146280E+01  0.10663791780E+03 -0.34083557066E+02  0.11224813166E+03  0.00000000000E+00 0. -1.
        -14    1    6    6    0    0 -0.51472607448E+01  0.61000828286E+02  0.42402696263E+02  0.74468677947E+02  0.00000000000E+00 0.  1.
<mgrwt>
<rscale>  2 0.38387765E+03</rscale>
<asrwt>0</asrwt>
<pdfrwt beam="1">  1       21 0.27057385E-01 0.38397733E+03</pdfrwt>
<pdfrwt beam="2">  1       21 0.22572460E+00 0.38397733E+03</pdfrwt>
<totfact> 0.10353730E+03</totfact>
</mgrwt>
</event>
<event>
12    1  0.1019868E-001  0.1950622E+03  0.7546771E-02  0.1154479E+00
         21   -1    0    0  501  502  0.00000000000E+00  0.00000000000E+00  0.18103115563E+02  0.18103115563E+02  0.00000000000E+00 0. -1.
         21   -1    0    0  502  503 -0.00000000000E+00 -0.00000000000E+00 -0.21269170941E+04  0.21269170941E+04  0.00000000000E+00 0.  1.
         -6    2    1    2    0  503  0.75172179040E+02 -0.40464273558E+02 -0.89625425637E+03  0.91723548984E+03  0.17538824883E+03 0.  0.
        -24    2    3    3    0    0  0.42142212537E+01 -0.47802674745E+02 -0.23545803949E+03  0.25258323930E+03  0.77813553074E+02 0.  0.
          6    2    1    2  501    0 -0.75172179040E+02  0.40464273558E+02 -0.12125597221E+04  0.12277847198E+04  0.17281789394E+03 0.  0.
         24    2    5    5    0    0 -0.11058606021E+03  0.61587870295E+02 -0.99521918500E+03  0.10065171252E+04  0.81198243300E+02 0.  0.
          5    1    5    5  501    0  0.35413881168E+02 -0.21123596737E+02 -0.21734053712E+03  0.22126759454E+03  0.47000000000E+01 0. -1.
        -11    1    6    6    0    0 -0.61292616093E+02  0.37431294471E+02 -0.81410476967E+03  0.81726645752E+03  0.00000000000E+00 0.  1.
         12    1    6    6    0    0 -0.49293444114E+02  0.24156575823E+02 -0.18111441533E+03  0.18925066771E+03  0.00000000000E+00 0. -1.
         -5    1    3    3    0  503  0.70957957787E+02  0.73384011873E+01 -0.66079621688E+03  0.66465225054E+03  0.47000000000E+01 0.  1.
         13    1    4    4    0    0  0.24355700551E+02 -0.60532217025E+02 -0.19504184394E+03  0.20566640546E+03  0.00000000000E+00 0. -1.
        -14    1    4    4    0    0 -0.20141479298E+02  0.12729542280E+02 -0.40416195548E+02  0.46916833839E+02  0.00000000000E+00 0.  1.
<mgrwt>
<rscale>  2 0.19448264E+03</rscale>
<asrwt>0</asrwt>
<pdfrwt beam="1">  1       21 0.27850962E-02 0.19506217E+03</pdfrwt>
<pdfrwt beam="2">  1       21 0.32721784E+00 0.19506217E+03</pdfrwt>
<totfact> 0.16960105E+04</totfact>
</mgrwt>
</event>
<event>
12    1  0.1019868E-001  0.1947717E+03  0.7546771E-02  0.1156585E+00
         21   -1    0    0  503  502  0.00000000000E+00  0.00000000000E+00  0.30949176462E+03  0.30949176462E+03  0.00000000000E+00 0.  1.
         21   -1    0    0  501  503 -0.00000000000E+00 -0.00000000000E+00 -0.11857336336E+03  0.11857336336E+03  0.00000000000E+00 0.  1.
          6    2    1    2  501    0  0.38141223531E+01 -0.62775992373E+02  0.61758093683E+02  0.19435933627E+03  0.17322273729E+03 0.  0.
         24    2    3    3    0    0 -0.18466211618E+02 -0.71740445788E+02 -0.32649597844E+02  0.96831509851E+02  0.53128641310E+02 0.  0.
         -6    2    1    2    0  502 -0.38141223531E+01  0.62775992373E+02  0.12916030758E+03  0.23370579171E+03  0.18433838254E+03 0.  0.
        -24    2    5    5    0    0  0.22577284359E+02  0.59621146508E+02  0.16158645736E+03  0.19151569109E+03  0.80645284132E+02 0.  0.
          5    1    3    3  501    0  0.22280333971E+02  0.89644534141E+01  0.94407691527E+02  0.97527826421E+02  0.47000000000E+01 0. -1.
        -13    1    4    4    0    0  0.15960891924E+01 -0.71052063948E+02 -0.26230207551E+02  0.75755970591E+02  0.00000000000E+00 0.  1.
         14    1    4    4    0    0 -0.20062300811E+02 -0.68838183905E+00 -0.64193902931E+01  0.21075539260E+02  0.00000000000E+00 0. -1.
         -5    1    5    5    0  502 -0.26391406712E+02  0.31548458653E+01 -0.32426149781E+02  0.42190100620E+02  0.47000000000E+01 0.  1.
         13    1    6    6    0    0  0.39245369720E+02  0.61515954175E+01  0.34420468034E+02  0.52562437066E+02  0.00000000000E+00 0. -1.
        -14    1    6    6    0    0 -0.16668085361E+02  0.53469551091E+02  0.12716598933E+03  0.13895325403E+03  0.00000000000E+00 0.  1.
<mgrwt>
<rscale>  2 0.19209573E+03</rscale>
<asrwt>0</asrwt>
<pdfrwt beam="1">  1       21 0.47614117E-01 0.19477169E+03</pdfrwt>
<pdfrwt beam="2">  1       21 0.18242056E-01 0.19477169E+03</pdfrwt>
<totfact> 0.11543983E+05</totfact>
</mgrwt>
</event>
<event>
12    1  0.1019868E-001  0.2212644E+03  0.7546771E-02  0.1132963E+00
         21   -1    0    0  501  502  0.00000000000E+00  0.00000000000E+00  0.16529462764E+03  0.16529462764E+03  0.00000000000E+00 0.  1.
         21   -1    0    0  502  503 -0.00000000000E+00 -0.00000000000E+00 -0.29764818946E+03  0.29764818946E+03  0.00000000000E+00 0.  1.
         -6    2    1    2    0  503  0.12920591248E+03  0.47401863075E+02 -0.49188454800E+02  0.22656522448E+03  0.17312190045E+03 0.  0.
        -24    2    3    3    0    0 -0.21530282615E+01  0.26588495719E+02 -0.38189605741E+02  0.93030838445E+02  0.80527680208E+02 0.  0.
          6    2    1    2  501    0 -0.12920591248E+03 -0.47401863075E+02 -0.83165107013E+02  0.23637759263E+03  0.17325364882E+03 0.  0.
         24    2    5    5    0    0 -0.95226133065E+02 -0.64161941665E+02  0.51284949467E+01  0.14018312402E+03  0.80251078643E+02 0.  0.
          5    1    5    5  501    0 -0.33979779411E+02  0.16760078591E+02 -0.88293601960E+02  0.96194468605E+02  0.47000000000E+01 0. -1.
        -11    1    6    6    0    0 -0.59323582896E+02  0.17292508239E+01  0.21959458995E+02  0.63281084341E+02  0.00000000000E+00 0.  1.
         12    1    6    6    0    0 -0.35902550169E+02 -0.65891192489E+02 -0.16830964048E+02  0.76902039681E+02  0.00000000000E+00 0. -1.
         -5    1    3    3    0  503  0.13135894074E+03  0.20813367355E+02 -0.10998849059E+02  0.13353438603E+03  0.47000000000E+01 0.  1.
         13    1    4    4    0    0 -0.20410575900E+02  0.61206218232E+01  0.19670124113E+02  0.28999437973E+02  0.00000000000E+00 0. -1.
        -14    1    4    4    0    0  0.18257547639E+02  0.20467873896E+02 -0.57859729854E+02  0.64031400472E+02  0.00000000000E+00 0.  1.
<mgrwt>
<rscale>  2 0.22123860E+03</rscale>
<asrwt>0</asrwt>
<pdfrwt beam="1">  1       21 0.25429943E-01 0.22126439E+03</pdfrwt>
<pdfrwt beam="2">  1       21 0.45792029E-01 0.22126439E+03</pdfrwt>
<totfact> 0.66187720E+04</totfact>
</mgrwt>
</event>
<event>
12    1  0.1019868E-001  0.1880879E+03  0.7546771E-02  0.1161558E+00
         21   -1    0    0  503  502  0.00000000000E+00  0.00000000000E+00  0.21393171436E+04  0.21393171436E+04  0.00000000000E+00 0. -1.
         21   -1    0    0  501  503 -0.00000000000E+00 -0.00000000000E+00 -0.18108325979E+02  0.18108325979E+02  0.00000000000E+00 0. -1.
          6    2    1    2  501    0 -0.44105334199E+02 -0.46858104074E+02  0.67997796785E+03  0.70397322873E+03  0.17049137096E+03 0.  0.
         24    2    3    3    0    0 -0.55739262579E+02 -0.70391718358E+02  0.65916791019E+03  0.67014531436E+03  0.80811812970E+02 0.  0.
         -6    2    1    2    0  502  0.44105334199E+02  0.46858104074E+02  0.14412308498E+04  0.14534522408E+04  0.17673735231E+03 0.  0.
        -24    2    5    5    0    0  0.43824576119E+02  0.96820295619E+02  0.11587466851E+04  0.11665451257E+04  0.82697563862E+02 0.  0.
          5    1    3    3  501    0  0.11633928380E+02  0.23533614284E+02  0.20810057660E+02  0.33827914370E+02  0.47000000000E+01 0. -1.
        -13    1    4    4    0    0  0.83649307922E+01  0.12036335068E+02  0.12587481845E+03  0.12672535401E+03  0.00000000000E+00 0.  1.
         14    1    4    4    0    0 -0.64104193371E+02 -0.82428053427E+02  0.53329309175E+03  0.54341996035E+03  0.00000000000E+00 0. -1.
         -5    1    5    5    0  502  0.28075807976E+00 -0.49962191545E+02  0.28248416467E+03  0.28690711510E+03  0.47000000000E+01 0.  1.
         11    1    6    6    0    0  0.64750665758E+02  0.77987294213E+02  0.74831058521E+03  0.75514462106E+03  0.00000000000E+00 0. -1.
        -12    1    6    6    0    0 -0.20926089639E+02  0.18833001406E+02  0.41043609989E+03  0.41140050469E+03  0.00000000000E+00 0.  1.
<mgrwt>
<rscale>  2 0.18660634E+03</rscale>
<asrwt>0</asrwt>
<pdfrwt beam="1">  1       21 0.32912551E+00 0.18808789E+03</pdfrwt>
<pdfrwt beam="2">  1       21 0.27858980E-02 0.18808789E+03</pdfrwt>
<totfact> 0.16652156E+04</totfact>
</mgrwt>
</event>
<event>
12    1  0.1019868E-001  0.2362311E+03  0.7546771E-02  0.1122498E+00
         21   -1    0    0  501  502  0.00000000000E+00  0.00000000000E+00  0.47830129323E+02  0.47830129323E+02  0.00000000000E+00 0. -1.
         21   -1    0    0  502  503 -0.00000000000E+00 -0.00000000000E+00 -0.11937755754E+04  0.11937755754E+04  0.00000000000E+00 0.  1.
         -6    2    1    2    0  503 -0.13874094103E+03  0.80480694984E+02 -0.67568981893E+03  0.71579458054E+03  0.17343286640E+03 0.  0.
        -24    2    3    3    0    0 -0.50127990966E+02 -0.24866097728E+02 -0.29410975283E+03  0.31011534950E+03  0.80869308101E+02 0.  0.
          6    2    1    2  501    0  0.13874094103E+03 -0.80480694984E+02 -0.47025562713E+03  0.52581112417E+03  0.17207786744E+03 0.  0.
         24    2    5    5    0    0  0.68603892292E+01 -0.58301998055E+00 -0.18141369077E+03  0.19835445128E+03  0.79913429981E+02 0.  0.
          5    1    5    5  501    0  0.13188055180E+03 -0.79897675004E+02 -0.28884193636E+03  0.32745667288E+03  0.47000000000E+01 0. -1.
        -11    1    6    6    0    0  0.11494453096E+02  0.19979340248E+02 -0.17472753664E+03  0.17624133610E+03  0.00000000000E+00 0.  1.
         12    1    6    6    0    0 -0.46340638665E+01 -0.20562360228E+02 -0.66861541291E+01  0.22113115183E+02  0.00000000000E+00 0. -1.
         -5    1    3    3    0  503 -0.88612950064E+02  0.10534679271E+03 -0.38158006610E+03  0.40567923104E+03  0.47000000000E+01 0.  1.
         13    1    4    4    0    0 -0.31855643628E+02  0.27871629622E+02 -0.13672618863E+03  0.14312812591E+03  0.00000000000E+00 0. -1.
        -14    1    4    4    0    0 -0.18272347338E+02 -0.52737727350E+02 -0.15738356420E+03  0.16698722360E+03  0.00000000000E+00 0.  1.
<mgrwt>
<rscale>  2 0.23598250E+03</rscale>
<asrwt>0</asrwt>
<pdfrwt beam="1">  1       21 0.73584814E-02 0.23623114E+03</pdfrwt>
<pdfrwt beam="2">  1       21 0.18365778E+00 0.23623114E+03</pdfrwt>
<totfact> 0.23166692E+04</totfact>
</mgrwt>
</event>
<event>
12    1  0.1019868E-001  0.2507832E+03  0.7546771E-02  0.1113424E+00
         21   -1    0    0  501  502  0.00000000000E+00  0.00000000000E+00  0.11186323443E+03  0.11186323443E+03  0.00000000000E+00 0. -1.
         21   -1    0    0  502  503 -0.00000000000E+00 -0.00000000000E+00 -0.16917079346E+04  0.16917079346E+04  0.00000000000E+00 0.  1.
         -6    2    1    2    0  503  0.20175852996E+02 -0.17603238312E+03 -0.15275698357E+04  0.15473976078E+04  0.17197467465E+03 0.  0.
        -24    2    3    3    0    0  0.40147707650E+02 -0.19720359000E+03 -0.13419078117E+04  0.13594093844E+04  0.82317707462E+02 0.  0.
          6    2    1    2  501    0 -0.20175852996E+02  0.17603238312E+03 -0.52274864502E+02  0.25617356127E+03  0.17747610284E+03 0.  0.
         24    2    5    5    0    0 -0.60444695119E+02  0.15059626092E+03  0.67363299484E+01  0.18019338603E+03  0.78047954842E+02 0.  0.
          5    1    5    5  501    0  0.40268842123E+02  0.25436122199E+02 -0.59011194451E+02  0.75980175236E+02  0.47000000000E+01 0. -1.
        -13    1    6    6    0    0 -0.52218131486E+00  0.96714452154E+01 -0.22315169057E+02  0.24326452596E+02  0.00000000000E+00 0.  1.
         14    1    6    6    0    0 -0.59922513804E+02  0.14092481571E+03  0.29051499005E+02  0.15586693343E+03  0.00000000000E+00 0. -1.
         -5    1    3    3    0  503 -0.19971854654E+02  0.21171206879E+02 -0.18566202399E+03  0.18798822338E+03  0.47000000000E+01 0.  1.
         11    1    4    4    0    0 -0.40898166444E+01  0.61913498984E+01 -0.90979482848E+02  0.91281573787E+02  0.00000000000E+00 0. -1.
        -12    1    4    4    0    0  0.44237524295E+02 -0.20339493990E+03 -0.12509283289E+04  0.12681278106E+04  0.00000000000E+00 0.  1.
<mgrwt>
<rscale>  2 0.24981193E+03</rscale>
<asrwt>0</asrwt>
<pdfrwt beam="1">  1       21 0.17209730E-01 0.25078324E+03</pdfrwt>
<pdfrwt beam="2">  1       21 0.26026273E+00 0.25078324E+03</pdfrwt>
<totfact> 0.16611082E+03</totfact>
</mgrwt>
</event>
<event>
12    1  0.1019868E-001  0.2079755E+03  0.7546771E-02  0.1143319E+00
         21   -1    0    0  501  502  0.00000000000E+00  0.00000000000E+00  0.15290855229E+03  0.15290855229E+03  0.00000000000E+00 0.  1.
         21   -1    0    0  502  503 -0.00000000000E+00 -0.00000000000E+00 -0.28297606352E+03  0.28297606352E+03  0.00000000000E+00 0.  1.
         -6    2    1    2    0  503 -0.10919306536E+03 -0.31310188364E+02 -0.78186145167E+02  0.22153561811E+03  0.17338253480E+03 0.  0.
        -24    2    3    3    0    0 -0.12048450817E+03  0.28005037746E+02 -0.54564436393E+02  0.15652894264E+03  0.78887472502E+02 0.  0.
          6    2    1    2  501    0  0.10919306536E+03  0.31310188364E+02 -0.51881366066E+02  0.21434899771E+03  0.17421355646E+03 0.  0.
         24    2    5    5    0    0  0.28378875341E+02 -0.89998283516E+01  0.21731022481E+02  0.97744089990E+02  0.90527964265E+02 0.  0.
          5    1    5    5  501    0  0.80814190023E+02  0.40310016715E+02 -0.73612388546E+02  0.11660490772E+03  0.47000000000E+01 0. -1.
        -11    1    6    6    0    0 -0.24059962098E+02 -0.98452966549E+01 -0.18278905430E+02  0.31779396252E+02  0.00000000000E+00 0.  1.
         12    1    6    6    0    0  0.52438837439E+02  0.84546830327E+00  0.40009927911E+02  0.65964693739E+02  0.00000000000E+00 0. -1.
         -5    1    3    3    0  503  0.11291442809E+02 -0.59315226109E+02 -0.23621708774E+02  0.65006675461E+02  0.47000000000E+01 0.  1.
         13    1    4    4    0    0 -0.17666777421E+02  0.46435743367E+01 -0.47457140251E+02  0.50851332017E+02  0.00000000000E+00 0. -1.
        -14    1    4    4    0    0 -0.10281773075E+03  0.23361463409E+02 -0.71072961424E+01  0.10567761063E+03  0.00000000000E+00 0.  1.
<mgrwt>
<rscale>  2 0.20780140E+03</rscale>
<asrwt>0</asrwt>
<pdfrwt beam="1">  1       21 0.23524393E-01 0.20797552E+03</pdfrwt>
<pdfrwt beam="2">  1       21 0.43534779E-01 0.20797552E+03</pdfrwt>
<totfact> 0.85687800E+04</totfact>
</mgrwt>
</event>
<event>
12    1  0.1019868E-001  0.1884819E+03  0.7546771E-02  0.1159895E+00
         21   -1    0    0  501  502  0.00000000000E+00  0.00000000000E+00  0.44118698025E+03  0.44118698025E+03  0.00000000000E+00 0.  1.
         21   -1    0    0  502  503 -0.00000000000E+00 -0.00000000000E+00 -0.13239159761E+03  0.13239159761E+03  0.00000000000E+00 0.  1.
         -6    2    1    2    0  503  0.61736145456E+02  0.39903673774E+02 -0.25360799635E+02  0.18993058096E+03  0.17328243012E+03 0.  0.
        -24    2    3    3    0    0  0.87096810387E+02 -0.16506454404E+02  0.60546395382E+01  0.12040155317E+03  0.81249971876E+02 0.  0.
          6    2    1    2  501    0 -0.61736145456E+02 -0.39903673774E+02  0.33415618227E+03  0.38364799690E+03  0.17355626333E+03 0.  0.
         24    2    5    5    0    0 -0.69269466149E+02 -0.68254625719E+02  0.14152305442E+03  0.18873740370E+03  0.78333133155E+02 0.  0.
          5    1    5    5  501    0  0.75333206930E+01  0.28350951945E+02  0.19263312785E+03  0.19491059320E+03  0.47000000000E+01 0. -1.
        -13    1    6    6    0    0 -0.18754252645E+02 -0.26985275116E+02  0.11275354200E+03  0.11744483088E+03  0.00000000000E+00 0.  1.
         14    1    6    6    0    0 -0.50515213504E+02 -0.41269350604E+02  0.28769512412E+02  0.71292572818E+02  0.00000000000E+00 0. -1.
         -5    1    3    3    0  503 -0.25360664931E+02  0.56410128178E+02 -0.31415439173E+02  0.69529027789E+02  0.47000000000E+01 0.  1.
         11    1    4    4    0    0  0.36724035003E+02  0.64508231124E+00  0.42297219197E+02  0.56018975623E+02  0.00000000000E+00 0. -1.
        -12    1    4    4    0    0  0.50372775384E+02 -0.17151536715E+02 -0.36242579659E+02  0.64382577549E+02  0.00000000000E+00 0.  1.
<mgrwt>
<rscale>  2 0.18841885E+03</rscale>
<asrwt>0</asrwt>
<pdfrwt beam="1">  1       21 0.67874919E-01 0.18848191E+03</pdfrwt>
<pdfrwt beam="2">  1       21 0.20367938E-01 0.18848191E+03</pdfrwt>
<totfact> 0.44328125E+04</totfact>
</mgrwt>
</event>
<event>
12    1  0.1019868E-001  0.1917652E+03  0.7546771E-02  0.1158305E+00
         21   -1    0    0  501  502  0.00000000000E+00  0.00000000000E+00  0.45062449572E+02  0.45062449572E+02  0.00000000000E+00 0. -1.
         21   -1    0    0  502  503 -0.00000000000E+00 -0.00000000000E+00 -0.80900411666E+03  0.80900411666E+03  0.00000000000E+00 0. -1.
         -6    2    1    2    0  503 -0.24624926675E+02  0.62280041041E+02 -0.45444291730E+03  0.49324664258E+03  0.17969055291E+03 0.  0.
        -24    2    3    3    0    0 -0.55639979149E+02 -0.29881726740E+01 -0.36778845689E+03  0.38031764404E+03  0.79173384996E+02 0.  0.
          6    2    1    2  501    0  0.24624926675E+02 -0.62280041041E+02 -0.30949874978E+03  0.36081992365E+03  0.17296343735E+03 0.  0.
         24    2    5    5    0    0 -0.35535349477E+02 -0.60927387981E+01 -0.90503741179E+02  0.12681741180E+03  0.81190185610E+02 0.  0.
          5    1    5    5  501    0  0.60160276151E+02 -0.56187302243E+02 -0.21899500861E+03  0.23400251185E+03  0.47000000000E+01 0. -1.
        -13    1    6    6    0    0  0.74346629803E+01  0.17616801328E+02 -0.71790928386E+02  0.74293763542E+02  0.00000000000E+00 0.  1.
         14    1    6    6    0    0 -0.42970012457E+02 -0.23709540126E+02 -0.18712812792E+02  0.52523648256E+02  0.00000000000E+00 0. -1.
         -5    1    3    3    0  503  0.31015052474E+02  0.65268213715E+02 -0.86654460414E+02  0.11292899854E+03  0.47000000000E+01 0.  1.
         13    1    4    4    0    0 -0.37386923807E+02  0.30204213731E+02 -0.28812947805E+03  0.29211071997E+03  0.00000000000E+00 0. -1.
        -14    1    4    4    0    0 -0.18253055342E+02 -0.33192386405E+02 -0.79658978838E+02  0.88206924071E+02  0.00000000000E+00 0.  1.
<mgrwt>
<rscale>  2 0.19017331E+03</rscale>
<asrwt>0</asrwt>
<pdfrwt beam="1">  1       21 0.69326850E-02 0.19176518E+03</pdfrwt>
<pdfrwt beam="2">  1       21 0.12446216E+00 0.19176518E+03</pdfrwt>
<totfact> 0.74201276E+04</totfact>
</mgrwt>
</event>
<event>
12    1  0.1019868E-001  0.1950117E+03  0.7546771E-02  0.1154199E+00
         21   -1    0    0  501  502  0.00000000000E+00  0.00000000000E+00  0.82658111858E+02  0.82658111858E+02  0.00000000000E+00 0.  1.
         21   -1    0    0  502  503 -0.00000000000E+00 -0.00000000000E+00 -0.54438385459E+03  0.54438385459E+03  0.00000000000E+00 0. -1.
         -6    2    1    2    0  503 -0.86650855360E+01 -0.87105516549E+02 -0.10647749344E+03  0.22218692108E+03  0.17426163252E+03 0.  0.
        -24    2    3    3    0    0 -0.41508561656E+02 -0.11141819832E+03 -0.84807466883E+02  0.17569519634E+03  0.97670466220E+02 0.  0.
          6    2    1    2  501    0  0.86650855360E+01  0.87105516549E+02 -0.35524824930E+03  0.40485504537E+03  0.17333157362E+03 0.  0.
         24    2    5    5    0    0 -0.24064639411E+02 -0.16643413105E+01 -0.97687051333E+02  0.13042621442E+03  0.82984097923E+02 0.  0.
          5    1    5    5  501    0  0.32729724947E+02  0.88769857859E+02 -0.25756119796E+03  0.27442883095E+03  0.47000000000E+01 0. -1.
        -11    1    6    6    0    0  0.12718198757E+02 -0.17851192062E+01  0.10225818961E+02  0.16416656286E+02  0.00000000000E+00 0.  1.
         12    1    6    6    0    0 -0.36782838167E+02  0.12077789569E+00 -0.10791287029E+03  0.11400955813E+03  0.00000000000E+00 0. -1.
         -5    1    3    3    0  503  0.32843476120E+02  0.24312681767E+02 -0.21670026554E+02  0.46491724739E+02  0.47000000000E+01 0.  1.
         11    1    4    4    0    0  0.30405436328E+01 -0.42814913721E+02 -0.83499824396E+02  0.93886007566E+02  0.00000000000E+00 0. -1.
        -12    1    4    4    0    0 -0.44549105289E+02 -0.68603284595E+02 -0.13076424874E+01  0.81809188775E+02  0.00000000000E+00 0.  1.
<mgrwt>
<rscale>  2 0.19480373E+03</rscale>
<asrwt>0</asrwt>
<pdfrwt beam="1">  1       21 0.12716632E-01 0.19501172E+03</pdfrwt>
<pdfrwt beam="2">  1       21 0.83751363E-01 0.19501172E+03</pdfrwt>
<totfact> 0.65479982E+04</totfact>
</mgrwt>
</event>
<event>
12    1  0.1019868E-001  0.1986583E+03  0.7546771E-02  0.1150888E+00
         21   -1    0    0  501  502  0.00000000000E+00  0.00000000000E+00  0.35146854411E+02  0.35146854411E+02  0.00000000000E+00 0.  1.
         21   -1    0    0  502  503 -0.00000000000E+00 -0.00000000000E+00 -0.12892341351E+04  0.12892341351E+04  0.00000000000E+00 0. -1.
         -6    2    1    2    0  503  0.93555325616E+02 -0.31010171619E+02 -0.86523250529E+03  0.88774569541E+03  0.17248449734E+03 0.  0.
        -24    2    3    3    0    0  0.11443675022E+03 -0.29913574165E+02 -0.44877654563E+03  0.47073862982E+03  0.78764700070E+02 0.  0.
          6    2    1    2  501    0 -0.93555325616E+02  0.31010171619E+02 -0.38885477541E+03  0.43663529411E+03  0.17241842711E+03 0.  0.
         24    2    5    5    0    0 -0.70652053830E+02 -0.39900875625E+02 -0.29577414265E+03  0.31730788453E+03  0.81352059244E+02 0.  0.
          5    1    5    5  501    0 -0.22903271785E+02  0.70911047244E+02 -0.93080632765E+02  0.11932740957E+03  0.47000000000E+01 0. -1.
        -13    1    6    6    0    0  0.66189096503E+01  0.90281675426E+01 -0.45917010057E+01  0.12099648436E+02  0.00000000000E+00 0.  1.
         14    1    6    6    0    0 -0.77270963481E+02 -0.48929043168E+02 -0.29118244164E+03  0.30520823610E+03  0.00000000000E+00 0. -1.
         -5    1    3    3    0  503 -0.20881424603E+02 -0.10965974541E+01 -0.41645595966E+03  0.41700706560E+03  0.47000000000E+01 0.  1.
         11    1    4    4    0    0 -0.59910790727E+01 -0.77166232300E+01 -0.11136697295E+03  0.11179464194E+03  0.00000000000E+00 0. -1.
        -12    1    4    4    0    0  0.12042782929E+03 -0.22196950935E+02 -0.33740957268E+03  0.35894398787E+03  0.00000000000E+00 0.  1.
<mgrwt>
<rscale>  2 0.19864399E+03</rscale>
<asrwt>0</asrwt>
<pdfrwt beam="1">  1       21 0.54072092E-02 0.19865833E+03</pdfrwt>
<pdfrwt beam="2">  1       21 0.19834368E+00 0.19865833E+03</pdfrwt>
<totfact> 0.32267831E+04</totfact>
</mgrwt>
</event>
<event>
12    1  0.1019868E-001  0.3183852E+03  0.7546771E-02  0.1076402E+00
         21   -1    0    0  503  502  0.00000000000E+00  0.00000000000E+00  0.28010643523E+03  0.28010643523E+03  0.00000000000E+00 0.  1.
         21   -1    0    0  501  503 -0.00000000000E+00 -0.00000000000E+00 -0.39761103182E+03  0.39761103182E+03  0.00000000000E+00 0. -1.
          6    2    1    2  501    0 -0.24955854456E+03  0.95351238930E+02  0.42905994193E+02  0.32120564749E+03  0.17309193428E+03 0.  0.
         24    2    3    3    0    0 -0.18794453023E+03  0.10347917626E+03 -0.23165265555E+02  0.23037695438E+03  0.80658695859E+02 0.  0.
         -6    2    1    2    0  502  0.24955854456E+03 -0.95351238930E+02 -0.16041059079E+03  0.35651181957E+03  0.17319871225E+03 0.  0.
        -24    2    5    5    0    0  0.17759474205E+03 -0.13251391370E+03 -0.14497272046E+03  0.27392688688E+03  0.70135725164E+02 0.  0.
          5    1    3    3  501    0 -0.61614014329E+02 -0.81279373346E+01  0.66071259748E+02  0.90828693108E+02  0.47000000000E+01 0. -1.
        -11    1    4    4    0    0 -0.43503231705E+01 -0.11176487344E+02  0.29541741359E+01  0.12351774199E+02  0.00000000000E+00 0.  1.
         12    1    4    4    0    0 -0.18359420706E+03  0.11465566361E+03 -0.26119439691E+02  0.21802518018E+03  0.00000000000E+00 0. -1.
         -5    1    5    5    0  502  0.71963802505E+02  0.37162674774E+02 -0.15437870323E+02  0.82584932691E+02  0.47000000000E+01 0.  1.
         13    1    6    6    0    0  0.12413239172E+02 -0.21644129003E+02 -0.44588788818E+02  0.51095175068E+02  0.00000000000E+00 0. -1.
        -14    1    6    6    0    0  0.16518150288E+03 -0.11086978470E+03 -0.10038393165E+03  0.22283171181E+03  0.00000000000E+00 0.  1.
<mgrwt>
<rscale>  2 0.31837066E+03</rscale>
<asrwt>0</asrwt>
<pdfrwt beam="1">  1       21 0.43093298E-01 0.31838518E+03</pdfrwt>
<pdfrwt beam="2">  1       21 0.61170928E-01 0.31838518E+03</pdfrwt>
<totfact> 0.12047722E+04</totfact>
</mgrwt>
</event>
<event>
12    1  0.1019868E-001  0.3234745E+03  0.7546771E-02  0.1074061E+00
         21   -1    0    0  503  502  0.00000000000E+00  0.00000000000E+00  0.42354949968E+03  0.42354949968E+03  0.00000000000E+00 0.  1.
         21   -1    0    0  501  503 -0.00000000000E+00 -0.00000000000E+00 -0.24924942036E+03  0.24924942036E+03  0.00000000000E+00 0.  1.
          6    2    1    2  501    0 -0.27219903553E+03 -0.27211462429E+02  0.55507539108E+02  0.32820241758E+03  0.17263534220E+03 0.  0.
         24    2    3    3    0    0 -0.20214664840E+03  0.59471177667E+01  0.99408065773E+02  0.23900502623E+03  0.79641718660E+02 0.  0.
         -6    2    1    2    0  502  0.27219903553E+03  0.27211462429E+02  0.11879254022E+03  0.34459650246E+03  0.17263343611E+03 0.  0.
        -24    2    5    5    0    0  0.11424723643E+03 -0.48186856134E+02  0.31809580642E+02  0.14909253181E+03  0.76435132535E+02 0.  0.
          5    1    3    3  501    0 -0.70052387128E+02 -0.33158580195E+02 -0.43900526665E+02  0.89197391354E+02  0.47000000000E+01 0. -1.
        -13    1    4    4    0    0 -0.96813456369E+02  0.25699628104E+02  0.12337410618E+02  0.10092337648E+03  0.00000000000E+00 0.  1.
         14    1    4    4    0    0 -0.10533319203E+03 -0.19752510337E+02  0.87070655155E+02  0.13808164975E+03  0.00000000000E+00 0. -1.
         -5    1    5    5    0  502  0.15795179910E+03  0.75398318563E+02  0.86982959577E+02  0.19550397065E+03  0.47000000000E+01 0.  1.
         13    1    6    6    0    0 -0.77606272471E+01  0.77600452569E+01  0.56490582474E+01  0.12343317898E+02  0.00000000000E+00 0. -1.
        -14    1    6    6    0    0  0.12200786367E+03 -0.55946901391E+02  0.26160522394E+02  0.13674921391E+03  0.00000000000E+00 0.  1.
<mgrwt>
<rscale>  2 0.32347423E+03</rscale>
<asrwt>0</asrwt>
<pdfrwt beam="1">  1       21 0.65161461E-01 0.32347448E+03</pdfrwt>
<pdfrwt beam="2">  1       21 0.38346065E-01 0.32347448E+03</pdfrwt>
<totfact> 0.13295184E+04</totfact>
</mgrwt>
</event>
<event>
12    1  0.1019868E-001  0.1990836E+03  0.7546771E-02  0.1151619E+00
         21   -1    0    0  501  502  0.00000000000E+00  0.00000000000E+00  0.82346552356E+02  0.82346552356E+02  0.00000000000E+00 0.  1.
         21   -1    0    0  502  503 -0.00000000000E+00 -0.00000000000E+00 -0.10228523078E+04  0.10228523078E+04  0.00000000000E+00 0.  1.
         -6    2    1    2    0  503 -0.91655533535E+02 -0.29327739636E+02 -0.87405955108E+03  0.89531944203E+03  0.16839225428E+03 0.  0.
        -24    2    3    3    0    0 -0.11506562577E+03 -0.15044832116E+02 -0.48098896883E+03  0.50126537658E+03  0.80312791107E+02 0.  0.
          6    2    1    2  501    0  0.91655533535E+02  0.29327739636E+02 -0.66446204355E+02  0.20987941812E+03  0.17427971465E+03 0.  0.
         24    2    5    5    0    0  0.65500364473E+01  0.45622708441E+02  0.11034312669E+02  0.93544590311E+02  0.80650479338E+02 0.  0.
          5    1    5    5  501    0  0.85105497088E+02 -0.16294968806E+02 -0.77480517024E+02  0.11633482781E+03  0.47000000000E+01 0. -1.
        -11    1    6    6    0    0  0.30289889920E+02 -0.78580910966E+01 -0.74765181494E+01  0.32173363994E+02  0.00000000000E+00 0.  1.
         12    1    6    6    0    0 -0.23739853473E+02  0.53480799538E+02  0.18510830818E+02  0.61371226317E+02  0.00000000000E+00 0. -1.
         -5    1    3    3    0  503  0.23410092234E+02 -0.14282907520E+02 -0.39307058225E+03  0.39405406545E+03  0.47000000000E+01 0.  1.
         11    1    4    4    0    0 -0.17545646741E+02 -0.71600088013E+01 -0.12575835497E+02  0.22743506415E+02  0.00000000000E+00 0. -1.
        -12    1    4    4    0    0 -0.97519979028E+02 -0.78848233143E+01 -0.46841313333E+03  0.47852187017E+03  0.00000000000E+00 0.  1.
<mgrwt>
<rscale>  2 0.19778772E+03</rscale>
<asrwt>0</asrwt>
<pdfrwt beam="1">  1       21 0.12668700E-01 0.19908358E+03</pdfrwt>
<pdfrwt beam="2">  1       21 0.15736189E+00 0.19908358E+03</pdfrwt>
<totfact> 0.13949208E+04</totfact>
</mgrwt>
</event>
<event>
12    1  0.1019868E-001  0.2461734E+03  0.7546771E-02  0.1116483E+00
         21   -1    0    0  503  502  0.00000000000E+00  0.00000000000E+00  0.15143153735E+03  0.15143153735E+03  0.00000000000E+00 0.  1.
         21   -1    0    0  501  503 -0.00000000000E+00 -0.00000000000E+00 -0.60184377059E+03  0.60184377059E+03  0.00000000000E+00 0. -1.
          6    2    1    2  501    0 -0.36185478409E+02  0.16517762985E+03 -0.44577072704E+03  0.50705813181E+03  0.17263652480E+03 0.  0.
         24    2    3    3    0    0  0.34317616131E+02  0.10452965176E+03 -0.33934743269E+03  0.36564783810E+03  0.80234123403E+02 0.  0.
         -6    2    1    2    0  502  0.36185478409E+02 -0.16517762985E+03 -0.46415062001E+01  0.24621717613E+03  0.17890868059E+03 0.  0.
        -24    2    5    5    0    0 -0.57282680551E+01 -0.18216636967E+03 -0.14675744195E+02  0.19965372098E+03  0.80179994622E+02 0.  0.
          5    1    3    3  501    0 -0.70503094540E+02  0.60647978092E+02 -0.10642329435E+03  0.14141029371E+03  0.47000000000E+01 0. -1.
        -11    1    4    4    0    0  0.11829305760E+01 -0.11395321240E+01  0.42969994259E+01  0.46002241549E+01  0.00000000000E+00 0.  1.
         12    1    4    4    0    0  0.33134685555E+02  0.10566918388E+03 -0.34364443212E+03  0.36104761394E+03  0.00000000000E+00 0. -1.
         -5    1    5    5    0  502  0.41913746464E+02  0.16988739825E+02  0.10034237995E+02  0.46563455151E+02  0.47000000000E+01 0.  1.
         11    1    6    6    0    0 -0.11273593083E+02 -0.48089743270E+01 -0.18472842597E+02  0.22169033553E+02  0.00000000000E+00 0. -1.
        -12    1    6    6    0    0  0.55453250277E+01 -0.17735739535E+03  0.37970984021E+01  0.17748468742E+03  0.00000000000E+00 0.  1.
<mgrwt>
<rscale>  2 0.24503557E+03</rscale>
<asrwt>0</asrwt>
<pdfrwt beam="1">  1       21 0.23297160E-01 0.24617342E+03</pdfrwt>
<pdfrwt beam="2">  1       21 0.92591348E-01 0.24617342E+03</pdfrwt>
<totfact> 0.16512991E+04</totfact>
</mgrwt>
</event>
<event>
12    1  0.1019868E-001  0.3215590E+03  0.7546771E-02  0.1075016E+00
         21   -1    0    0  503  502  0.00000000000E+00  0.00000000000E+00  0.68519068363E+02  0.68519068363E+02  0.00000000000E+00 0.  1.
         21   -1    0    0  501  503 -0.00000000000E+00 -0.00000000000E+00 -0.17429111710E+04  0.17429111710E+04  0.00000000000E+00 0. -1.
          6    2    1    2  501    0  0.26731117540E+03  0.23648279667E+02 -0.11705058074E+04  0.12136831244E+04  0.17586465162E+03 0.  0.
         24    2    3    3    0    0  0.73412548290E+02  0.50275746924E+02 -0.32873835718E+03  0.34944922675E+03  0.78286663106E+02 0.  0.
         -6    2    1    2    0  502 -0.26731117540E+03 -0.23648279667E+02 -0.50388629520E+03  0.59774711492E+03  0.17716012328E+03 0.  0.
        -24    2    5    5    0    0 -0.15246391699E+03 -0.83858496943E+02 -0.28840164225E+03  0.34621006261E+03  0.80052524675E+02 0.  0.
          5    1    3    3  501    0  0.19389862711E+03 -0.26627467256E+02 -0.84176745025E+03  0.86423389768E+03  0.47000000000E+01 0. -1.
        -11    1    4    4    0    0  0.80448588310E+02  0.52682260581E+02 -0.21568125580E+03  0.23614783515E+03  0.00000000000E+00 0.  1.
         12    1    4    4    0    0 -0.70360400193E+01 -0.24065136570E+01 -0.11305710138E+03  0.11330139160E+03  0.00000000000E+00 0. -1.
         -5    1    5    5    0  502 -0.11484725841E+03  0.60210217275E+02 -0.21548465295E+03  0.25153705231E+03  0.47000000000E+01 0.  1.
         11    1    6    6    0    0 -0.37453990455E+02 -0.63658722072E+02 -0.95660329514E+02  0.12085583536E+03  0.00000000000E+00 0. -1.
        -12    1    6    6    0    0 -0.11500992653E+03 -0.20199774871E+02 -0.19274131274E+03  0.22535422726E+03  0.00000000000E+00 0.  1.
<mgrwt>
<rscale>  2 0.32138091E+03</rscale>
<asrwt>0</asrwt>
<pdfrwt beam="1">  1       21 0.10541394E-01 0.32155904E+03</pdfrwt>
<pdfrwt beam="2">  1       21 0.26814020E+00 0.32155904E+03</pdfrwt>
<totfact> 0.34475107E+03</totfact>
</mgrwt>
</event>
<event>
12    1  0.1019868E-001  0.1990035E+03  0.7546771E-02  0.1153486E+00
         21   -1    0    0  501  502  0.00000000000E+00  0.00000000000E+00  0.24191708745E+02  0.24191708745E+02  0.00000000000E+00 0.  1.
         21   -1    0    0  502  503 -0.00000000000E+00 -0.00000000000E+00 -0.18289273320E+04  0.18289273320E+04  0.00000000000E+00 0.  1.
         -6    2    1    2    0  503  0.49227824216E+02  0.46611466535E+02 -0.55405552380E+03  0.58871038442E+03  0.18709993527E+03 0.  0.
        -24    2    3    3    0    0  0.12741490635E+02  0.10608966155E+02 -0.52301136748E+03  0.52859996757E+03  0.74847441205E+02 0.  0.
          6    2    1    2  501    0 -0.49227824216E+02 -0.46611466535E+02 -0.12506800994E+04  0.12644086563E+04  0.17301020645E+03 0.  0.
         24    2    5    5    0    0 -0.31783174240E+01 -0.47731645901E+02 -0.34059498558E+03  0.35314644578E+03  0.80119012991E+02 0.  0.
          5    1    5    5  501    0 -0.46049506793E+02  0.11201793665E+01 -0.91008511387E+03  0.91126221054E+03  0.47000000000E+01 0. -1.
        -11    1    6    6    0    0 -0.33494622378E+02 -0.14109795057E+00 -0.84237472532E+02  0.90652420903E+02  0.00000000000E+00 0.  1.
         12    1    6    6    0    0  0.30316304954E+02 -0.47590547951E+02 -0.25635751305E+03  0.26249402488E+03  0.00000000000E+00 0. -1.
         -5    1    3    3    0  503  0.36486333582E+02  0.36002500380E+02 -0.31044156318E+02  0.60110416845E+02  0.47000000000E+01 0.  1.
         11    1    4    4    0    0 -0.18787868959E+02 -0.27073210169E+01 -0.38940332044E+02  0.43320469374E+02  0.00000000000E+00 0. -1.
        -12    1    4    4    0    0  0.31529359594E+02  0.13316287172E+02 -0.48407103544E+03  0.48527949820E+03  0.00000000000E+00 0.  1.
<mgrwt>
<rscale>  2 0.19562205E+03</rscale>
<asrwt>0</asrwt>
<pdfrwt beam="1">  1       21 0.37218007E-02 0.19900350E+03</pdfrwt>
<pdfrwt beam="2">  1       21 0.28137348E+00 0.19900350E+03</pdfrwt>
<totfact> 0.19202611E+04</totfact>
</mgrwt>
</event>
<event>
12    1  0.1019868E-001  0.2120443E+03  0.7546771E-02  0.1140217E+00
         21   -1    0    0  501  502  0.00000000000E+00  0.00000000000E+00  0.64169395372E+03  0.64169395372E+03  0.00000000000E+00 0. -1.
         21   -1    0    0  502  503 -0.00000000000E+00 -0.00000000000E+00 -0.74448059786E+02  0.74448059786E+02  0.00000000000E+00 0.  1.
         -6    2    1    2    0  503  0.11548866136E+03 -0.40355528798E+02  0.19171442600E+03  0.28488031665E+03  0.17156973530E+03 0.  0.
        -24    2    3    3    0    0  0.35678433129E+02 -0.13021096355E+02  0.19524860769E+02  0.93077865932E+02  0.82702898363E+02 0.  0.
          6    2    1    2  501    0 -0.11548866136E+03  0.40355528798E+02  0.37553146793E+03  0.43126169685E+03  0.17319517359E+03 0.  0.
         24    2    5    5    0    0 -0.12758329426E+03  0.78580521510E+02  0.32376080278E+03  0.36561322404E+03  0.79997355194E+02 0.  0.
          5    1    5    5  501    0  0.12094632896E+02 -0.38224992712E+02  0.51770665151E+02  0.65648472815E+02  0.47000000000E+01 0. -1.
        -11    1    6    6    0    0 -0.17465050165E+02  0.53302900383E+02  0.12445525421E+03  0.13651130893E+03  0.00000000000E+00 0.  1.
         12    1    6    6    0    0 -0.11011824410E+03  0.25277621127E+02  0.19930554858E+03  0.22910191511E+03  0.00000000000E+00 0. -1.
         -5    1    3    3    0  503  0.79810228235E+02 -0.27334432443E+02  0.17218956523E+03  0.19180245072E+03  0.47000000000E+01 0.  1.
         13    1    4    4    0    0 -0.12705657592E+02  0.16429971450E+02  0.28977313056E+02  0.35651961638E+02  0.00000000000E+00 0. -1.
        -14    1    4    4    0    0  0.48384090721E+02 -0.29451067805E+02 -0.94524522875E+01  0.57425904294E+02  0.00000000000E+00 0.  1.
<mgrwt>
<rscale>  2 0.21171209E+03</rscale>
<asrwt>0</asrwt>
<pdfrwt beam="1">  1       21 0.98722143E-01 0.21204426E+03</pdfrwt>
<pdfrwt beam="2">  1       21 0.11453548E-01 0.21204426E+03</pdfrwt>
<totfact> 0.53456390E+04</totfact>
</mgrwt>
</event>
<event>
12    1  0.1019868E-001  0.3058771E+03  0.7546771E-02  0.1082541E+00
         21   -1    0    0  501  502  0.00000000000E+00  0.00000000000E+00  0.19535222729E+03  0.19535222729E+03  0.00000000000E+00 0. -1.
         21   -1    0    0  502  503 -0.00000000000E+00 -0.00000000000E+00 -0.60042632910E+03  0.60042632910E+03  0.00000000000E+00 0.  1.
         -6    2    1    2    0  503  0.13873623329E+03  0.21036839732E+03 -0.22098242787E+02  0.30667429295E+03  0.17337296388E+03 0.  0.
        -24    2    3    3    0    0  0.13270974130E+03  0.89443754756E+02 -0.43240717714E+02  0.18367761808E+03  0.79092648290E+02 0.  0.
          6    2    1    2  501    0 -0.13873623329E+03 -0.21036839732E+03 -0.38297585902E+03  0.48910426343E+03  0.17044021501E+03 0.  0.
         24    2    5    5    0    0 -0.10393281212E+03 -0.21985660468E+03 -0.27910317860E+03  0.37904551574E+03  0.81473692961E+02 0.  0.
          5    1    5    5  501    0 -0.34803421174E+02  0.94882073599E+01 -0.10387268042E+03  0.11005874769E+03  0.47000000000E+01 0. -1.
        -11    1    6    6    0    0 -0.47417644190E+02 -0.10447163368E+03 -0.72393026847E+02  0.13565952071E+03  0.00000000000E+00 0.  1.
         12    1    6    6    0    0 -0.56515167930E+02 -0.11538497100E+03 -0.20671015176E+03  0.24338599503E+03  0.00000000000E+00 0. -1.
         -5    1    3    3    0  503  0.60264919914E+01  0.12092464256E+03  0.21142474927E+02  0.12299667487E+03  0.47000000000E+01 0.  1.
         11    1    4    4    0    0  0.80594018250E+02  0.70196746882E+01 -0.22639014516E+02  0.84007122249E+02  0.00000000000E+00 0. -1.
        -12    1    4    4    0    0  0.52115723053E+02  0.82424080068E+02 -0.20601703199E+02  0.99670495830E+02  0.00000000000E+00 0.  1.
<mgrwt>
<rscale>  2 0.30546307E+03</rscale>
<asrwt>0</asrwt>
<pdfrwt beam="1">  1       21 0.30054189E-01 0.30587708E+03</pdfrwt>
<pdfrwt beam="2">  1       21 0.92373281E-01 0.30587708E+03</pdfrwt>
<totfact> 0.98489387E+03</totfact>
</mgrwt>
</event>
<event>
12    1  0.1019868E-001  0.1946468E+03  0.7546771E-02  0.1154604E+00
         21   -1    0    0  503  502  0.00000000000E+00  0.00000000000E+00  0.44281713706E+02  0.44281713706E+02  0.00000000000E+00 0.  1.
         21   -1    0    0  501  503 -0.00000000000E+00 -0.00000000000E+00 -0.87222108407E+03  0.87222108407E+03  0.00000000000E+00 0. -1.
          6    2    1    2  501    0 -0.11513858064E+00 -0.87332095543E+02 -0.48545583373E+03  0.52257088075E+03  0.17258635732E+03 0.  0.
         24    2    3    3    0    0  0.14610738825E+02 -0.38589709426E+02 -0.10017533249E+03  0.13391187042E+03  0.78706114361E+02 0.  0.
         -6    2    1    2    0  502  0.11513858064E+00  0.87332095543E+02 -0.34248353664E+03  0.39393191703E+03  0.17395537997E+03 0.  0.
        -24    2    5    5    0    0  0.57812057413E+02  0.31357912226E+02 -0.12609772569E+03  0.16304893191E+03  0.79741865609E+02 0.  0.
          5    1    3    3  501    0 -0.14725877406E+02 -0.48742386117E+02 -0.38528050124E+03  0.38865901033E+03  0.47000000000E+01 0. -1.
        -13    1    4    4    0    0  0.12916167817E+02  0.20783961810E+02 -0.51866262850E+02  0.57349016396E+02  0.00000000000E+00 0.  1.
         14    1    4    4    0    0  0.16945710075E+01 -0.59373671237E+02 -0.48309069638E+02  0.76562854024E+02  0.00000000000E+00 0. -1.
         -5    1    5    5    0  502 -0.57696918832E+02  0.55974183317E+02 -0.21638581095E+03  0.23088298512E+03  0.47000000000E+01 0.  1.
         11    1    6    6    0    0  0.64520473785E+02 -0.17908626085E+01 -0.10479730575E+03  0.12307954346E+03  0.00000000000E+00 0. -1.
        -12    1    6    6    0    0 -0.67084163724E+01  0.33148774835E+02 -0.21300419944E+02  0.39969388450E+02  0.00000000000E+00 0.  1.
<mgrwt>
<rscale>  2 0.19434046E+03</rscale>
<asrwt>0</asrwt>
<pdfrwt beam="1">  1       21 0.68125719E-02 0.19464681E+03</pdfrwt>
<pdfrwt beam="2">  1       21 0.13418785E+00 0.19464681E+03</pdfrwt>
<totfact> 0.63171668E+04</totfact>
</mgrwt>
</event>
<event>
12    1  0.1019868E-001  0.1784898E+03  0.7546771E-02  0.1170242E+00
         21   -1    0    0  501  502  0.00000000000E+00  0.00000000000E+00  0.35220936189E+03  0.35220936189E+03  0.00000000000E+00 0.  1.
         21   -1    0    0  502  503 -0.00000000000E+00 -0.00000000000E+00 -0.19581751433E+03  0.19581751433E+03  0.00000000000E+00 0.  1.
         -6    2    1    2    0  503 -0.21469341574E+02 -0.13523498207E+02 -0.12506133903E+03  0.21474845724E+03  0.17272157866E+03 0.  0.
        -24    2    3    3    0    0  0.50436010422E+02 -0.53167464311E+02 -0.62025676902E+02  0.11112602533E+03  0.55957470482E+02 0.  0.
          6    2    1    2  501    0  0.21469341574E+02  0.13523498207E+02  0.28145318659E+03  0.33327841897E+03  0.17667708023E+03 0.  0.
         24    2    5    5    0    0 -0.56375788394E+02 -0.27693749543E+01  0.17566763801E+03  0.20084732646E+03  0.79338707741E+02 0.  0.
          5    1    5    5  501    0  0.77845129968E+02  0.16292873161E+02  0.10578554858E+03  0.13243109251E+03  0.47000000000E+01 0. -1.
        -11    1    6    6    0    0 -0.49420193048E+01  0.65468362457E+01  0.13332823953E+03  0.13358032818E+03  0.00000000000E+00 0.  1.
         12    1    6    6    0    0 -0.51433769089E+02 -0.93162112000E+01  0.42339398478E+02  0.67266998278E+02  0.00000000000E+00 0. -1.
         -5    1    3    3    0  503 -0.71905351996E+02  0.39643966104E+02 -0.63035662131E+02  0.10362243191E+03  0.47000000000E+01 0.  1.
         13    1    4    4    0    0  0.31449402681E+02 -0.35658479006E+02 -0.41227485852E+01  0.47724093600E+02  0.00000000000E+00 0. -1.
        -14    1    4    4    0    0  0.18986607741E+02 -0.17508985304E+02 -0.57902928317E+02  0.63401931734E+02  0.00000000000E+00 0.  1.
<mgrwt>
<rscale>  2 0.17750304E+03</rscale>
<asrwt>0</asrwt>
<pdfrwt beam="1">  1       21 0.54186056E-01 0.17848980E+03</pdfrwt>
<pdfrwt beam="2">  1       21 0.30125771E-01 0.17848980E+03</pdfrwt>
<totfact> 0.34277721E+04</totfact>
</mgrwt>
</event>
<event>
12    1  0.1019868E-001  0.2333423E+03  0.7546771E-02  0.1124331E+00
         21   -1    0    0  501  502  0.00000000000E+00  0.00000000000E+00  0.14075383857E+03  0.14075383857E+03  0.00000000000E+00 0. -1.
         21   -1    0    0  502  503 -0.00000000000E+00 -0.00000000000E+00 -0.15905316813E+04  0.15905316813E+04  0.00000000000E+00 0.  1.
         -6    2    1    2    0  503  0.81057025263E+02  0.13346537777E+03 -0.14780579168E+04  0.14963635341E+04  0.17339369198E+03 0.  0.
        -24    2    3    3    0    0 -0.98869970738E+01  0.11196160186E+03 -0.78388928377E+03  0.79591695610E+03  0.79801245573E+02 0.  0.
          6    2    1    2  501    0 -0.81057025263E+02 -0.13346537777E+03  0.28280074071E+02  0.23492198575E+03  0.17322046181E+03 0.  0.
         24    2    5    5    0    0 -0.96611478541E+02 -0.40445373206E+02 -0.10702699855E+02  0.13276324197E+03  0.80882165124E+02 0.  0.
          5    1    5    5  501    0  0.15554453278E+02 -0.93020004567E+02  0.38982773927E+02  0.10215874377E+03  0.47000000000E+01 0. -1.
        -13    1    6    6    0    0 -0.43003978308E+02 -0.28078133456E+02 -0.44703346213E+02  0.68089007126E+02  0.00000000000E+00 0.  1.
         14    1    6    6    0    0 -0.53607500233E+02 -0.12367239750E+02  0.34000646358E+02  0.64674234847E+02  0.00000000000E+00 0. -1.
         -5    1    3    3    0  503  0.90944022337E+02  0.21503775909E+02 -0.69416863298E+03  0.70044657797E+03  0.47000000000E+01 0.  1.
         13    1    4    4    0    0  0.27575912880E+02  0.33291873366E+02 -0.15129230443E+03  0.15734719948E+03  0.00000000000E+00 0. -1.
        -14    1    4    4    0    0 -0.37462909954E+02  0.78669728499E+02 -0.63259697934E+03  0.63856975662E+03  0.00000000000E+00 0.  1.
<mgrwt>
<rscale>  2 0.23331010E+03</rscale>
<asrwt>0</asrwt>
<pdfrwt beam="1">  1       21 0.21654438E-01 0.23334228E+03</pdfrwt>
<pdfrwt beam="2">  1       21 0.24469716E+00 0.23334228E+03</pdfrwt>
<totfact> 0.13591978E+03</totfact>
</mgrwt>
</event>
<event>
12    1  0.1019868E-001  0.2045134E+03  0.7546771E-02  0.1146112E+00
         21   -1    0    0  503  502  0.00000000000E+00  0.00000000000E+00  0.26393305467E+03  0.26393305467E+03  0.00000000000E+00 0.  1.
         21   -1    0    0  501  503 -0.00000000000E+00 -0.00000000000E+00 -0.15815786459E+03  0.15815786459E+03  0.00000000000E+00 0. -1.
          6    2    1    2  501    0 -0.79727422087E+02  0.70146380963E+02  0.59560133061E+02  0.21242077026E+03  0.17406377450E+03 0.  0.
         24    2    3    3    0    0 -0.35963591523E+01 -0.23018018254E+02  0.30416045240E+02  0.88537712986E+02  0.79818718664E+02 0.  0.
         -6    2    1    2    0  502  0.79727422087E+02 -0.70146380963E+02  0.46215057019E+02  0.20967014899E+03  0.17478204510E+03 0.  0.
        -24    2    5    5    0    0  0.11857230376E+03 -0.72399887463E+02  0.54066437406E+02  0.16969844277E+03  0.81075562908E+02 0.  0.
          5    1    3    3  501    0 -0.76131062935E+02  0.93164399217E+02  0.29144087822E+02  0.12388305728E+03  0.47000000000E+01 0. -1.
        -13    1    4    4    0    0  0.92638404955E+01 -0.11719422274E+02  0.55886794669E+02  0.57848918897E+02  0.00000000000E+00 0.  1.
         14    1    4    4    0    0 -0.12860199648E+02 -0.11298595980E+02 -0.25470749430E+02  0.30688794089E+02  0.00000000000E+00 0. -1.
         -5    1    5    5    0  502 -0.38844881677E+02  0.22535064997E+01 -0.78513803873E+01  0.39971706219E+02  0.47000000000E+01 0.  1.
         11    1    6    6    0    0  0.83632211193E+02 -0.88141596762E+02  0.32724261672E+02  0.12583387911E+03  0.00000000000E+00 0. -1.
        -12    1    6    6    0    0  0.34940092571E+02  0.15741709299E+02  0.21342175734E+02  0.43864563666E+02  0.00000000000E+00 0.  1.
<mgrwt>
<rscale>  2 0.20435987E+03</rscale>
<asrwt>0</asrwt>
<pdfrwt beam="1">  1       21 0.40605085E-01 0.20451342E+03</pdfrwt>
<pdfrwt beam="2">  1       21 0.24331979E-01 0.20451342E+03</pdfrwt>
<totfact> 0.92743675E+04</totfact>
</mgrwt>
</event>
<event>
12    1  0.1019868E-001  0.1837337E+03  0.7546771E-02  0.1164590E+00
         21   -1    0    0  501  502  0.00000000000E+00  0.00000000000E+00  0.14498636432E+03  0.14498636432E+03  0.00000000000E+00 0.  1.
         21   -1    0    0  502  503 -0.00000000000E+00 -0.00000000000E+00 -0.38894334239E+03  0.38894334239E+03  0.00000000000E+00 0.  1.
         -6    2    1    2    0  503  0.86147313437E+01  0.57938872411E+02 -0.29183113476E+03  0.34406132192E+03  0.17257362338E+03 0.  0.
        -24    2    3    3    0    0 -0.38786995606E+02 -0.15408573859E+01 -0.80430682247E+02  0.11934593904E+03  0.79167880167E+02 0.  0.
          6    2    1    2  501    0 -0.86147313437E+01 -0.57938872411E+02  0.47874156688E+02  0.18986838479E+03  0.17414632391E+03 0.  0.
         24    2    5    5    0    0 -0.36729141965E+02 -0.97598896534E+02  0.49242012499E+02  0.14100839474E+03  0.81141956590E+02 0.  0.
          5    1    5    5  501    0  0.28114410621E+02  0.39660024123E+02 -0.13678558106E+01  0.48859990049E+02  0.47000000000E+01 0. -1.
        -11    1    6    6    0    0 -0.33766012884E+02 -0.55270290269E+01  0.32868543062E+02  0.47445050310E+02  0.00000000000E+00 0.  1.
         12    1    6    6    0    0 -0.29631290805E+01 -0.92071867507E+02  0.16373469437E+02  0.93563344434E+02  0.00000000000E+00 0. -1.
         -5    1    3    3    0  503  0.47401726949E+02  0.59479729797E+02 -0.21140045252E+03  0.22471538287E+03  0.47000000000E+01 0.  1.
         13    1    4    4    0    0  0.23453113782E+00 -0.31909544774E+02 -0.55380793878E+02  0.63916401519E+02  0.00000000000E+00 0. -1.
        -14    1    4    4    0    0 -0.39021526743E+02  0.30368687388E+02 -0.25049888369E+02  0.55429537526E+02  0.00000000000E+00 0.  1.
<mgrwt>
<rscale>  2 0.18336006E+03</rscale>
<asrwt>0</asrwt>
<pdfrwt beam="1">  1       21 0.22305595E-01 0.18373369E+03</pdfrwt>
<pdfrwt beam="2">  1       21 0.59837437E-01 0.18373369E+03</pdfrwt>
<totfact> 0.49225823E+04</totfact>
</mgrwt>
</event>
<event>
12    1  0.1019868E-001  0.2131805E+03  0.7546771E-02  0.1139229E+00
         21   -1    0    0  503  502  0.00000000000E+00  0.00000000000E+00  0.41823810195E+03  0.41823810195E+03  0.00000000000E+00 0.  1.
         21   -1    0    0  501  503 -0.00000000000E+00 -0.00000000000E+00 -0.18578443042E+03  0.18578443042E+03  0.00000000000E+00 0.  1.
          6    2    1    2  501    0 -0.47735318998E+02  0.11418027691E+03 -0.78748741723E+02  0.22726035755E+03  0.17358026810E+03 0.  0.
         24    2    3    3    0    0 -0.72497039263E+02  0.69731544625E+02 -0.10856101877E+03  0.16810214210E+03  0.79715283120E+02 0.  0.
         -6    2    1    2    0  502  0.47735318998E+02 -0.11418027691E+03  0.31120241326E+03  0.37676217482E+03  0.17258910175E+03 0.  0.
        -24    2    5    5    0    0 -0.15837001223E+02 -0.11090225493E+03  0.15127617606E+03  0.20456845638E+03  0.80085274210E+02 0.  0.
          5    1    3    3  501    0  0.24761720264E+02  0.44448732287E+02  0.29812277049E+02  0.59158215450E+02  0.47000000000E+01 0. -1.
        -11    1    4    4    0    0 -0.29106339422E+02  0.70229855234E+02 -0.37327241877E+02  0.84691998127E+02  0.00000000000E+00 0.  1.
         12    1    4    4    0    0 -0.43390699841E+02 -0.49831060888E+00 -0.71233776895E+02  0.83410143968E+02  0.00000000000E+00 0. -1.
         -5    1    5    5    0  502  0.63572320221E+02 -0.32780219775E+01  0.15992623720E+03  0.17219371844E+03  0.47000000000E+01 0.  1.
         13    1    6    6    0    0 -0.18718506844E+02 -0.13058376197E+02  0.80771528937E+02  0.83934162140E+02  0.00000000000E+00 0. -1.
        -14    1    6    6    0    0  0.28815056214E+01 -0.97843878738E+02  0.70504647125E+02  0.12063429424E+03  0.00000000000E+00 0.  1.
<mgrwt>
<rscale>  2 0.21297860E+03</rscale>
<asrwt>0</asrwt>
<pdfrwt beam="1">  1       21 0.64344323E-01 0.21318045E+03</pdfrwt>
<pdfrwt beam="2">  1       21 0.28582220E-01 0.21318045E+03</pdfrwt>
<totfact> 0.25785762E+04</totfact>
</mgrwt>
</event>
<event>
12    1  0.1019868E-001  0.1925954E+03  0.7546771E-02  0.1156234E+00
         21   -1    0    0  501  502  0.00000000000E+00  0.00000000000E+00  0.14243733660E+03  0.14243733660E+03  0.00000000000E+00 0.  1.
         21   -1    0    0  502  503 -0.00000000000E+00 -0.00000000000E+00 -0.26532379631E+03  0.26532379631E+03  0.00000000000E+00 0.  1.
         -6    2    1    2    0  503  0.81572421676E+01 -0.83645284206E+02 -0.32219138728E+02  0.19527179522E+03  0.17329145086E+03 0.  0.
        -24    2    3    3    0    0  0.39089791965E+02 -0.81301900103E+02 -0.75384911965E+02  0.14190806161E+03  0.79479570972E+02 0.  0.
          6    2    1    2  501    0 -0.81572421676E+01  0.83645284206E+02 -0.90667320980E+02  0.21248933769E+03  0.17282384490E+03 0.  0.
         24    2    5    5    0    0  0.29614676659E+02  0.10667356067E+03 -0.97538950980E+02  0.16747457713E+03  0.79231366307E+02 0.  0.
          5    1    5    5  501    0 -0.37771918827E+02 -0.23028276469E+02  0.68716299993E+01  0.45014760555E+02  0.47000000000E+01 0. -1.
        -11    1    6    6    0    0  0.53841205117E+02  0.86452661664E+02 -0.59141537285E+02  0.11777376410E+03  0.00000000000E+00 0.  1.
         12    1    6    6    0    0 -0.24226528458E+02  0.20220899011E+02 -0.38397413694E+02  0.49700813035E+02  0.00000000000E+00 0. -1.
         -5    1    3    3    0  503 -0.30932549798E+02 -0.23433841032E+01  0.43165773237E+02  0.53363733614E+02  0.47000000000E+01 0.  1.
         11    1    4    4    0    0  0.42067703521E+02 -0.36633833148E+01 -0.31438913588E+02  0.52645202483E+02  0.00000000000E+00 0. -1.
        -12    1    4    4    0    0 -0.29779115563E+01 -0.77638516788E+02 -0.43945998378E+02  0.89262859128E+02  0.00000000000E+00 0.  1.
<mgrwt>
<rscale>  2 0.19249019E+03</rscale>
<asrwt>0</asrwt>
<pdfrwt beam="1">  1       21 0.21913436E-01 0.19259543E+03</pdfrwt>
<pdfrwt beam="2">  1       21 0.40819046E-01 0.19259543E+03</pdfrwt>
<totfact> 0.11244226E+05</totfact>
</mgrwt>
</event>
<event>
12    1  0.1019868E-001  0.1828528E+03  0.7546771E-02  0.1165531E+00
         21   -1    0    0  501  502  0.00000000000E+00  0.00000000000E+00  0.21739348591E+03  0.21739348591E+03  0.00000000000E+00 0. -1.
         21   -1    0    0  502  503 -0.00000000000E+00 -0.00000000000E+00 -0.15223752404E+03  0.15223752404E+03  0.00000000000E+00 0. -1.
         -6    2    1    2    0  503  0.39780021397E+02  0.31229023956E+02  0.36406164871E+02  0.18644187510E+03  0.17571983926E+03 0.  0.
        -24    2    3    3    0    0  0.79616951863E+02  0.61857262830E+02  0.42063789653E+02  0.13565635783E+03  0.80424530040E+02 0.  0.
          6    2    1    2  501    0 -0.39780021397E+02 -0.31229023956E+02  0.28749797003E+02  0.18318913486E+03  0.17370666729E+03 0.  0.
         24    2    5    5    0    0 -0.21837016271E+02 -0.30574693053E+01  0.84768856770E+02  0.11779943397E+03  0.78770198477E+02 0.  0.
          5    1    5    5  501    0 -0.17943005126E+02 -0.28171554651E+02 -0.56019059768E+02  0.65389700883E+02  0.47000000000E+01 0. -1.
        -11    1    6    6    0    0 -0.19096120144E+02  0.37003633847E+02  0.43655392078E+02  0.60330124979E+02  0.00000000000E+00 0.  1.
         12    1    6    6    0    0 -0.27408961269E+01 -0.40061103152E+02  0.41113464692E+02  0.57469308994E+02  0.00000000000E+00 0. -1.
         -5    1    3    3    0  503 -0.39836930466E+02 -0.30628238874E+02 -0.56576247823E+01  0.50785517263E+02  0.47000000000E+01 0.  1.
         11    1    4    4    0    0  0.43693577744E+02  0.13861245326E+01 -0.13791593175E+02  0.45839482104E+02  0.00000000000E+00 0. -1.
        -12    1    4    4    0    0  0.35923374119E+02  0.60471138297E+02  0.55855382828E+02  0.89816875730E+02  0.00000000000E+00 0.  1.
<mgrwt>
<rscale>  2 0.18236747E+03</rscale>
<asrwt>0</asrwt>
<pdfrwt beam="1">  1       21 0.33445152E-01 0.18285285E+03</pdfrwt>
<pdfrwt beam="2">  1       21 0.23421157E-01 0.18285285E+03</pdfrwt>
<totfact> 0.14811571E+05</totfact>
</mgrwt>
</event>
<event>
12    1  0.1019868E-001  0.2384699E+03  0.7546771E-02  0.1121167E+00
         21   -1    0    0  501  502  0.00000000000E+00  0.00000000000E+00  0.54548814041E+03  0.54548814041E+03  0.00000000000E+00 0. -1.
         21   -1    0    0  502  503 -0.00000000000E+00 -0.00000000000E+00 -0.10350972966E+03  0.10350972966E+03  0.00000000000E+00 0.  1.
         -6    2    1    2    0  503 -0.10777829350E+03 -0.12043971145E+03  0.23298531421E+03  0.33190794825E+03  0.17250752108E+03 0.  0.
        -24    2    3    3    0    0 -0.15751563289E+02  0.22122733869E+01  0.94184128067E+02  0.12502564419E+03  0.80670662734E+02 0.  0.
          6    2    1    2  501    0  0.10777829350E+03  0.12043971145E+03  0.20899309654E+03  0.31708992181E+03  0.17534542900E+03 0.  0.
         24    2    5    5    0    0  0.12423805947E+03  0.14650118893E+03  0.18897855192E+03  0.28003865328E+03  0.76230311970E+02 0.  0.
          5    1    5    5  501    0 -0.16459765969E+02 -0.26061477477E+02  0.20014544616E+02  0.37051268538E+02  0.47000000000E+01 0. -1.
        -11    1    6    6    0    0  0.10750371417E+03  0.69849732203E+02  0.11681645574E+03  0.17344197295E+03  0.00000000000E+00 0.  1.
         12    1    6    6    0    0  0.16734345300E+02  0.76651456725E+02  0.72162096187E+02  0.10659668033E+03  0.00000000000E+00 0. -1.
         -5    1    3    3    0  503 -0.92026730213E+02 -0.12265198484E+03  0.13880118614E+03  0.20688230406E+03  0.47000000000E+01 0.  1.
         11    1    4    4    0    0  0.66538648239E+00 -0.27948343064E+02  0.85000251736E+02  0.89479580991E+02  0.00000000000E+00 0. -1.
        -12    1    4    4    0    0 -0.16416949771E+02  0.30160616451E+02  0.91838763311E+01  0.35546063199E+02  0.00000000000E+00 0.  1.
<mgrwt>
<rscale>  2 0.23794850E+03</rscale>
<asrwt>0</asrwt>
<pdfrwt beam="1">  1       21 0.83921251E-01 0.23846992E+03</pdfrwt>
<pdfrwt beam="2">  1       21 0.15924574E-01 0.23846992E+03</pdfrwt>
<totfact> 0.42434954E+04</totfact>
</mgrwt>
</event>
<event>
12    1  0.1019868E-001  0.1935083E+03  0.7546771E-02  0.1155459E+00
         21   -1    0    0  503  502  0.00000000000E+00  0.00000000000E+00  0.13109033789E+02  0.13109033789E+02  0.00000000000E+00 0.  1.
         21   -1    0    0  501  503 -0.00000000000E+00 -0.00000000000E+00 -0.28623605198E+04  0.28623605198E+04  0.00000000000E+00 0.  1.
          6    2    1    2  501    0  0.76091931750E+02  0.43346740656E+02 -0.15239489860E+04  0.15361144137E+04  0.17192457039E+03 0.  0.
         24    2    3    3    0    0  0.11575193321E+03  0.41511718798E+02 -0.13233970701E+04  0.13316163844E+04  0.81857541261E+02 0.  0.
         -6    2    1    2    0  502 -0.76091931750E+02 -0.43346740656E+02 -0.13253025000E+04  0.13393551399E+04  0.17255883730E+03 0.  0.
        -24    2    5    5    0    0 -0.94294089251E+02 -0.45742397804E+02 -0.13046691339E+04  0.13113393674E+04  0.80409237448E+02 0.  0.
          5    1    3    3  501    0 -0.39660001461E+02  0.18350218577E+01 -0.20055191586E+03  0.20449802928E+03  0.47000000000E+01 0. -1.
        -13    1    4    4    0    0  0.16273848427E+02  0.42973242667E+02 -0.31690384384E+03  0.32021802567E+03  0.00000000000E+00 0.  1.
         14    1    4    4    0    0  0.99478084784E+02 -0.14615238693E+01 -0.10064932263E+04  0.10113983587E+04  0.00000000000E+00 0. -1.
         -5    1    5    5    0  502  0.18202157501E+02  0.23956571483E+01 -0.20633366143E+02  0.28015772509E+02  0.47000000000E+01 0.  1.
         11    1    6    6    0    0  0.10119093689E+02 -0.34906493472E+01 -0.33025274284E+02  0.34716702486E+02  0.00000000000E+00 0. -1.
        -12    1    6    6    0    0 -0.10441318294E+03 -0.42251748457E+02 -0.12716438596E+04  0.12766226649E+04  0.00000000000E+00 0.  1.
<mgrwt>
<rscale>  2 0.19336683E+03</rscale>
<asrwt>0</asrwt>
<pdfrwt beam="1">  1       21 0.20167775E-02 0.19350833E+03</pdfrwt>
<pdfrwt beam="2">  1       21 0.44036250E+00 0.19350833E+03</pdfrwt>
<totfact> 0.58394635E+03</totfact>
</mgrwt>
</event>
<event>
12    1  0.1019868E-001  0.1949219E+03  0.7546771E-02  0.1155495E+00
         21   -1    0    0  501  502  0.00000000000E+00  0.00000000000E+00  0.66655675267E+02  0.66655675267E+02  0.00000000000E+00 0. -1.
         21   -1    0    0  502  503 -0.00000000000E+00 -0.00000000000E+00 -0.56037818937E+03  0.56037818937E+03  0.00000000000E+00 0. -1.
         -6    2    1    2    0  503 -0.28055752477E+02 -0.67362116888E+02 -0.20391819331E+03  0.27777597587E+03  0.17393125990E+03 0.  0.
        -24    2    3    3    0    0 -0.52314595575E+02 -0.10463113669E+03 -0.16151064932E+03  0.21614837578E+03  0.83366293167E+02 0.  0.
          6    2    1    2  501    0  0.28055752477E+02  0.67362116888E+02 -0.28980432079E+03  0.34925788876E+03  0.18074774818E+03 0.  0.
         24    2    5    5    0    0 -0.39900917093E+01 -0.29134694986E+02 -0.85686860773E+02  0.12116887474E+03  0.80466805662E+02 0.  0.
          5    1    5    5  501    0  0.32045844186E+02  0.96496811874E+02 -0.20411746002E+03  0.22808901402E+03  0.47000000000E+01 0. -1.
        -11    1    6    6    0    0 -0.12098730846E+02  0.66361486375E+01 -0.83275783188E+02  0.84411337049E+02  0.00000000000E+00 0.  1.
         12    1    6    6    0    0  0.81086391362E+01 -0.35770843624E+02 -0.24110775856E+01  0.36757537694E+02  0.00000000000E+00 0. -1.
         -5    1    3    3    0  503  0.24258843099E+02  0.37269019801E+02 -0.42407543990E+02  0.61627600089E+02  0.47000000000E+01 0.  1.
         13    1    4    4    0    0 -0.32695939023E+02 -0.10867747603E+03 -0.99322834604E+02  0.15081393735E+03  0.00000000000E+00 0. -1.
        -14    1    4    4    0    0 -0.19618656553E+02  0.40463393406E+01 -0.62187814713E+02  0.65334438436E+02  0.00000000000E+00 0.  1.
<mgrwt>
<rscale>  2 0.19332648E+03</rscale>
<asrwt>0</asrwt>
<pdfrwt beam="1">  1       21 0.10254719E-01 0.19492185E+03</pdfrwt>
<pdfrwt beam="2">  1       21 0.86212028E-01 0.19492185E+03</pdfrwt>
<totfact> 0.89949876E+04</totfact>
</mgrwt>
</event>
<event>
12    1  0.1019868E-001  0.3220528E+03  0.7546771E-02  0.1074783E+00
         21   -1    0    0  501  502  0.00000000000E+00  0.00000000000E+00  0.10077865251E+03  0.10077865251E+03  0.00000000000E+00 0. -1.
         21   -1    0    0  502  503 -0.00000000000E+00 -0.00000000000E+00 -0.10457789696E+04  0.10457789696E+04  0.00000000000E+00 0.  1.
         -6    2    1    2    0  503  0.25921267931E+03 -0.79125757823E+02 -0.54867687066E+03  0.63588130926E+03  0.17276177935E+03 0.  0.
        -24    2    3    3    0    0  0.25192591536E+03 -0.45467658850E+02 -0.39108724856E+03  0.47450428627E+03  0.81676844181E+02 0.  0.
          6    2    1    2  501    0 -0.25921267931E+03  0.79125757823E+02 -0.39632344639E+03  0.51067631280E+03  0.17397104252E+03 0.  0.
         24    2    5    5    0    0 -0.16045741743E+03  0.22849222950E+02 -0.33727600914E+03  0.38250322681E+03  0.79277628513E+02 0.  0.
          5    1    5    5  501    0 -0.98755261886E+02  0.56276534873E+02 -0.59047437248E+02  0.12817308599E+03  0.47000000000E+01 0. -1.
        -13    1    6    6    0    0 -0.28356941498E+02 -0.16204020469E+02 -0.12693426072E+03  0.13106865741E+03  0.00000000000E+00 0.  1.
         14    1    6    6    0    0 -0.13210047593E+03  0.39053243419E+02 -0.21034174842E+03  0.25143456940E+03  0.00000000000E+00 0. -1.
         -5    1    3    3    0  503  0.72867639569E+01 -0.33658098974E+02 -0.15758962210E+03  0.16137702299E+03  0.47000000000E+01 0.  1.
         11    1    4    4    0    0  0.21909133761E+03 -0.42179020003E+02 -0.37814123665E+03  0.43905680589E+03  0.00000000000E+00 0. -1.
        -12    1    4    4    0    0  0.32834577741E+02 -0.32886388460E+01 -0.12946011912E+02  0.35447480380E+02  0.00000000000E+00 0.  1.
<mgrwt>
<rscale>  2 0.32188980E+03</rscale>
<asrwt>0</asrwt>
<pdfrwt beam="1">  1       21 0.15504409E-01 0.32205283E+03</pdfrwt>
<pdfrwt beam="2">  1       21 0.16088906E+00 0.32205283E+03</pdfrwt>
<totfact> 0.84521769E+03</totfact>
</mgrwt>
</event>
<event>
12    1  0.1019868E-001  0.1920212E+03  0.7546771E-02  0.1156773E+00
         21   -1    0    0  503  502  0.00000000000E+00  0.00000000000E+00  0.77205237778E+02  0.77205237778E+02  0.00000000000E+00 0.  1.
         21   -1    0    0  501  503 -0.00000000000E+00 -0.00000000000E+00 -0.61432273675E+03  0.61432273675E+03  0.00000000000E+00 0.  1.
          6    2    1    2  501    0  0.41657505898E+02 -0.72398776499E+02 -0.43279127269E+03  0.47347696207E+03  0.17290233442E+03 0.  0.
         24    2    3    3    0    0 -0.11985907142E+02 -0.92147691832E+02 -0.36257940412E+03  0.38281587941E+03  0.80307622033E+02 0.  0.
         -6    2    1    2    0  502 -0.41657505898E+02  0.72398776499E+02 -0.10432622627E+03  0.21805101246E+03  0.17229437574E+03 0.  0.
        -24    2    5    5    0    0  0.79434118337E+01  0.32851327217E+02 -0.12325847343E+03  0.15168255786E+03  0.81686226470E+02 0.  0.
          5    1    3    3  501    0  0.53643413041E+02  0.19748915333E+02 -0.70211868576E+02  0.90661082656E+02  0.47000000000E+01 0. -1.
        -13    1    4    4    0    0  0.27446646244E+02 -0.22038613590E+02 -0.17837193282E+03  0.18181189537E+03  0.00000000000E+00 0.  1.
         14    1    4    4    0    0 -0.39432553386E+02 -0.70109078242E+02 -0.18420747130E+03  0.20100398404E+03  0.00000000000E+00 0. -1.
         -5    1    5    5    0  502 -0.49600917732E+02  0.39547449282E+02  0.18932247150E+02  0.66368454606E+02  0.47000000000E+01 0.  1.
         11    1    6    6    0    0  0.30213664990E+02  0.45358425788E+02 -0.11032608743E+03  0.12305323202E+03  0.00000000000E+00 0. -1.
        -12    1    6    6    0    0 -0.22270253156E+02 -0.12507098571E+02 -0.12932385990E+02  0.28629325834E+02  0.00000000000E+00 0.  1.
<mgrwt>
<rscale>  2 0.19188426E+03</rscale>
<asrwt>0</asrwt>
<pdfrwt beam="1">  1       21 0.11877729E-01 0.19202122E+03</pdfrwt>
<pdfrwt beam="2">  1       21 0.94511192E-01 0.19202122E+03</pdfrwt>
<totfact> 0.56056580E+04</totfact>
</mgrwt>
</event>
<event>
12    1  0.1019868E-001  0.1983683E+03  0.7546771E-02  0.1151747E+00
         21   -1    0    0  501  502  0.00000000000E+00  0.00000000000E+00  0.15173820796E+03  0.15173820796E+03  0.00000000000E+00 0.  1.
         21   -1    0    0  502  503 -0.00000000000E+00 -0.00000000000E+00 -0.27994987173E+03  0.27994987173E+03  0.00000000000E+00 0. -1.
         -6    2    1    2    0  503  0.30681943562E+02 -0.85856223104E+02 -0.80897142950E+00  0.19836998404E+03  0.17617412814E+03 0.  0.
        -24    2    3    3    0    0  0.41778654354E+02 -0.71995629570E+01 -0.47818134453E+02  0.10594726722E+03  0.84504199796E+02 0.  0.
          6    2    1    2  501    0 -0.30681943562E+02  0.85856223104E+02 -0.12740269234E+03  0.23331809565E+03  0.17289654431E+03 0.  0.
         24    2    5    5    0    0 -0.14855016364E+02  0.78196587443E+01  0.68254443254E+01  0.77178799906E+02  0.75021076310E+02 0.  0.
          5    1    5    5  501    0 -0.15826927198E+02  0.78036564360E+02 -0.13422813667E+03  0.15613929574E+03  0.47000000000E+01 0. -1.
        -11    1    6    6    0    0  0.24184727811E+02  0.16268451982E+02 -0.13772208702E+02  0.32237204000E+02  0.00000000000E+00 0.  1.
         12    1    6    6    0    0 -0.39039744175E+02 -0.84487932379E+01  0.20597653027E+02  0.44941595907E+02  0.00000000000E+00 0. -1.
         -5    1    3    3    0  503 -0.11096710791E+02 -0.78656660147E+02  0.47009163024E+02  0.92422716818E+02  0.47000000000E+01 0.  1.
         13    1    4    4    0    0 -0.20567761164E+02 -0.14932270325E+02 -0.32543944700E+02  0.41293024023E+02  0.00000000000E+00 0. -1.
        -14    1    4    4    0    0  0.62346415518E+02  0.77327073681E+01 -0.15274189754E+02  0.64654243200E+02  0.00000000000E+00 0.  1.
<mgrwt>
<rscale>  2 0.19763804E+03</rscale>
<asrwt>0</asrwt>
<pdfrwt beam="1">  1       21 0.23344340E-01 0.19836833E+03</pdfrwt>
<pdfrwt beam="2">  1       21 0.43069211E-01 0.19836833E+03</pdfrwt>
<totfact> 0.89238100E+04</totfact>
</mgrwt>
</event>
<event>
12    1  0.1019868E-001  0.3292114E+03  0.7546771E-02  0.1071549E+00
         21   -1    0    0  501  502  0.00000000000E+00  0.00000000000E+00  0.66555678304E+03  0.66555678304E+03  0.00000000000E+00 0. -1.
         21   -1    0    0  502  503 -0.00000000000E+00 -0.00000000000E+00 -0.27976905879E+03  0.27976905879E+03  0.00000000000E+00 0.  1.
         -6    2    1    2    0  503  0.10121021684E+03 -0.26133101203E+03 -0.11294323686E+03  0.34804643718E+03  0.17275051906E+03 0.  0.
        -24    2    3    3    0    0  0.22611114764E+01 -0.18656938274E+03 -0.88387336893E+02  0.22153434728E+03  0.80323710699E+02 0.  0.
          6    2    1    2  501    0 -0.10121021684E+03  0.26133101203E+03  0.49873096111E+03  0.59727940465E+03  0.17167617716E+03 0.  0.
         24    2    5    5    0    0 -0.48502626110E+02  0.40381739498E+02  0.11263078947E+03  0.14929268197E+03  0.74962794301E+02 0.  0.
          5    1    5    5  501    0 -0.52707590728E+02  0.22094927254E+03  0.38610017164E+03  0.44798672268E+03  0.47000000000E+01 0. -1.
        -11    1    6    6    0    0 -0.51153661627E+02  0.22525219727E+02  0.27543603536E+02  0.62311577715E+02  0.00000000000E+00 0.  1.
         12    1    6    6    0    0  0.26510355166E+01  0.17856519771E+02  0.85087185935E+02  0.86981104258E+02  0.00000000000E+00 0. -1.
         -5    1    3    3    0  503  0.98949105362E+02 -0.74761629295E+02 -0.24555899970E+02  0.12651208990E+03  0.47000000000E+01 0.  1.
         13    1    4    4    0    0 -0.19489303515E+02 -0.62182388301E+02 -0.66996033271E+02  0.93460958910E+02  0.00000000000E+00 0. -1.
        -14    1    4    4    0    0  0.21750414992E+02 -0.12438699444E+03 -0.21391303622E+02  0.12807338837E+03  0.00000000000E+00 0.  1.
<mgrwt>
<rscale>  2 0.32907069E+03</rscale>
<asrwt>0</asrwt>
<pdfrwt beam="1">  1       21 0.10239335E+00 0.32921140E+03</pdfrwt>
<pdfrwt beam="2">  1       21 0.43041394E-01 0.32921140E+03</pdfrwt>
<totfact> 0.36911905E+03</totfact>
</mgrwt>
</event>
<event>
12    1  0.1019868E-001  0.2341838E+03  0.7546771E-02  0.1123792E+00
         21   -1    0    0  503  502  0.00000000000E+00  0.00000000000E+00  0.34932628304E+03  0.34932628304E+03  0.00000000000E+00 0.  1.
         21   -1    0    0  501  503 -0.00000000000E+00 -0.00000000000E+00 -0.22627049880E+03  0.22627049880E+03  0.00000000000E+00 0. -1.
          6    2    1    2  501    0  0.13816841194E+03 -0.75913749631E+02 -0.97967005725E+02  0.25384957669E+03  0.17317235904E+03 0.  0.
         24    2    3    3    0    0 -0.15471567002E+01 -0.37200950946E+02 -0.40101972578E+01  0.81022805733E+02  0.71849209610E+02 0.  0.
         -6    2    1    2    0  502 -0.13816841194E+03  0.75913749631E+02  0.22102278996E+03  0.32174720514E+03  0.17267536852E+03 0.  0.
        -24    2    5    5    0    0 -0.17590664427E+02  0.35296682593E+02  0.34592505921E+02  0.95988306897E+02  0.80385485742E+02 0.  0.
          5    1    3    3  501    0  0.13971556864E+03 -0.38712798684E+02 -0.93956808467E+02  0.17282677096E+03  0.47000000000E+01 0. -1.
        -13    1    4    4    0    0  0.13742884457E+02  0.23391255860E+01  0.25712124962E+02  0.29248106807E+02  0.00000000000E+00 0.  1.
         14    1    4    4    0    0 -0.15290041157E+02 -0.39540076532E+02 -0.29722322220E+02  0.51774698926E+02  0.00000000000E+00 0. -1.
         -5    1    5    5    0  502 -0.12057774751E+03  0.40617067038E+02  0.18643028404E+03  0.22575889825E+03  0.47000000000E+01 0.  1.
         13    1    6    6    0    0 -0.41737618828E+02  0.39909708756E+02  0.56639453456E+01  0.58024942528E+02  0.00000000000E+00 0. -1.
        -14    1    6    6    0    0  0.24146954402E+02 -0.46130261634E+01  0.28928560576E+02  0.37963364369E+02  0.00000000000E+00 0.  1.
<mgrwt>
<rscale>  2 0.23409197E+03</rscale>
<asrwt>0</asrwt>
<pdfrwt beam="1">  1       21 0.53742505E-01 0.23418385E+03</pdfrwt>
<pdfrwt beam="2">  1       21 0.34810846E-01 0.23418385E+03</pdfrwt>
<totfact> 0.25478141E+04</totfact>
</mgrwt>
</event>
<event>
12    1  0.1019868E-001  0.3623313E+03  0.7546771E-02  0.1057824E+00
         21   -1    0    0  501  502  0.00000000000E+00  0.00000000000E+00  0.53826172060E+03  0.53826172060E+03  0.00000000000E+00 0.  1.
         21   -1    0    0  502  503 -0.00000000000E+00 -0.00000000000E+00 -0.37587830740E+03  0.37587830740E+03  0.00000000000E+00 0. -1.
         -6    2    1    2    0  503  0.24709823716E+02 -0.31549902230E+03  0.35326101888E+03  0.50604079997E+03  0.17644754266E+03 0.  0.
        -24    2    3    3    0    0 -0.30057388137E+02 -0.10766784506E+03  0.82745864618E+02  0.16050674316E+03  0.80123186703E+02 0.  0.
          6    2    1    2  501    0 -0.24709823716E+02  0.31549902230E+03 -0.19087760568E+03  0.40809922803E+03  0.17309104860E+03 0.  0.
         24    2    5    5    0    0  0.18800380398E+02  0.97856394831E+02 -0.21331201911E+02  0.12876157538E+03  0.78709559825E+02 0.  0.
          5    1    5    5  501    0 -0.43510204114E+02  0.21764262747E+03 -0.16954640377E+03  0.27933765264E+03  0.47000000000E+01 0. -1.
        -11    1    6    6    0    0  0.29306400125E+02  0.10177857346E+01 -0.15400478000E+01  0.29364480641E+02  0.00000000000E+00 0.  1.
         12    1    6    6    0    0 -0.10506019727E+02  0.96838609096E+02 -0.19791154111E+02  0.99397094742E+02  0.00000000000E+00 0. -1.
         -5    1    3    3    0  503  0.54767211853E+02 -0.20783117724E+03  0.27051515426E+03  0.34553405680E+03  0.47000000000E+01 0.  1.
         11    1    4    4    0    0 -0.35941257641E+02 -0.16951536581E+02  0.34714807411E+01  0.39889594781E+02  0.00000000000E+00 0. -1.
        -12    1    4    4    0    0  0.58838695042E+01 -0.90716308479E+02  0.79274383877E+02  0.12061714838E+03  0.00000000000E+00 0.  1.
<mgrwt>
<rscale>  2 0.36192492E+03</rscale>
<asrwt>0</asrwt>
<pdfrwt beam="1">  1       21 0.82809496E-01 0.36233126E+03</pdfrwt>
<pdfrwt beam="2">  1       21 0.57827432E-01 0.36233126E+03</pdfrwt>
<totfact> 0.32165460E+03</totfact>
</mgrwt>
</event>
<event>
12    1  0.1019868E-001  0.1933430E+03  0.7546771E-02  0.1155790E+00
         21   -1    0    0  501  502  0.00000000000E+00  0.00000000000E+00  0.19178380410E+03  0.19178380410E+03  0.00000000000E+00 0. -1.
         21   -1    0    0  502  503 -0.00000000000E+00 -0.00000000000E+00 -0.19351804624E+03  0.19351804624E+03  0.00000000000E+00 0. -1.
         -6    2    1    2    0  503 -0.81219276866E+02 -0.26242844052E+02 -0.23756168490E+01  0.19195774969E+03  0.17192113399E+03 0.  0.
        -24    2    3    3    0    0 -0.87962436342E+02 -0.60518502493E+02  0.37924032393E+02  0.13841858001E+03  0.79508437962E+02 0.  0.
          6    2    1    2  501    0  0.81219276866E+02  0.26242844052E+02  0.64137471284E+00  0.19334410065E+03  0.17348277175E+03 0.  0.
         24    2    5    5    0    0  0.10474157442E+03  0.28012568989E+02 -0.44581877785E+02  0.14212239651E+03  0.80347559572E+02 0.  0.
          5    1    5    5  501    0 -0.23522297552E+02 -0.17697249368E+01  0.45223252498E+02  0.51221704140E+02  0.47000000000E+01 0. -1.
        -11    1    6    6    0    0  0.75767337892E+02  0.18159543942E+02 -0.68136352868E+02  0.10350372510E+03  0.00000000000E+00 0.  1.
         12    1    6    6    0    0  0.28974236526E+02  0.98530250468E+01  0.23554475083E+02  0.38618671408E+02  0.00000000000E+00 0. -1.
         -5    1    3    3    0  503  0.67431594764E+01  0.34275658441E+02 -0.40299649242E+02  0.53539169683E+02  0.47000000000E+01 0.  1.
         13    1    4    4    0    0 -0.45852749314E+02 -0.20165904461E+02 -0.22078728663E+02  0.54741287725E+02  0.00000000000E+00 0. -1.
        -14    1    4    4    0    0 -0.42109687028E+02 -0.40352598032E+02  0.60002761056E+02  0.83677292283E+02  0.00000000000E+00 0.  1.
<mgrwt>
<rscale>  2 0.19299209E+03</rscale>
<asrwt>0</asrwt>
<pdfrwt beam="1">  1       21 0.29505201E-01 0.19334304E+03</pdfrwt>
<pdfrwt beam="2">  1       21 0.29772007E-01 0.19334304E+03</pdfrwt>
<totfact> 0.11902630E+05</totfact>
</mgrwt>
</event>
<event>
12    1  0.1019868E-001  0.1795411E+03  0.7546771E-02  0.1168666E+00
         21   -1    0    0  501  502  0.00000000000E+00  0.00000000000E+00  0.56674516693E+02  0.56674516693E+02  0.00000000000E+00 0. -1.
         21   -1    0    0  502  503 -0.00000000000E+00 -0.00000000000E+00 -0.79234753735E+03  0.79234753735E+03  0.00000000000E+00 0. -1.
         -6    2    1    2    0  503 -0.31514232436E+02 -0.34944054140E+02 -0.59729827500E+03  0.62369884225E+03  0.17326506497E+03 0.  0.
        -24    2    3    3    0    0 -0.75522125438E+02  0.11372756536E+02 -0.43029911725E+03  0.44483366876E+03  0.82986333426E+02 0.  0.
          6    2    1    2  501    0  0.31514232436E+02  0.34944054140E+02 -0.13837474565E+03  0.22532321179E+03  0.17148978329E+03 0.  0.
         24    2    5    5    0    0  0.61822235813E+02  0.27905542092E+02 -0.25015446608E+02  0.10767740268E+03  0.79799388213E+02 0.  0.
          5    1    5    5  501    0 -0.30308003377E+02  0.70385120480E+01 -0.11335929905E+03  0.11764580911E+03  0.47000000000E+01 0. -1.
        -13    1    6    6    0    0 -0.68364797105E+01 -0.14055150662E+02 -0.22215944669E+02  0.27163079952E+02  0.00000000000E+00 0.  1.
         14    1    6    6    0    0  0.68658715524E+02  0.41960692754E+02 -0.27995019394E+01  0.80514322731E+02  0.00000000000E+00 0. -1.
         -5    1    3    3    0  503  0.44007893002E+02 -0.46316810675E+02 -0.16699915776E+03  0.17886517350E+03  0.47000000000E+01 0.  1.
         13    1    4    4    0    0 -0.57031671035E+02  0.38397743035E+02 -0.36886312012E+03  0.37521593724E+03  0.00000000000E+00 0. -1.
        -14    1    4    4    0    0 -0.18490454403E+02 -0.27024986499E+02 -0.61435997126E+02  0.69617731521E+02  0.00000000000E+00 0.  1.
<mgrwt>
<rscale>  2 0.17911143E+03</rscale>
<asrwt>0</asrwt>
<pdfrwt beam="1">  1       21 0.87191575E-02 0.17954113E+03</pdfrwt>
<pdfrwt beam="2">  1       21 0.12189961E+00 0.17954113E+03</pdfrwt>
<totfact> 0.52801085E+04</totfact>
</mgrwt>
</event>
<event>
12    1  0.1019868E-001  0.2098971E+03  0.7546771E-02  0.1141885E+00
         21   -1    0    0  501  502  0.00000000000E+00  0.00000000000E+00  0.14077859455E+03  0.14077859455E+03  0.00000000000E+00 0.  1.
         21   -1    0    0  502  503 -0.00000000000E+00 -0.00000000000E+00 -0.74867657712E+03  0.74867657712E+03  0.00000000000E+00 0. -1.
         -6    2    1    2    0  503  0.10947927504E+03  0.41923647588E+02 -0.64427616693E+03  0.67760503684E+03  0.17410773326E+03 0.  0.
        -24    2    3    3    0    0  0.17261969177E+02 -0.20009972198E+02 -0.40547864490E+03  0.41419252520E+03  0.80275412745E+02 0.  0.
          6    2    1    2  501    0 -0.10947927504E+03 -0.41923647588E+02  0.36378184365E+02  0.21185013483E+03  0.17266674098E+03 0.  0.
         24    2    5    5    0    0 -0.15956272520E+02 -0.16648697291E+00  0.65198061873E+02  0.10534714050E+03  0.81194842129E+02 0.  0.
          5    1    5    5  501    0 -0.93523002520E+02 -0.41757160616E+02 -0.28819877508E+02  0.10650299434E+03  0.47000000000E+01 0. -1.
        -13    1    6    6    0    0 -0.12477998577E+02 -0.40057052419E+02  0.26269680643E+02  0.49501151684E+02  0.00000000000E+00 0.  1.
         14    1    6    6    0    0 -0.34782739426E+01  0.39890565446E+02  0.38928381230E+02  0.55845988813E+02  0.00000000000E+00 0. -1.
         -5    1    3    3    0  503  0.92217305862E+02  0.61933619787E+02 -0.23879752203E+03  0.26341251164E+03  0.47000000000E+01 0.  1.
         11    1    4    4    0    0  0.48008786631E+02 -0.22897896148E+02 -0.23558398395E+03  0.24151391417E+03  0.00000000000E+00 0. -1.
        -12    1    4    4    0    0 -0.30746817454E+02  0.28879239502E+01 -0.16989466095E+03  0.17267861103E+03  0.00000000000E+00 0.  1.
<mgrwt>
<rscale>  2 0.20959806E+03</rscale>
<asrwt>0</asrwt>
<pdfrwt beam="1">  1       21 0.21658246E-01 0.20989713E+03</pdfrwt>
<pdfrwt beam="2">  1       21 0.11518101E+00 0.20989713E+03</pdfrwt>
<totfact> 0.11472996E+04</totfact>
</mgrwt>
</event>
<event>
12    1  0.1019868E-001  0.2266369E+03  0.7546771E-02  0.1129146E+00
         21   -1    0    0  503  502  0.00000000000E+00  0.00000000000E+00  0.86981455269E+03  0.86981455269E+03  0.00000000000E+00 0. -1.
         21   -1    0    0  501  503 -0.00000000000E+00 -0.00000000000E+00 -0.59917708834E+02  0.59917708834E+02  0.00000000000E+00 0.  1.
          6    2    1    2  501    0  0.12396496490E+03  0.77595625236E+02  0.46545337377E+03  0.51741493729E+03  0.17228749404E+03 0.  0.
         24    2    3    3    0    0  0.15090159231E+03  0.34512828148E+02  0.34421167177E+03  0.38587274024E+03  0.80334742238E+02 0.  0.
         -6    2    1    2    0  502 -0.12396496490E+03 -0.77595625236E+02  0.34444347009E+03  0.41231732423E+03  0.17313543311E+03 0.  0.
        -24    2    5    5    0    0 -0.32512055430E+02 -0.97594673811E+02  0.22715455209E+03  0.26217613442E+03  0.80965306256E+02 0.  0.
          5    1    3    3  501    0 -0.26936627412E+02  0.43082797088E+02  0.12124170200E+03  0.13154219705E+03  0.47000000000E+01 0. -1.
        -11    1    4    4    0    0  0.95506654604E+02  0.59099012917E+02  0.24667778362E+03  0.27104269652E+03  0.00000000000E+00 0.  1.
         12    1    4    4    0    0  0.55394937709E+02 -0.24586184769E+02  0.97533888149E+02  0.11483004373E+03  0.00000000000E+00 0. -1.
         -5    1    5    5    0  502 -0.91452909470E+02  0.19999048575E+02  0.11728891800E+03  0.15014118982E+03  0.47000000000E+01 0.  1.
         11    1    6    6    0    0 -0.30683008540E+02 -0.49084240719E+01  0.25367891317E+02  0.40113209168E+02  0.00000000000E+00 0. -1.
        -12    1    6    6    0    0 -0.18290468906E+01 -0.92686249739E+02  0.20178666077E+03  0.22206292525E+03  0.00000000000E+00 0.  1.
<mgrwt>
<rscale>  2 0.22647492E+03</rscale>
<asrwt>0</asrwt>
<pdfrwt beam="1">  1       21 0.13381761E+00 0.22663687E+03</pdfrwt>
<pdfrwt beam="2">  1       21 0.92181097E-02 0.22663687E+03</pdfrwt>
<totfact> 0.36919393E+04</totfact>
</mgrwt>
</event>
<event>
12    1  0.1019868E-001  0.2643043E+03  0.7546771E-02  0.1104708E+00
         21   -1    0    0  503  502  0.00000000000E+00  0.00000000000E+00  0.64165745637E+03  0.64165745637E+03  0.00000000000E+00 0.  1.
         21   -1    0    0  501  503 -0.00000000000E+00 -0.00000000000E+00 -0.16705047984E+03  0.16705047984E+03  0.00000000000E+00 0.  1.
          6    2    1    2  501    0  0.19752906681E+03  0.29403331930E+02 -0.22841930337E+01  0.26347227304E+03  0.17184333842E+03 0.  0.
         24    2    3    3    0    0  0.12055394651E+03  0.78123879189E+02  0.27289527867E+02  0.16757881217E+03  0.81861745869E+02 0.  0.
         -6    2    1    2    0  502 -0.19752906681E+03 -0.29403331930E+02  0.47689116956E+03  0.54523566317E+03  0.17313131614E+03 0.  0.
        -24    2    5    5    0    0 -0.11603406038E+03 -0.68353347284E+02  0.19943175250E+03  0.25340633311E+03  0.79408201740E+02 0.  0.
          5    1    3    3  501    0  0.76975120301E+02 -0.48720547258E+02 -0.29573720900E+02  0.95893460874E+02  0.47000000000E+01 0. -1.
        -13    1    4    4    0    0  0.61461172746E+02  0.23240535528E+02 -0.26270661531E+02  0.70765428737E+02  0.00000000000E+00 0.  1.
         14    1    4    4    0    0  0.59092773764E+02  0.54883343660E+02  0.53560189398E+02  0.96813383428E+02  0.00000000000E+00 0. -1.
         -5    1    5    5    0  502 -0.81495006434E+02  0.38950015354E+02  0.27745941706E+03  0.29182933006E+03  0.47000000000E+01 0.  1.
         11    1    6    6    0    0 -0.94107117207E+02 -0.22800556034E+02  0.87171743882E+02  0.13028786511E+03  0.00000000000E+00 0. -1.
        -12    1    6    6    0    0 -0.21926943171E+02 -0.45552791250E+02  0.11226000862E+03  0.12311846800E+03  0.00000000000E+00 0.  1.
<mgrwt>
<rscale>  2 0.26409353E+03</rscale>
<asrwt>0</asrwt>
<pdfrwt beam="1">  1       21 0.98716530E-01 0.26430426E+03</pdfrwt>
<pdfrwt beam="2">  1       21 0.25700074E-01 0.26430426E+03</pdfrwt>
<totfact> 0.11647861E+04</totfact>
</mgrwt>
</event>
<event>
12    1  0.1019868E-001  0.1847436E+03  0.7546771E-02  0.1163461E+00
         21   -1    0    0  501  502  0.00000000000E+00  0.00000000000E+00  0.16910761299E+03  0.16910761299E+03  0.00000000000E+00 0.  1.
         21   -1    0    0  502  503 -0.00000000000E+00 -0.00000000000E+00 -0.21640096272E+03  0.21640096272E+03  0.00000000000E+00 0.  1.
         -6    2    1    2    0  503  0.65814566268E+02 -0.30013477199E+00 -0.74979360197E+02  0.19870191262E+03  0.17183974630E+03 0.  0.
        -24    2    3    3    0    0  0.50347194886E+02  0.50318394078E+02 -0.66324867887E+02  0.14486451597E+03  0.10733107226E+03 0.  0.
          6    2    1    2  501    0 -0.65814566268E+02  0.30013477199E+00  0.27686010459E+02  0.18680666309E+03  0.17262261435E+03 0.  0.
         24    2    5    5    0    0  0.18115237888E+02  0.41810258589E+02  0.25621465359E+02  0.93032174284E+02  0.76956262889E+02 0.  0.
          5    1    5    5  501    0 -0.83929804156E+02 -0.41510123817E+02  0.20645450999E+01  0.93774488809E+02  0.47000000000E+01 0. -1.
        -13    1    6    6    0    0  0.32503552258E+00  0.42616048953E+02 -0.17735479568E+02  0.46160378161E+02  0.00000000000E+00 0.  1.
         14    1    6    6    0    0  0.17790202365E+02 -0.80579036425E+00  0.43356944927E+02  0.46871796123E+02  0.00000000000E+00 0. -1.
         -5    1    3    3    0  503  0.15467371382E+02 -0.50618528850E+02 -0.86544923108E+01  0.53837396645E+02  0.47000000000E+01 0.  1.
         11    1    4    4    0    0  0.24125593066E+02  0.62557007967E+02 -0.86607090089E+02  0.10952721826E+03  0.00000000000E+00 0. -1.
        -12    1    4    4    0    0  0.26221601819E+02 -0.12238613889E+02  0.20282222202E+02  0.35337297709E+02  0.00000000000E+00 0.  1.
<mgrwt>
<rscale>  2 0.18456055E+03</rscale>
<asrwt>0</asrwt>
<pdfrwt beam="1">  1       21 0.26016556E-01 0.18474364E+03</pdfrwt>
<pdfrwt beam="2">  1       21 0.33292456E-01 0.18474364E+03</pdfrwt>
<totfact> 0.12227045E+05</totfact>
</mgrwt>
</event>
<event>
12    1  0.1019868E-001  0.2008985E+03  0.7546771E-02  0.1149050E+00
         21   -1    0    0  503  502  0.00000000000E+00  0.00000000000E+00  0.30460988111E+03  0.30460988111E+03  0.00000000000E+00 0.  1.
         21   -1    0    0  501  503 -0.00000000000E+00 -0.00000000000E+00 -0.15685105784E+03  0.15685105784E+03  0.00000000000E+00 0.  1.
          6    2    1    2  501    0 -0.84144648984E+02  0.55312445202E+02  0.16513606078E+03  0.25981231707E+03  0.17347257127E+03 0.  0.
         24    2    3    3    0    0 -0.67118003423E+00  0.80109860222E+02  0.94943650169E+02  0.14786681105E+03  0.80201352329E+02 0.  0.
         -6    2    1    2    0  502  0.84144648984E+02 -0.55312445202E+02 -0.17377237511E+02  0.20164862188E+03  0.17384018458E+03 0.  0.
        -24    2    5    5    0    0  0.10431148559E+03 -0.17701379119E+02 -0.56051683073E+02  0.14386370750E+03  0.79754312167E+02 0.  0.
          5    1    3    3  501    0 -0.83473468950E+02 -0.24797415020E+02  0.70192410608E+02  0.11194550602E+03  0.47000000000E+01 0. -1.
        -11    1    4    4    0    0  0.30272820513E+02  0.69915844441E+02  0.84218866295E+02  0.11356710090E+03  0.00000000000E+00 0.  1.
         12    1    4    4    0    0 -0.30944000547E+02  0.10194015781E+02  0.10724783874E+02  0.34299710155E+02  0.00000000000E+00 0. -1.
         -5    1    5    5    0  502 -0.20166836610E+02 -0.37611066083E+02  0.38674445562E+02  0.57784914383E+02  0.47000000000E+01 0.  1.
         11    1    6    6    0    0  0.38286002320E+02  0.27165016671E+02 -0.11109023032E+01  0.46957323266E+02  0.00000000000E+00 0. -1.
        -12    1    6    6    0    0  0.66025483275E+02 -0.44866395790E+02 -0.54940780770E+02  0.96906384230E+02  0.00000000000E+00 0.  1.
<mgrwt>
<rscale>  2 0.20081893E+03</rscale>
<asrwt>0</asrwt>
<pdfrwt beam="1">  1       21 0.46863058E-01 0.20089848E+03</pdfrwt>
<pdfrwt beam="2">  1       21 0.24130932E-01 0.20089848E+03</pdfrwt>
<totfact> 0.70367187E+04</totfact>
</mgrwt>
</event>
<event>
12    1  0.1019868E-001  0.2376430E+03  0.7546771E-02  0.1121382E+00
         21   -1    0    0  503  502  0.00000000000E+00  0.00000000000E+00  0.37097850805E+03  0.37097850805E+03  0.00000000000E+00 0.  1.
         21   -1    0    0  501  503 -0.00000000000E+00 -0.00000000000E+00 -0.29091431368E+03  0.29091431368E+03  0.00000000000E+00 0.  1.
          6    2    1    2  501    0  0.16264530543E+03 -0.12629575245E+02 -0.18849513637E+03  0.30332264361E+03  0.17280395870E+03 0.  0.
         24    2    3    3    0    0  0.18719039966E+03 -0.24135941108E+02 -0.18357708475E+03  0.27537384510E+03  0.80668575917E+02 0.  0.
         -6    2    1    2    0  502 -0.16264530543E+03  0.12629575245E+02  0.26855933074E+03  0.35857017813E+03  0.17272943283E+03 0.  0.
        -24    2    5    5    0    0 -0.15578779890E+03 -0.38416325624E+02  0.16818064663E+03  0.24565127087E+03  0.79461717953E+02 0.  0.
          5    1    3    3  501    0 -0.24545094233E+02  0.11506365864E+02 -0.49180516175E+01  0.27948798508E+02  0.47000000000E+01 0. -1.
        -13    1    4    4    0    0 -0.17414346219E-01 -0.17560770612E+02 -0.11350278398E+02  0.20909562106E+02  0.00000000000E+00 0.  1.
         14    1    4    4    0    0  0.18720781401E+03 -0.65751704960E+01 -0.17222680635E+03  0.25446428299E+03  0.00000000000E+00 0. -1.
         -5    1    5    5    0  502 -0.68575065245E+01  0.51045900869E+02  0.10037868411E+03  0.11291890725E+03  0.47000000000E+01 0.  1.
         11    1    6    6    0    0 -0.12377048993E+03 -0.47871956714E+02  0.16553538066E+03  0.21216225080E+03  0.00000000000E+00 0. -1.
        -12    1    6    6    0    0 -0.32017308973E+02  0.94556310903E+01  0.26452659725E+01  0.33489020070E+02  0.00000000000E+00 0.  1.
<mgrwt>
<rscale>  2 0.23762948E+03</rscale>
<asrwt>0</asrwt>
<pdfrwt beam="1">  1       21 0.57073616E-01 0.23764303E+03</pdfrwt>
<pdfrwt beam="2">  1       21 0.44756048E-01 0.23764303E+03</pdfrwt>
<totfact> 0.13445900E+04</totfact>
</mgrwt>
</event>
<event>
12    1  0.1019868E-001  0.1842246E+03  0.7546771E-02  0.1163899E+00
         21   -1    0    0  501  502  0.00000000000E+00  0.00000000000E+00  0.12108805316E+03  0.12108805316E+03  0.00000000000E+00 0. -1.
         21   -1    0    0  502  503 -0.00000000000E+00 -0.00000000000E+00 -0.33038799356E+03  0.33038799356E+03  0.00000000000E+00 0. -1.
         -6    2    1    2    0  503 -0.56561144628E+02  0.31880090720E+02 -0.19337891180E+03  0.26708448178E+03  0.17240421576E+03 0.  0.
        -24    2    3    3    0    0  0.19019758097E+02  0.28992398933E+02 -0.16433054806E+03  0.18592593906E+03  0.79759735432E+02 0.  0.
          6    2    1    2  501    0  0.56561144628E+02 -0.31880090720E+02 -0.15921028598E+02  0.18439156494E+03  0.17184663745E+03 0.  0.
         24    2    5    5    0    0  0.61705852730E+02  0.23261071638E+02 -0.53206495018E+02  0.11746390389E+03  0.81351999916E+02 0.  0.
          5    1    5    5  501    0 -0.51447081021E+01 -0.55141162357E+02  0.37285466420E+02  0.66927661051E+02  0.47000000000E+01 0. -1.
        -13    1    6    6    0    0  0.38353090430E+02 -0.87213186975E+01  0.12045524001E+02  0.41135332669E+02  0.00000000000E+00 0.  1.
         14    1    6    6    0    0  0.23352762300E+02  0.31982390335E+02 -0.65252019019E+02  0.76328571221E+02  0.00000000000E+00 0. -1.
         -5    1    3    3    0  503 -0.75580902724E+02  0.28876917862E+01 -0.29048363742E+02  0.81158542721E+02  0.47000000000E+01 0.  1.
         11    1    4    4    0    0  0.32118647083E+02  0.49076785167E+01 -0.18191448454E+02  0.37237368270E+02  0.00000000000E+00 0. -1.
        -12    1    4    4    0    0 -0.13098888986E+02  0.24084720417E+02 -0.14613909960E+03  0.14868857079E+03  0.00000000000E+00 0.  1.
<mgrwt>
<rscale>  2 0.18409407E+03</rscale>
<asrwt>0</asrwt>
<pdfrwt beam="1">  1       21 0.18628931E-01 0.18422464E+03</pdfrwt>
<pdfrwt beam="2">  1       21 0.50828922E-01 0.18422464E+03</pdfrwt>
<totfact> 0.97313124E+04</totfact>
</mgrwt>
</event>
<event>
12    1  0.1019868E-001  0.1842765E+03  0.7546771E-02  0.1163984E+00
         21   -1    0    0  503  502  0.00000000000E+00  0.00000000000E+00  0.17418137655E+03  0.17418137655E+03  0.00000000000E+00 0.  1.
         21   -1    0    0  501  503 -0.00000000000E+00 -0.00000000000E+00 -0.23461063424E+03  0.23461063424E+03  0.00000000000E+00 0.  1.
          6    2    1    2  501    0  0.54590651855E+02 -0.25633719237E+02 -0.11538300478E+03  0.21649606224E+03  0.17297421872E+03 0.  0.
         24    2    3    3    0    0 -0.33661985551E+02 -0.32111070717E+02 -0.71327383260E+02  0.11753409036E+03  0.81008744347E+02 0.  0.
         -6    2    1    2    0  502 -0.54590651855E+02  0.25633719237E+02  0.54953747090E+02  0.19229594855E+03  0.17412808699E+03 0.  0.
        -24    2    5    5    0    0 -0.10259517822E+03  0.32139087795E+02  0.27992978398E+02  0.13665668705E+03  0.79578588320E+02 0.  0.
          5    1    3    3  501    0  0.88252637406E+02  0.64773514797E+01 -0.44055621517E+02  0.98961971881E+02  0.47000000000E+01 0. -1.
        -11    1    4    4    0    0 -0.11799113362E+02 -0.47239374036E+02 -0.86526729208E+01  0.49453475956E+02  0.00000000000E+00 0.  1.
         12    1    4    4    0    0 -0.21862872189E+02  0.15128303320E+02 -0.62674710339E+02  0.68080614405E+02  0.00000000000E+00 0. -1.
         -5    1    5    5    0  502  0.48004526362E+02 -0.65053685585E+01  0.26960768692E+02  0.55639261496E+02  0.47000000000E+01 0.  1.
         13    1    6    6    0    0 -0.57674705744E+02  0.25983376759E+02 -0.24012465545E+02  0.67661702994E+02  0.00000000000E+00 0. -1.
        -14    1    6    6    0    0 -0.44920472473E+02  0.61557110364E+01  0.52005443943E+02  0.68994984059E+02  0.00000000000E+00 0.  1.
<mgrwt>
<rscale>  2 0.18400338E+03</rscale>
<asrwt>0</asrwt>
<pdfrwt beam="1">  1       21 0.26797135E-01 0.18427647E+03</pdfrwt>
<pdfrwt beam="2">  1       21 0.36093944E-01 0.18427647E+03</pdfrwt>
<totfact> 0.98464666E+04</totfact>
</mgrwt>
</event>
<event>
12    1  0.1019868E-001  0.1745493E+03  0.7546771E-02  0.1173496E+00
         21   -1    0    0  503  502  0.00000000000E+00  0.00000000000E+00  0.14057917708E+03  0.14057917708E+03  0.00000000000E+00 0. -1.
         21   -1    0    0  501  503 -0.00000000000E+00 -0.00000000000E+00 -0.21802891740E+03  0.21802891740E+03  0.00000000000E+00 0. -1.
          6    2    1    2  501    0 -0.84502070357E+01  0.11658987344E+02 -0.59009052270E+02  0.18308735460E+03  0.17271819006E+03 0.  0.
         24    2    3    3    0    0  0.51831674928E+02  0.43866581853E+02 -0.30842980037E+02  0.10901541617E+03  0.79512716066E+02 0.  0.
         -6    2    1    2    0  502  0.84502070357E+01 -0.11658987344E+02 -0.18440688049E+02  0.17552073988E+03  0.17395439968E+03 0.  0.
        -24    2    5    5    0    0  0.53648789960E+02 -0.87535249297E+01 -0.59761759127E+02  0.11403192362E+03  0.80479779376E+02 0.  0.
          5    1    3    3  501    0 -0.60281881963E+02 -0.32207594510E+02 -0.28166072232E+02  0.74071938426E+02  0.47000000000E+01 0. -1.
        -11    1    4    4    0    0  0.65369140350E+01  0.55170452137E+02 -0.53212897802E+01  0.55810627653E+02  0.00000000000E+00 0.  1.
         12    1    4    4    0    0  0.45294760893E+02 -0.11303870284E+02 -0.25521690257E+02  0.53204788518E+02  0.00000000000E+00 0. -1.
         -5    1    5    5    0  502 -0.45198582924E+02 -0.29054624142E+01  0.41321071078E+02  0.61488816261E+02  0.47000000000E+01 0.  1.
         13    1    6    6    0    0  0.96645303736E+01  0.16593839585E+02 -0.60279249036E+02  0.63264101384E+02  0.00000000000E+00 0. -1.
        -14    1    6    6    0    0  0.43984259586E+02 -0.25347364515E+02  0.51748990861E+00  0.50767822240E+02  0.00000000000E+00 0.  1.
<mgrwt>
<rscale>  2 0.17424053E+03</rscale>
<asrwt>0</asrwt>
<pdfrwt beam="1">  1       21 0.21627566E-01 0.17454934E+03</pdfrwt>
<pdfrwt beam="2">  1       21 0.33542910E-01 0.17454934E+03</pdfrwt>
<totfact> 0.17159344E+05</totfact>
</mgrwt>
</event>
<event>
12    1  0.1019868E-001  0.2226283E+03  0.7546771E-02  0.1131960E+00
         21   -1    0    0  501  502  0.00000000000E+00  0.00000000000E+00  0.77389236306E+02  0.77389236306E+02  0.00000000000E+00 0. -1.
         21   -1    0    0  502  503 -0.00000000000E+00 -0.00000000000E+00 -0.74269263817E+03  0.74269263817E+03  0.00000000000E+00 0.  1.
         -6    2    1    2    0  503 -0.11511126285E+03 -0.79365070394E+02 -0.48496733308E+03  0.53357803079E+03  0.17309761279E+03 0.  0.
        -24    2    3    3    0    0 -0.31210074051E+02  0.24165505643E+02 -0.18441167002E+03  0.20477142159E+03  0.79784902550E+02 0.  0.
          6    2    1    2  501    0  0.11511126285E+03  0.79365070394E+02 -0.18033606879E+03  0.28650384369E+03  0.17324531021E+03 0.  0.
         24    2    5    5    0    0  0.14973695340E+03  0.78995115893E+02 -0.17121635483E+03  0.25038827232E+03  0.68686703276E+02 0.  0.
          5    1    5    5  501    0 -0.34625690553E+02  0.36995450048E+00 -0.91197139652E+01  0.36115571370E+02  0.47000000000E+01 0. -1.
        -13    1    6    6    0    0  0.11787752487E+03  0.67036753389E+02 -0.16844336283E+03  0.21624570205E+03  0.00000000000E+00 0.  1.
         14    1    6    6    0    0  0.31859428533E+02  0.11958362505E+02 -0.27729920000E+01  0.34142570273E+02  0.00000000000E+00 0. -1.
         -5    1    3    3    0  503 -0.83901188801E+02 -0.10353057604E+03 -0.30055566305E+03  0.32880660920E+03  0.47000000000E+01 0.  1.
         13    1    4    4    0    0 -0.56799415446E+01  0.20127076034E+02 -0.25338480426E+01  0.21066117619E+02  0.00000000000E+00 0. -1.
        -14    1    4    4    0    0 -0.25530132506E+02  0.40384296086E+01 -0.18187782198E+03  0.18370530397E+03  0.00000000000E+00 0.  1.
<mgrwt>
<rscale>  2 0.22259955E+03</rscale>
<asrwt>0</asrwt>
<pdfrwt beam="1">  1       21 0.11906037E-01 0.22262829E+03</pdfrwt>
<pdfrwt beam="2">  1       21 0.11426040E+00 0.22262829E+03</pdfrwt>
<totfact> 0.34865438E+04</totfact>
</mgrwt>
</event>
<event>
12    1  0.1019868E-001  0.2714477E+03  0.7546771E-02  0.1100478E+00
         21   -1    0    0  501  502  0.00000000000E+00  0.00000000000E+00  0.11076351095E+04  0.11076351095E+04  0.00000000000E+00 0. -1.
         21   -1    0    0  502  503 -0.00000000000E+00 -0.00000000000E+00 -0.66536971138E+02  0.66536971138E+02  0.00000000000E+00 0.  1.
         -6    2    1    2    0  503  0.10918599516E+03  0.17837669308E+03  0.53751368382E+03  0.60216676449E+03  0.17304342169E+03 0.  0.
        -24    2    3    3    0    0  0.10150590635E+02  0.13888804159E+03  0.37073315217E+03  0.40416373248E+03  0.80699008363E+02 0.  0.
          6    2    1    2  501    0 -0.10918599516E+03 -0.17837669308E+03  0.50358445456E+03  0.57200531617E+03  0.17278007024E+03 0.  0.
         24    2    5    5    0    0  0.13339540100E+02 -0.79544673759E+02  0.21630010621E+03  0.24438562561E+03  0.80207852500E+02 0.  0.
          5    1    5    5  501    0 -0.12252553526E+03 -0.98832019322E+02  0.28728434835E+03  0.32761969056E+03  0.47000000000E+01 0. -1.
        -11    1    6    6    0    0 -0.88930804068E+01 -0.55839356406E+02  0.51727034099E+02  0.76634239473E+02  0.00000000000E+00 0.  1.
         12    1    6    6    0    0  0.22232620507E+02 -0.23705317354E+02  0.16457307211E+03  0.16775138613E+03  0.00000000000E+00 0. -1.
         -5    1    3    3    0  503  0.99035404529E+02  0.39488651491E+02  0.16678053165E+03  0.19800303201E+03  0.47000000000E+01 0.  1.
         11    1    4    4    0    0  0.10107204948E+02  0.48782952754E+02  0.24171725709E+03  0.24679782099E+03  0.00000000000E+00 0. -1.
        -12    1    4    4    0    0  0.43385686849E-01  0.90105088836E+02  0.12901589508E+03  0.15736591149E+03  0.00000000000E+00 0.  1.
<mgrwt>
<rscale>  2 0.27140574E+03</rscale>
<asrwt>0</asrwt>
<pdfrwt beam="1">  1       21 0.17040539E+00 0.27144770E+03</pdfrwt>
<pdfrwt beam="2">  1       21 0.10236458E-01 0.27144770E+03</pdfrwt>
<totfact> 0.15699948E+04</totfact>
</mgrwt>
</event>
<event>
12    1  0.1019868E-001  0.3366918E+03  0.7546771E-02  0.1068223E+00
         21   -1    0    0  503  502  0.00000000000E+00  0.00000000000E+00  0.34071112385E+03  0.34071112385E+03  0.00000000000E+00 0.  1.
         21   -1    0    0  501  503 -0.00000000000E+00 -0.00000000000E+00 -0.67679265244E+03  0.67679265244E+03  0.00000000000E+00 0.  1.
          6    2    1    2  501    0 -0.15003107230E+03 -0.24629189723E+03 -0.53084483738E+03  0.62861563096E+03  0.17375945676E+03 0.  0.
         24    2    3    3    0    0 -0.13026929049E+03 -0.25795768749E+03 -0.52505860225E+03  0.60448703382E+03  0.78776783886E+02 0.  0.
         -6    2    1    2    0  502  0.15003107230E+03  0.24629189723E+03  0.19476330879E+03  0.38888814532E+03  0.17358635265E+03 0.  0.
        -24    2    5    5    0    0  0.11893564325E+03  0.90317725488E+02  0.14545294131E+03  0.22230942430E+03  0.77213620706E+02 0.  0.
          5    1    3    3  501    0 -0.19761781812E+02  0.11665790265E+02 -0.57862351339E+01  0.24128597139E+02  0.47000000000E+01 0. -1.
        -13    1    4    4    0    0 -0.76654766954E+02 -0.79360172246E+02 -0.15708262294E+03  0.19196077898E+03  0.00000000000E+00 0.  1.
         14    1    4    4    0    0 -0.53614523533E+02 -0.17859751525E+03 -0.36797597931E+03  0.41252625484E+03  0.00000000000E+00 0. -1.
         -5    1    5    5    0  502  0.31095429048E+02  0.15597417174E+03  0.49310367483E+02  0.16657872103E+03  0.47000000000E+01 0.  1.
         13    1    6    6    0    0  0.79999792111E+02  0.41274180710E+02  0.12945650189E+03  0.15767850397E+03  0.00000000000E+00 0. -1.
        -14    1    6    6    0    0  0.38935851140E+02  0.49043544778E+02  0.15996439415E+02  0.64630920327E+02  0.00000000000E+00 0.  1.
<mgrwt>
<rscale>  2 0.33666947E+03</rscale>
<asrwt>0</asrwt>
<pdfrwt beam="1">  1       21 0.52417096E-01 0.33669180E+03</pdfrwt>
<pdfrwt beam="2">  1       21 0.10412195E+00 0.33669180E+03</pdfrwt>
<totfact> 0.23352756E+03</totfact>
</mgrwt>
</event>
<event>
12    1  0.1019868E-001  0.1854019E+03  0.7546771E-02  0.1163510E+00
         21   -1    0    0  503  502  0.00000000000E+00  0.00000000000E+00  0.12686643566E+03  0.12686643566E+03  0.00000000000E+00 0.  1.
         21   -1    0    0  501  503 -0.00000000000E+00 -0.00000000000E+00 -0.53188052060E+03  0.53188052060E+03  0.00000000000E+00 0.  1.
          6    2    1    2  501    0  0.41157010262E+02  0.48563953205E+02 -0.43645166451E+03  0.47419820098E+03  0.17413075924E+03 0.  0.
         24    2    3    3    0    0  0.84761346307E+02  0.48743507798E+02 -0.38832615099E+03  0.40908656290E+03  0.83631339947E+02 0.  0.
         -6    2    1    2    0  502 -0.41157010262E+02 -0.48563953205E+02  0.31437579573E+02  0.18454875528E+03  0.17034542736E+03 0.  0.
        -24    2    5    5    0    0 -0.46539465019E+02  0.31741343906E+02  0.20401572986E+02  0.10317434281E+03  0.83995750588E+02 0.  0.
          5    1    3    3  501    0 -0.43604336045E+02 -0.17955459284E+00 -0.48125513521E+02  0.65111638080E+02  0.47000000000E+01 0. -1.
        -11    1    4    4    0    0 -0.10966790252E+02  0.28555570433E+02 -0.10356803934E+03  0.10799087861E+03  0.00000000000E+00 0.  1.
         12    1    4    4    0    0  0.95728136559E+02  0.20187937365E+02 -0.28475811165E+03  0.30109568429E+03  0.00000000000E+00 0. -1.
         -5    1    5    5    0  502  0.53824547566E+01 -0.80305297111E+02  0.11036006587E+02  0.81374412469E+02  0.47000000000E+01 0.  1.
         13    1    6    6    0    0 -0.93391845585E+01 -0.37610982362E+01 -0.29711991472E+02  0.31371462596E+02  0.00000000000E+00 0. -1.
        -14    1    6    6    0    0 -0.37200280461E+02  0.35502442142E+02  0.50113564458E+02  0.71802880215E+02  0.00000000000E+00 0.  1.
<mgrwt>
<rscale>  2 0.18450785E+03</rscale>
<asrwt>0</asrwt>
<pdfrwt beam="1">  1       21 0.19517914E-01 0.18540194E+03</pdfrwt>
<pdfrwt beam="2">  1       21 0.81827770E-01 0.18540194E+03</pdfrwt>
<totfact> 0.31692825E+04</totfact>
</mgrwt>
</event>
<event>
12    1  0.1019868E-001  0.1983156E+03  0.7546771E-02  0.1151288E+00
         21   -1    0    0  501  502  0.00000000000E+00  0.00000000000E+00  0.50245158982E+03  0.50245158982E+03  0.00000000000E+00 0. -1.
         21   -1    0    0  502  503 -0.00000000000E+00 -0.00000000000E+00 -0.93573575694E+02  0.93573575694E+02  0.00000000000E+00 0. -1.
         -6    2    1    2    0  503  0.43625023835E+02 -0.86936030640E+02  0.32605537702E+03  0.38162963524E+03  0.17282376423E+03 0.  0.
        -24    2    3    3    0    0  0.84296966021E+02 -0.32743832661E+02  0.26172170470E+03  0.28807797787E+03  0.79451454131E+02 0.  0.
          6    2    1    2  501    0 -0.43625023835E+02  0.86936030640E+02  0.82822637105E+02  0.21439553027E+03  0.17217676398E+03 0.  0.
         24    2    5    5    0    0 -0.22612692352E+02 -0.17029505406E+02  0.61699528422E+02  0.10614292531E+03  0.81597493080E+02 0.  0.
          5    1    5    5  501    0 -0.21012331483E+02  0.10396553605E+03  0.21123108684E+02  0.10825260496E+03  0.47000000000E+01 0. -1.
        -11    1    6    6    0    0  0.97228383528E+01  0.17180198524E+02  0.55199305635E+02  0.58623000175E+02  0.00000000000E+00 0.  1.
         12    1    6    6    0    0 -0.32335530705E+02 -0.34209703930E+02  0.65002227868E+01  0.47519925139E+02  0.00000000000E+00 0. -1.
         -5    1    3    3    0  503 -0.40671942186E+02 -0.54192197980E+02  0.64333672318E+02  0.93551657371E+02  0.47000000000E+01 0.  1.
         11    1    4    4    0    0  0.17060804625E+02  0.25944121380E+02  0.63059335917E+02  0.70289745589E+02  0.00000000000E+00 0. -1.
        -12    1    4    4    0    0  0.67236161396E+02 -0.58687954041E+02  0.19866236878E+03  0.21778823228E+03  0.00000000000E+00 0.  1.
<mgrwt>
<rscale>  2 0.19817454E+03</rscale>
<asrwt>0</asrwt>
<pdfrwt beam="1">  1       21 0.77300243E-01 0.19831558E+03</pdfrwt>
<pdfrwt beam="2">  1       21 0.14395935E-01 0.19831558E+03</pdfrwt>
<totfact> 0.62646299E+04</totfact>
</mgrwt>
</event>
<event>
12    1  0.1019868E-001  0.1780027E+03  0.7546771E-02  0.1169930E+00
         21   -1    0    0  503  502  0.00000000000E+00  0.00000000000E+00  0.11789120891E+03  0.11789120891E+03  0.00000000000E+00 0.  1.
         21   -1    0    0  501  503 -0.00000000000E+00 -0.00000000000E+00 -0.32722950412E+03  0.32722950412E+03  0.00000000000E+00 0.  1.
          6    2    1    2  501    0  0.16655661906E+02  0.31359721758E+02 -0.19945149665E+03  0.26684365539E+03  0.17367726875E+03 0.  0.
         24    2    3    3    0    0 -0.98704997476E+01  0.82046015434E+02 -0.96829874052E+02  0.14925953638E+03  0.77932081176E+02 0.  0.
         -6    2    1    2    0  502 -0.16655661906E+02 -0.31359721758E+02 -0.98867985504E+01  0.17827705764E+03  0.17442510506E+03 0.  0.
        -24    2    5    5    0    0  0.51707936504E+02 -0.43930987493E+02  0.10474479226E+02  0.10569407105E+03  0.80360933174E+02 0.  0.
          5    1    3    3  501    0  0.26526161654E+02 -0.50686293675E+02 -0.10262162260E+03  0.11758411901E+03  0.47000000000E+01 0. -1.
        -13    1    4    4    0    0  0.20067067766E+02  0.14725049145E+02 -0.63864724692E+02  0.68543543394E+02  0.00000000000E+00 0.  1.
         14    1    4    4    0    0 -0.29937567514E+02  0.67320966289E+02 -0.32965149360E+02  0.80715992982E+02  0.00000000000E+00 0. -1.
         -5    1    5    5    0  502 -0.68363598411E+02  0.12571265734E+02 -0.20361277777E+02  0.72582986592E+02  0.47000000000E+01 0.  1.
         13    1    6    6    0    0  0.37384222813E+02 -0.28324323116E+02 -0.32989687732E+02  0.57342539986E+02  0.00000000000E+00 0. -1.
        -14    1    6    6    0    0  0.14323713691E+02 -0.15606664377E+02  0.43464166959E+02  0.48351531065E+02  0.00000000000E+00 0.  1.
<mgrwt>
<rscale>  2 0.17781923E+03</rscale>
<asrwt>0</asrwt>
<pdfrwt beam="1">  1       21 0.18137109E-01 0.17800270E+03</pdfrwt>
<pdfrwt beam="2">  1       21 0.50343000E-01 0.17800270E+03</pdfrwt>
<totfact> 0.10456755E+05</totfact>
</mgrwt>
</event>
<event>
12    1  0.1019868E-001  0.2089129E+03  0.7546771E-02  0.1142464E+00
         21   -1    0    0  503  502  0.00000000000E+00  0.00000000000E+00  0.25872911935E+03  0.25872911935E+03  0.00000000000E+00 0. -1.
         21   -1    0    0  501  503 -0.00000000000E+00 -0.00000000000E+00 -0.39802162987E+03  0.39802162987E+03  0.00000000000E+00 0. -1.
          6    2    1    2  501    0 -0.48277145308E+02  0.10736261987E+03 -0.31899232239E+03  0.38131442084E+03  0.17258960250E+03 0.  0.
         24    2    3    3    0    0 -0.73546627659E+02  0.11601471903E+03 -0.18461481424E+03  0.24422754964E+03  0.81828753479E+02 0.  0.
         -6    2    1    2    0  502  0.48277145308E+02 -0.10736261987E+03  0.17969981187E+03  0.27543632837E+03  0.17238252143E+03 0.  0.
        -24    2    5    5    0    0  0.77460333401E+02 -0.87582858284E+02  0.19096052436E+03  0.23812961206E+03  0.81048935588E+02 0.  0.
          5    1    3    3  501    0  0.25269482351E+02 -0.86520991563E+01 -0.13437750815E+03  0.13708687120E+03  0.47000000000E+01 0. -1.
        -11    1    4    4    0    0 -0.40131155566E+02  0.19378161358E+01 -0.36228560456E+02  0.54099661470E+02  0.00000000000E+00 0.  1.
         12    1    4    4    0    0 -0.33415472093E+02  0.11407690289E+03 -0.14838625378E+03  0.19012788817E+03  0.00000000000E+00 0. -1.
         -5    1    5    5    0  502 -0.29183188093E+02 -0.19779761587E+02 -0.11260712493E+02  0.37306716307E+02  0.47000000000E+01 0.  1.
         11    1    6    6    0    0  0.86000821969E+01 -0.69897882394E+02  0.10721569101E+03  0.12827657532E+03  0.00000000000E+00 0. -1.
        -12    1    6    6    0    0  0.68860251204E+02 -0.17684975890E+02  0.83744833351E+02  0.10985303674E+03  0.00000000000E+00 0.  1.
<mgrwt>
<rscale>  2 0.20887009E+03</rscale>
<asrwt>0</asrwt>
<pdfrwt beam="1">  1       21 0.39804480E-01 0.20891287E+03</pdfrwt>
<pdfrwt beam="2">  1       21 0.61234096E-01 0.20891287E+03</pdfrwt>
<totfact> 0.14933608E+04</totfact>
</mgrwt>
</event>
<event>
12    1  0.1019868E-001  0.2259596E+03  0.7546771E-02  0.1129589E+00
         21   -1    0    0  503  502  0.00000000000E+00  0.00000000000E+00  0.24372351026E+03  0.24372351026E+03  0.00000000000E+00 0. -1.
         21   -1    0    0  501  503 -0.00000000000E+00 -0.00000000000E+00 -0.26066174745E+03  0.26066174745E+03  0.00000000000E+00 0. -1.
          6    2    1    2  501    0  0.95092452448E+02 -0.10895712877E+03 -0.12062423309E+03  0.25614044462E+03  0.17361881045E+03 0.  0.
         24    2    3    3    0    0  0.59181482403E+02 -0.51939278844E+02 -0.14515583248E+03  0.18427583338E+03  0.81775488500E+02 0.  0.
         -6    2    1    2    0  502 -0.95092452448E+02  0.10895712877E+03  0.10368599590E+03  0.24824481309E+03  0.17309093292E+03 0.  0.
        -24    2    5    5    0    0 -0.60808129380E+00  0.37672741806E+02  0.93053785198E+02  0.12931670825E+03  0.81511955283E+02 0.  0.
          5    1    3    3  501    0  0.35910970045E+02 -0.57017849928E+02  0.24531599391E+02  0.71864611240E+02  0.47000000000E+01 0. -1.
        -13    1    4    4    0    0  0.46204925143E+02  0.71270749754E+01 -0.94327009610E+02  0.10527713449E+03  0.00000000000E+00 0.  1.
         14    1    4    4    0    0  0.12976557260E+02 -0.59066353819E+02 -0.50828822873E+02  0.78998698891E+02  0.00000000000E+00 0. -1.
         -5    1    5    5    0  502 -0.94484371155E+02  0.71284386967E+02  0.10632210700E+02  0.11892810485E+03  0.47000000000E+01 0.  1.
         13    1    6    6    0    0 -0.29580157519E+02  0.48233989930E+02  0.73678751263E+02  0.92898126414E+02  0.00000000000E+00 0. -1.
        -14    1    6    6    0    0  0.28972076225E+02 -0.10561248125E+02  0.19375033934E+02  0.36418581833E+02  0.00000000000E+00 0.  1.
<mgrwt>
<rscale>  2 0.22585815E+03</rscale>
<asrwt>0</asrwt>
<pdfrwt beam="1">  1       21 0.37495925E-01 0.22595956E+03</pdfrwt>
<pdfrwt beam="2">  1       21 0.40101807E-01 0.22595956E+03</pdfrwt>
<totfact> 0.40440042E+04</totfact>
</mgrwt>
</event>
<event>
12    1  0.1019868E-001  0.2282649E+03  0.7546771E-02  0.1127961E+00
         21   -1    0    0  503  502  0.00000000000E+00  0.00000000000E+00  0.33499619547E+03  0.33499619547E+03  0.00000000000E+00 0. -1.
         21   -1    0    0  501  503 -0.00000000000E+00 -0.00000000000E+00 -0.93730230420E+03  0.93730230420E+03  0.00000000000E+00 0. -1.
          6    2    1    2  501    0 -0.89476497429E+02 -0.11872155237E+03 -0.88231922628E+03  0.91136823701E+03  0.17321661518E+03 0.  0.
         24    2    3    3    0    0 -0.11936915746E+03 -0.10463316990E+03 -0.83143287222E+03  0.85051131732E+03  0.83016768750E+02 0.  0.
         -6    2    1    2    0  502  0.89476497429E+02  0.11872155237E+03  0.28001311756E+03  0.36093026266E+03  0.17251799300E+03 0.  0.
        -24    2    5    5    0    0 -0.16187954586E+02  0.61853664816E+02  0.90940592509E+02  0.13694489978E+03  0.79973673706E+02 0.  0.
          5    1    3    3  501    0  0.29892660026E+02 -0.14088382463E+02 -0.50886354068E+02  0.60856919690E+02  0.47000000000E+01 0. -1.
        -11    1    4    4    0    0 -0.42216601143E+02 -0.61198402640E+02 -0.20935622908E+03  0.22216551612E+03  0.00000000000E+00 0.  1.
         12    1    4    4    0    0 -0.77152556312E+02 -0.43434767263E+02 -0.62207664313E+03  0.62834580120E+03  0.00000000000E+00 0. -1.
         -5    1    5    5    0  502  0.10566445202E+03  0.56867887550E+02  0.18907252505E+03  0.22398536288E+03  0.47000000000E+01 0.  1.
         13    1    6    6    0    0 -0.16439252663E+02  0.64423184757E+02  0.25121529791E+02  0.71075220867E+02  0.00000000000E+00 0. -1.
        -14    1    6    6    0    0  0.25129807617E+00 -0.25695199404E+01  0.65819062718E+02  0.65869678916E+02  0.00000000000E+00 0.  1.
<mgrwt>
<rscale>  2 0.22813232E+03</rscale>
<asrwt>0</asrwt>
<pdfrwt beam="1">  1       21 0.51537878E-01 0.22826486E+03</pdfrwt>
<pdfrwt beam="2">  1       21 0.14420035E+00 0.22826486E+03</pdfrwt>
<totfact> 0.11454605E+03</totfact>
</mgrwt>
</event>
<event>
12    1  0.1019868E-001  0.1938504E+03  0.7546771E-02  0.1155206E+00
         21   -1    0    0  501  502  0.00000000000E+00  0.00000000000E+00  0.70620612928E+03  0.70620612928E+03  0.00000000000E+00 0. -1.
         21   -1    0    0  502  503 -0.00000000000E+00 -0.00000000000E+00 -0.25513390720E+03  0.25513390720E+03  0.00000000000E+00 0. -1.
         -6    2    1    2    0  503  0.83285024203E+00 -0.85829735224E+02 -0.20240290189E+03  0.27971865987E+03  0.17293974932E+03 0.  0.
        -24    2    3    3    0    0  0.10648704971E+02 -0.63571414757E+02 -0.33280930098E+02  0.10879143799E+03  0.81075501731E+02 0.  0.
          6    2    1    2  501    0 -0.83285024203E+00  0.85829735224E+02  0.65347512398E+03  0.68162137661E+03  0.17381175537E+03 0.  0.
         24    2    5    5    0    0 -0.52952387121E+02  0.18581710399E+02  0.34743797131E+03  0.36394296724E+03  0.92693604050E+02 0.  0.
          5    1    5    5  501    0  0.52119536879E+02  0.67248024825E+02  0.30603715267E+03  0.31767840937E+03  0.47000000000E+01 0. -1.
        -11    1    6    6    0    0 -0.69010215592E+01 -0.32818083932E+02  0.64348405003E+02  0.72562855222E+02  0.00000000000E+00 0.  1.
         12    1    6    6    0    0 -0.46051365562E+02  0.51399794331E+02  0.28308956631E+03  0.29138011202E+03  0.00000000000E+00 0. -1.
         -5    1    3    3    0  503 -0.98158547294E+01 -0.22258320467E+02 -0.16912197179E+03  0.17092722187E+03  0.47000000000E+01 0.  1.
         13    1    4    4    0    0  0.22203844664E+02 -0.47130127138E+02 -0.57320314608E+02  0.77458879856E+02  0.00000000000E+00 0. -1.
        -14    1    4    4    0    0 -0.11555139693E+02 -0.16441287619E+02  0.24039384509E+02  0.31332558138E+02  0.00000000000E+00 0.  1.
<mgrwt>
<rscale>  2 0.19365470E+03</rscale>
<asrwt>0</asrwt>
<pdfrwt beam="1">  1       21 0.10864710E+00 0.19385036E+03</pdfrwt>
<pdfrwt beam="2">  1       21 0.39251371E-01 0.19385036E+03</pdfrwt>
<totfact> 0.42070490E+03</totfact>
</mgrwt>
</event>
<event>
12    1  0.1019868E-001  0.1745315E+03  0.7546771E-02  0.1174265E+00
         21   -1    0    0  503  502  0.00000000000E+00  0.00000000000E+00  0.70613790221E+02  0.70613790221E+02  0.00000000000E+00 0. -1.
         21   -1    0    0  501  503 -0.00000000000E+00 -0.00000000000E+00 -0.67680304323E+03  0.67680304323E+03  0.00000000000E+00 0. -1.
          6    2    1    2  501    0 -0.36304223409E+02  0.39800131759E+01 -0.53048943180E+03  0.55717567790E+03  0.16640871867E+03 0.  0.
         24    2    3    3    0    0 -0.83879661784E+01 -0.14959779293E+02 -0.50977762325E+03  0.51731213353E+03  0.86281315214E+02 0.  0.
         -6    2    1    2    0  502  0.36304223409E+02 -0.39800131759E+01 -0.75699821210E+02  0.19024115555E+03  0.17066750479E+03 0.  0.
        -24    2    5    5    0    0  0.19153735586E+02 -0.66609447276E+02 -0.33670498301E+02  0.11274832213E+03  0.82309158864E+02 0.  0.
          5    1    3    3  501    0 -0.27916257230E+02  0.18939792468E+02 -0.20711808548E+02  0.39863544371E+02  0.47000000000E+01 0. -1.
        -11    1    4    4    0    0  0.92900082953E+01  0.21396788967E+02 -0.44155342601E+02  0.49938172898E+02  0.00000000000E+00 0.  1.
         12    1    4    4    0    0 -0.17677974474E+02 -0.36356568259E+02 -0.46562228065E+03  0.46737396063E+03  0.00000000000E+00 0. -1.
         -5    1    5    5    0  502  0.17150487822E+02  0.62629434100E+02 -0.42029322909E+02  0.77492833426E+02  0.47000000000E+01 0.  1.
         11    1    6    6    0    0 -0.38091830185E+01 -0.55166976716E+01  0.24451502082E+02  0.25353890875E+02  0.00000000000E+00 0. -1.
        -12    1    6    6    0    0  0.22962918605E+02 -0.61092749604E+02 -0.58122000382E+02  0.87394431250E+02  0.00000000000E+00 0.  1.
<mgrwt>
<rscale>  2 0.17348149E+03</rscale>
<asrwt>0</asrwt>
<pdfrwt beam="1">  1       21 0.10863660E-01 0.17453147E+03</pdfrwt>
<pdfrwt beam="2">  1       21 0.10412354E+00 0.17453147E+03</pdfrwt>
<totfact> 0.52711202E+04</totfact>
</mgrwt>
</event>
<event>
12    1  0.1019868E-001  0.1740903E+03  0.7546771E-02  0.1173708E+00
         21   -1    0    0  501  502  0.00000000000E+00  0.00000000000E+00  0.36274306756E+03  0.36274306756E+03  0.00000000000E+00 0.  1.
         21   -1    0    0  502  503 -0.00000000000E+00 -0.00000000000E+00 -0.32029930716E+03  0.32029930716E+03  0.00000000000E+00 0.  1.
         -6    2    1    2    0  503  0.78576941147E+01  0.18314549830E+02 -0.27246315570E+03  0.32333204296E+03  0.17294586639E+03 0.  0.
        -24    2    3    3    0    0 -0.13132293421E+01 -0.40478787163E+02 -0.76366351625E+02  0.11835202228E+03  0.80840118352E+02 0.  0.
          6    2    1    2  501    0 -0.78576941147E+01 -0.18314549830E+02  0.31490691610E+03  0.35971033175E+03  0.17270781935E+03 0.  0.
         24    2    5    5    0    0 -0.63757423204E+02 -0.27899311198E+02  0.25510644633E+03  0.27715832664E+03  0.83030467221E+02 0.  0.
          5    1    5    5  501    0  0.55899729090E+02  0.95847613676E+01  0.59800469775E+02  0.82552005113E+02  0.47000000000E+01 0. -1.
        -13    1    6    6    0    0 -0.58705347634E+02 -0.44271319889E+02  0.24789370391E+03  0.25856828120E+03  0.00000000000E+00 0.  1.
         14    1    6    6    0    0 -0.50520755705E+01  0.16372008691E+02  0.72127424210E+01  0.18590045438E+02  0.00000000000E+00 0. -1.
         -5    1    3    3    0  503  0.91709234567E+01  0.58793336993E+02 -0.19609680408E+03  0.20498002069E+03  0.47000000000E+01 0.  1.
         11    1    4    4    0    0 -0.20388608589E+02 -0.66269719396E+01  0.99934774213E+01  0.23653365686E+02  0.00000000000E+00 0. -1.
        -12    1    4    4    0    0  0.19075379247E+02 -0.33851815223E+02 -0.86359829046E+02  0.94698656591E+02  0.00000000000E+00 0.  1.
<mgrwt>
<rscale>  2 0.17403117E+03</rscale>
<asrwt>0</asrwt>
<pdfrwt beam="1">  1       21 0.55806626E-01 0.17409032E+03</pdfrwt>
<pdfrwt beam="2">  1       21 0.49276816E-01 0.17409032E+03</pdfrwt>
<totfact> 0.12029697E+04</totfact>
</mgrwt>
</event>
<event>
12    1  0.1019868E-001  0.2443424E+03  0.7546771E-02  0.1117055E+00
         21   -1    0    0  501  502  0.00000000000E+00  0.00000000000E+00  0.12647376620E+04  0.12647376620E+04  0.00000000000E+00 0. -1.
         21   -1    0    0  502  503 -0.00000000000E+00 -0.00000000000E+00 -0.48639664608E+02  0.48639664608E+02  0.00000000000E+00 0. -1.
         -6    2    1    2    0  503  0.94341541407E+02 -0.14431350825E+03  0.48888142030E+03  0.54620904505E+03  0.17208301101E+03 0.  0.
        -24    2    3    3    0    0  0.70374266361E+02 -0.12294416643E+03  0.48832661764E+03  0.51375173695E+03  0.73553764712E+02 0.  0.
          6    2    1    2  501    0 -0.94341541407E+02  0.14431350825E+03  0.72721657711E+03  0.76716828158E+03  0.17313724943E+03 0.  0.
         24    2    5    5    0    0 -0.10816455008E+03  0.44022585076E+02  0.46259076541E+03  0.48379881418E+03  0.80209216823E+02 0.  0.
          5    1    5    5  501    0  0.13823008675E+02  0.10029092317E+03  0.26462581170E+03  0.28336946741E+03  0.47000000000E+01 0. -1.
        -13    1    6    6    0    0 -0.18955746131E+02 -0.38367819973E+01  0.22113335359E+03  0.22197747921E+03  0.00000000000E+00 0.  1.
         14    1    6    6    0    0 -0.89208803952E+02  0.47859367073E+02  0.24145741183E+03  0.26182133497E+03  0.00000000000E+00 0. -1.
         -5    1    3    3    0  503  0.23967275046E+02 -0.21369341816E+02  0.55480266393E+00  0.32457308095E+02  0.47000000000E+01 0.  1.
         11    1    4    4    0    0  0.14690506508E+02 -0.51700559171E+02  0.86194831553E+02  0.10157907160E+03  0.00000000000E+00 0. -1.
        -12    1    4    4    0    0  0.55683759853E+02 -0.71243607259E+02  0.40213178608E+03  0.41217266535E+03  0.00000000000E+00 0.  1.
<mgrwt>
<rscale>  2 0.24415574E+03</rscale>
<asrwt>0</asrwt>
<pdfrwt beam="1">  1       21 0.19457500E+00 0.24434243E+03</pdfrwt>
<pdfrwt beam="2">  1       21 0.74830263E-02 0.24434243E+03</pdfrwt>
<totfact> 0.18929349E+04</totfact>
</mgrwt>
</event>
<event>
12    1  0.1019868E-001  0.1852640E+03  0.7546771E-02  0.1162939E+00
         21   -1    0    0  503  502  0.00000000000E+00  0.00000000000E+00  0.73037568185E+03  0.73037568185E+03  0.00000000000E+00 0.  1.
         21   -1    0    0  501  503 -0.00000000000E+00 -0.00000000000E+00 -0.64729905830E+02  0.64729905830E+02  0.00000000000E+00 0.  1.
          6    2    1    2  501    0 -0.86441094662E+01 -0.64396631246E+02  0.12348557959E+03  0.22216541643E+03  0.17287896676E+03 0.  0.
         24    2    3    3    0    0  0.54874689226E+02 -0.47797916962E+02  0.11027367608E+03  0.15503271577E+03  0.81110954508E+02 0.  0.
         -6    2    1    2    0  502  0.86441094662E+01  0.64396631246E+02  0.54216019643E+03  0.57294017125E+03  0.17349672761E+03 0.  0.
        -24    2    5    5    0    0 -0.56615800905E+01  0.85604865668E+02  0.21969463889E+03  0.24942731561E+03  0.81166525748E+02 0.  0.
          5    1    3    3  501    0 -0.63518798692E+02 -0.16598714284E+02  0.13211903515E+02  0.67132700658E+02  0.47000000000E+01 0. -1.
        -11    1    4    4    0    0  0.24788144628E+02  0.17046487930E+02  0.96334247888E+01  0.31588569736E+02  0.00000000000E+00 0.  1.
         12    1    4    4    0    0  0.30086544598E+02 -0.64844404892E+02  0.10064025129E+03  0.12344414604E+03  0.00000000000E+00 0. -1.
         -5    1    5    5    0  502  0.14305689557E+02 -0.21208234422E+02  0.32246555755E+03  0.32351285564E+03  0.47000000000E+01 0.  1.
         11    1    6    6    0    0  0.20976398366E+02  0.19948694343E+02  0.14564524834E+02  0.32405016248E+02  0.00000000000E+00 0. -1.
        -12    1    6    6    0    0 -0.26637978457E+02  0.65656171325E+02  0.20513011405E+03  0.21702229936E+03  0.00000000000E+00 0.  1.
<mgrwt>
<rscale>  2 0.18511926E+03</rscale>
<asrwt>0</asrwt>
<pdfrwt beam="1">  1       21 0.11236548E+00 0.18526403E+03</pdfrwt>
<pdfrwt beam="2">  1       21 0.99584476E-02 0.18526403E+03</pdfrwt>
<totfact> 0.50893345E+04</totfact>
</mgrwt>
</event>
<event>
12    1  0.1019868E-001  0.1919226E+03  0.7546771E-02  0.1157190E+00
         21   -1    0    0  503  502  0.00000000000E+00  0.00000000000E+00  0.27810004373E+03  0.27810004373E+03  0.00000000000E+00 0.  1.
         21   -1    0    0  501  503 -0.00000000000E+00 -0.00000000000E+00 -0.18731057551E+03  0.18731057551E+03  0.00000000000E+00 0.  1.
          6    2    1    2  501    0 -0.82061838584E+02 -0.10179604370E+01 -0.82293879477E+02  0.20696888976E+03  0.17125611561E+03 0.  0.
         24    2    3    3    0    0 -0.38169313864E+01 -0.51840786202E+02 -0.48539444618E+02  0.10763774160E+03  0.80794614021E+02 0.  0.
         -6    2    1    2    0  502  0.82061838584E+02  0.10179604370E+01  0.17308334771E+03  0.25844172948E+03  0.17349092394E+03 0.  0.
        -24    2    5    5    0    0  0.10033831182E+03 -0.20046712035E+02  0.64503228195E+02  0.14623886742E+03  0.82191802605E+02 0.  0.
          5    1    3    3  501    0 -0.78244907198E+02  0.50822825765E+02 -0.33754434859E+02  0.99331148155E+02  0.47000000000E+01 0. -1.
        -13    1    4    4    0    0 -0.29850290651E+02 -0.58935926852E+02 -0.46071266965E+02  0.80542193698E+02  0.00000000000E+00 0.  1.
         14    1    4    4    0    0  0.26033359265E+02  0.70951406505E+01 -0.24681776529E+01  0.27095547907E+02  0.00000000000E+00 0. -1.
         -5    1    5    5    0  502 -0.18276473237E+02  0.21064672472E+02  0.10858011951E+03  0.11220286205E+03  0.47000000000E+01 0.  1.
         13    1    6    6    0    0 -0.10909020717E+02 -0.16633732552E+02  0.11289485926E+02  0.22872260143E+02  0.00000000000E+00 0. -1.
        -14    1    6    6    0    0  0.11124733254E+03 -0.34129794831E+01  0.53213742269E+02  0.12336660728E+03  0.00000000000E+00 0.  1.
<mgrwt>
<rscale>  2 0.19141615E+03</rscale>
<asrwt>0</asrwt>
<pdfrwt beam="1">  1       21 0.42784622E-01 0.19192259E+03</pdfrwt>
<pdfrwt beam="2">  1       21 0.28817012E-01 0.19192259E+03</pdfrwt>
<totfact> 0.60570691E+04</totfact>
</mgrwt>
</event>
<event>
12    1  0.1019868E-001  0.1976681E+03  0.7546771E-02  0.1152147E+00
         21   -1    0    0  503  502  0.00000000000E+00  0.00000000000E+00  0.69109895495E+02  0.69109895495E+02  0.00000000000E+00 0. -1.
         21   -1    0    0  501  503 -0.00000000000E+00 -0.00000000000E+00 -0.87265351968E+03  0.87265351968E+03  0.00000000000E+00 0.  1.
          6    2    1    2  501    0 -0.87092545725E+02 -0.30587634959E+02 -0.12109620634E+03  0.23181234868E+03  0.17479118650E+03 0.  0.
         24    2    3    3    0    0 -0.16262666234E+02 -0.48930635182E+02 -0.47929336828E+01  0.94328245173E+02  0.78842655027E+02 0.  0.
         -6    2    1    2    0  502  0.87092545725E+02  0.30587634959E+02 -0.68244741784E+03  0.70995106649E+03  0.17255527741E+03 0.  0.
        -24    2    5    5    0    0  0.12400480986E+03  0.20256844431E+02 -0.43879319913E+03  0.46325548734E+03  0.79237884471E+02 0.  0.
          5    1    3    3  501    0 -0.70829879491E+02  0.18343000223E+02 -0.11630327266E+03  0.13748410351E+03  0.47000000000E+01 0. -1.
        -13    1    4    4    0    0  0.21279264664E+02  0.92971632105E+01 -0.90350119010E+01  0.24917379246E+02  0.00000000000E+00 0.  1.
         14    1    4    4    0    0 -0.37541930898E+02 -0.58227798392E+02  0.42420782183E+01  0.69410865927E+02  0.00000000000E+00 0. -1.
         -5    1    5    5    0  502 -0.36912264135E+02  0.10330790527E+02 -0.24365421871E+03  0.24669557915E+03  0.47000000000E+01 0.  1.
         13    1    6    6    0    0  0.48807295359E+02  0.16253156722E+02 -0.70097380458E+02  0.86948030057E+02  0.00000000000E+00 0. -1.
        -14    1    6    6    0    0  0.75197514500E+02  0.40036877092E+01 -0.36869581867E+03  0.37630745728E+03  0.00000000000E+00 0.  1.
<mgrwt>
<rscale>  2 0.19717264E+03</rscale>
<asrwt>0</asrwt>
<pdfrwt beam="1">  1       21 0.10632292E-01 0.19766809E+03</pdfrwt>
<pdfrwt beam="2">  1       21 0.13425438E+00 0.19766809E+03</pdfrwt>
<totfact> 0.28914928E+04</totfact>
</mgrwt>
</event>
<event>
12    1  0.1019868E-001  0.1824396E+03  0.7546771E-02  0.1166740E+00
         21   -1    0    0  503  502  0.00000000000E+00  0.00000000000E+00  0.82670159759E+03  0.82670159759E+03  0.00000000000E+00 0.  1.
         21   -1    0    0  501  503 -0.00000000000E+00 -0.00000000000E+00 -0.42294357442E+02  0.42294357442E+02  0.00000000000E+00 0.  1.
          6    2    1    2  501    0 -0.25929513298E+02 -0.30035544407E+02  0.27819626602E+03  0.33268209342E+03  0.17807228662E+03 0.  0.
         24    2    3    3    0    0 -0.43537800037E+02  0.15875006187E+02  0.26419394940E+03  0.28134024607E+03  0.84890136688E+02 0.  0.
         -6    2    1    2    0  502  0.25929513298E+02  0.30035544407E+02  0.50621097412E+03  0.53631386161E+03  0.17265148204E+03 0.  0.
        -24    2    5    5    0    0 -0.48328469627E+02  0.30799657218E+02  0.22669097045E+03  0.24705903564E+03  0.79781646678E+02 0.  0.
          5    1    3    3  501    0  0.17608286739E+02 -0.45910550594E+02  0.14002316622E+02  0.51341847342E+02  0.47000000000E+01 0. -1.
        -13    1    4    4    0    0 -0.56437736623E+02 -0.92270654570E+01  0.10406251552E+03  0.11874074275E+03  0.00000000000E+00 0.  1.
         14    1    4    4    0    0  0.12899936587E+02  0.25102071644E+02  0.16013143388E+03  0.16259950332E+03  0.00000000000E+00 0. -1.
         -5    1    5    5    0  502  0.74257982925E+02 -0.76411281119E+00  0.27952000367E+03  0.28925482597E+03  0.47000000000E+01 0.  1.
         11    1    6    6    0    0 -0.40626151499E+02 -0.60182702552E+00  0.38044055606E+02  0.55661445798E+02  0.00000000000E+00 0. -1.
        -12    1    6    6    0    0 -0.77023181284E+01  0.31401484244E+02  0.18864691484E+03  0.19139758984E+03  0.00000000000E+00 0.  1.
<mgrwt>
<rscale>  2 0.18110322E+03</rscale>
<asrwt>0</asrwt>
<pdfrwt beam="1">  1       21 0.12718485E+00 0.18243961E+03</pdfrwt>
<pdfrwt beam="2">  1       21 0.65068248E-02 0.18243961E+03</pdfrwt>
<totfact> 0.78738599E+04</totfact>
</mgrwt>
</event>
<event>
12    1  0.1019868E-001  0.1940241E+03  0.7546771E-02  0.1154988E+00
         21   -1    0    0  501  502  0.00000000000E+00  0.00000000000E+00  0.16507193012E+04  0.16507193012E+04  0.00000000000E+00 0. -1.
         21   -1    0    0  502  503 -0.00000000000E+00 -0.00000000000E+00 -0.31124084904E+02  0.31124084904E+02  0.00000000000E+00 0. -1.
         -6    2    1    2    0  503  0.71646477349E+02 -0.48934105597E+02  0.37281951233E+03  0.42006091835E+03  0.17300006344E+03 0.  0.
        -24    2    3    3    0    0  0.10032989227E+03 -0.22294769580E+02  0.17247925005E+03  0.21587790436E+03  0.79316037834E+02 0.  0.
          6    2    1    2  501    0 -0.71646477349E+02  0.48934105597E+02  0.12467757039E+04  0.12617824677E+04  0.17354416011E+03 0.  0.
         24    2    5    5    0    0  0.18951762989E+02 -0.39938511525E+01  0.42593714473E+03  0.43425153776E+03  0.82321483337E+02 0.  0.
          5    1    5    5  501    0 -0.90598240338E+02  0.52927956749E+02  0.82083855920E+03  0.82753092995E+03  0.47000000000E+01 0. -1.
        -13    1    6    6    0    0 -0.32355586141E+02 -0.28512788348E+01  0.19442166341E+03  0.19711620164E+03  0.00000000000E+00 0.  1.
         14    1    6    6    0    0  0.51307349130E+02 -0.11425723176E+01  0.23151548132E+03  0.23713533612E+03  0.00000000000E+00 0. -1.
         -5    1    3    3    0  503 -0.28683414924E+02 -0.26639336017E+02  0.20034026228E+03  0.20418301400E+03  0.47000000000E+01 0.  1.
         13    1    4    4    0    0  0.64782220669E+02 -0.51361113244E+02  0.96188265632E+02  0.12683407473E+03  0.00000000000E+00 0. -1.
        -14    1    4    4    0    0  0.35547671604E+02  0.29066343664E+02  0.76290984416E+02  0.89043829621E+02  0.00000000000E+00 0.  1.
<mgrwt>
<rscale>  2 0.19390233E+03</rscale>
<asrwt>0</asrwt>
<pdfrwt beam="1">  1       21 0.25395675E+00 0.19402407E+03</pdfrwt>
<pdfrwt beam="2">  1       21 0.47883220E-02 0.19402407E+03</pdfrwt>
<totfact> 0.18220818E+04</totfact>
</mgrwt>
</event>
<event>
12    1  0.1019868E-001  0.1990650E+03  0.7546771E-02  0.1150812E+00
         21   -1    0    0  503  502  0.00000000000E+00  0.00000000000E+00  0.77816797430E+02  0.77816797430E+02  0.00000000000E+00 0.  1.
         21   -1    0    0  501  503 -0.00000000000E+00 -0.00000000000E+00 -0.67755172921E+03  0.67755172921E+03  0.00000000000E+00 0.  1.
          6    2    1    2  501    0 -0.97342312128E+01  0.95792445655E+02 -0.49074170752E+03  0.52957934957E+03  0.17422949259E+03 0.  0.
         24    2    3    3    0    0  0.21005740577E+02  0.10702073548E+03 -0.22778792373E+03  0.26455519450E+03  0.78787269168E+02 0.  0.
         -6    2    1    2    0  502  0.97342312128E+01 -0.95792445655E+02 -0.10899322425E+03  0.22578917707E+03  0.17271445118E+03 0.  0.
        -24    2    5    5    0    0 -0.22046640868E+02 -0.92246071530E+02 -0.20450589668E+02  0.13153161111E+03  0.88808479428E+02 0.  0.
          5    1    3    3  501    0 -0.30739971789E+02 -0.11228289821E+02 -0.26295378380E+03  0.26502415507E+03  0.47000000000E+01 0. -1.
        -13    1    4    4    0    0  0.17164753320E+02  0.84791254476E+02 -0.22592200431E+03  0.24191927915E+03  0.00000000000E+00 0.  1.
         14    1    4    4    0    0  0.38409872565E+01  0.22229481000E+02 -0.18659194173E+01  0.22635915354E+02  0.00000000000E+00 0. -1.
         -5    1    5    5    0  502  0.31780872081E+02 -0.35463741247E+01 -0.88542634587E+02  0.94257565952E+02  0.47000000000E+01 0.  1.
         11    1    6    6    0    0 -0.34907931353E+02  0.18952127216E+00  0.37766909847E+01  0.35112148673E+02  0.00000000000E+00 0. -1.
        -12    1    6    6    0    0  0.12861290485E+02 -0.92435592802E+02 -0.24227280653E+02  0.96419462441E+02  0.00000000000E+00 0.  1.
<mgrwt>
<rscale>  2 0.19873298E+03</rscale>
<asrwt>0</asrwt>
<pdfrwt beam="1">  1       21 0.11971816E-01 0.19906497E+03</pdfrwt>
<pdfrwt beam="2">  1       21 0.10423872E+00 0.19906497E+03</pdfrwt>
<totfact> 0.43663307E+04</totfact>
</mgrwt>
</event>
<event>
12    1  0.1019868E-001  0.1789295E+03  0.7546771E-02  0.1169502E+00
         21   -1    0    0  501  502  0.00000000000E+00  0.00000000000E+00  0.55408514780E+03  0.55408514780E+03  0.00000000000E+00 0.  1.
         21   -1    0    0  502  503 -0.00000000000E+00 -0.00000000000E+00 -0.60740744271E+02  0.60740744271E+02  0.00000000000E+00 0.  1.
         -6    2    1    2    0  503 -0.13938171080E+01  0.43125700953E+02  0.17130488285E+03  0.24771177195E+03  0.17364904337E+03 0.  0.
        -24    2    3    3    0    0  0.29493462383E+02 -0.32426976738E+02  0.58036144989E+02  0.10801879390E+03  0.79865465415E+02 0.  0.
          6    2    1    2  501    0  0.13938171080E+01 -0.43125700953E+02  0.32203952068E+03  0.36711412013E+03  0.17088462630E+03 0.  0.
         24    2    5    5    0    0  0.45415672050E+02 -0.79619856597E+01  0.94501119238E+02  0.13265682184E+03  0.80878886992E+02 0.  0.
          5    1    5    5  501    0 -0.44021854942E+02 -0.35163715294E+02  0.22753840144E+03  0.23445729828E+03  0.47000000000E+01 0. -1.
        -13    1    6    6    0    0  0.13025477178E+02  0.17214739615E+02 -0.73898571246E+01  0.22817105514E+02  0.00000000000E+00 0.  1.
         14    1    6    6    0    0  0.32390194872E+02 -0.25176725274E+02  0.10189097636E+03  0.10983971633E+03  0.00000000000E+00 0. -1.
         -5    1    3    3    0  503 -0.30887279491E+02  0.75552677691E+02  0.11326873786E+03  0.13969297805E+03  0.47000000000E+01 0.  1.
         13    1    4    4    0    0  0.45679882084E+02 -0.31928403598E+02  0.68824586629E+02  0.88560139500E+02  0.00000000000E+00 0. -1.
        -14    1    4    4    0    0 -0.16186419701E+02 -0.49857313970E+00 -0.10788441640E+02  0.19458654397E+02  0.00000000000E+00 0.  1.
<mgrwt>
<rscale>  2 0.17825529E+03</rscale>
<asrwt>0</asrwt>
<pdfrwt beam="1">  1       21 0.85243866E-01 0.17892948E+03</pdfrwt>
<pdfrwt beam="2">  1       21 0.93447303E-02 0.17892948E+03</pdfrwt>
<totfact> 0.10943407E+05</totfact>
</mgrwt>
</event>
<event>
10    1  0.1019868E-001  0.1879984E+03  0.7546771E-02  0.1160422E+00
         21   -1    0    0  503  502  0.00000000000E+00  0.00000000000E+00  0.92021522172E+02  0.92021522172E+02  0.00000000000E+00 0.  1.
         21   -1    0    0  501  503 -0.00000000000E+00 -0.00000000000E+00 -0.38545065277E+03  0.38545065277E+03  0.00000000000E+00 0.  1.
          6    2    1    2  501    0  0.58604670278E+02  0.45304154722E+02 -0.12668177596E+03  0.22617939214E+03  0.17211005565E+03 0.  0.
         -6    2    1    2    0  502 -0.58604670278E+02 -0.45304154722E+02 -0.16674735464E+03  0.25129278280E+03  0.17279007088E+03 0.  0.
          5    1    3    3  501    0  0.18063667887E+02 -0.61653487810E+02 -0.38784064449E+02  0.75191371259E+02  0.47000000000E+01 0. -1.
        -11    1    3    3    0    0  0.24697559952E+02  0.40620308278E+02 -0.12165272078E+02  0.49071098998E+02  0.00000000000E+00 0.  1.
         12    1    3    3    0    0  0.15843442438E+02  0.66337334254E+02 -0.75732439433E+02  0.10191692189E+03  0.00000000000E+00 0. -1.
         -5    1    4    4    0  502 -0.99125223581E+02 -0.19075389339E+02 -0.37933843599E+02  0.10793862570E+03  0.47000000000E+01 0.  1.
         11    1    4    4    0    0  0.69659065164E+01 -0.11087139001E+02 -0.85558739496E+02  0.86554875131E+02  0.00000000000E+00 0. -1.
        -12    1    4    4    0    0  0.33554646787E+02 -0.15141626382E+02 -0.43254771546E+02  0.56799281967E+02  0.00000000000E+00 0.  1.
<mgrwt>
<rscale>  2 0.18784196E+03</rscale>
<asrwt>0</asrwt>
<pdfrwt beam="1">  1       21 0.14157157E-01 0.18799836E+03</pdfrwt>
<pdfrwt beam="2">  1       21 0.59300101E-01 0.18799836E+03</pdfrwt>
<totfact> 0.11598305E+05</totfact>
</mgrwt>
</event>
<event>
12    1  0.1019868E-001  0.3007590E+03  0.7546771E-02  0.1084901E+00
         21   -1    0    0  501  502  0.00000000000E+00  0.00000000000E+00  0.46594671685E+03  0.46594671685E+03  0.00000000000E+00 0.  1.
         21   -1    0    0  502  503 -0.00000000000E+00 -0.00000000000E+00 -0.12728192527E+04  0.12728192527E+04  0.00000000000E+00 0. -1.
         -6    2    1    2    0  503  0.19977142056E+03 -0.14363770174E+03 -0.12038204871E+04  0.12407462264E+04  0.17241526386E+03 0.  0.
        -24    2    3    3    0    0  0.17234092433E+03 -0.11912597082E+03 -0.68771572584E+03  0.72331075050E+03  0.79580971941E+02 0.  0.
          6    2    1    2  501    0 -0.19977142056E+03  0.14363770174E+03  0.39694795132E+03  0.49801974314E+03  0.17296120568E+03 0.  0.
         24    2    5    5    0    0 -0.12571527310E+03  0.67065733874E+01  0.18811057246E+03  0.23750182112E+03  0.71918144762E+02 0.  0.
          5    1    5    5  501    0 -0.74056147457E+02  0.13693112835E+03  0.20883737886E+03  0.26051792202E+03  0.47000000000E+01 0. -1.
        -13    1    6    6    0    0 -0.51688319164E+02 -0.20934295042E+02  0.36841125817E+02  0.66837082510E+02  0.00000000000E+00 0.  1.
         14    1    6    6    0    0 -0.74026953934E+02  0.27640868430E+02  0.15126944664E+03  0.17066473861E+03  0.00000000000E+00 0. -1.
         -5    1    3    3    0  503  0.27430496221E+02 -0.24511730919E+02 -0.51610476128E+03  0.51743547588E+03  0.47000000000E+01 0.  1.
         13    1    4    4    0    0  0.12023032423E+03 -0.11190275658E+03 -0.58874011096E+03  0.61122211678E+03  0.00000000000E+00 0. -1.
        -14    1    4    4    0    0  0.52110600100E+02 -0.72232142412E+01 -0.98975614885E+02  0.11208863372E+03  0.00000000000E+00 0.  1.
<mgrwt>
<rscale>  2 0.30068058E+03</rscale>
<asrwt>0</asrwt>
<pdfrwt beam="1">  1       21 0.71684112E-01 0.30075902E+03</pdfrwt>
<pdfrwt beam="2">  1       21 0.19581834E+00 0.30075902E+03</pdfrwt>
<totfact> 0.22439809E+02</totfact>
</mgrwt>
</event>
<event>
12    1  0.1019868E-001  0.1745522E+03  0.7546771E-02  0.1173290E+00
         21   -1    0    0  503  502  0.00000000000E+00  0.00000000000E+00  0.23632138757E+03  0.23632138757E+03  0.00000000000E+00 0.  1.
         21   -1    0    0  501  503 -0.00000000000E+00 -0.00000000000E+00 -0.24220819660E+03  0.24220819660E+03  0.00000000000E+00 0.  1.
          6    2    1    2  501    0 -0.15175848455E+02  0.10884970955E+02 -0.16680202514E+03  0.24143610391E+03  0.17355024550E+03 0.  0.
         24    2    3    3    0    0  0.47070853067E+02  0.20140553635E+02 -0.45124989992E+02  0.10436784157E+03  0.78962488071E+02 0.  0.
         -6    2    1    2    0  502  0.15175848455E+02 -0.10884970955E+02  0.16091521610E+03  0.23709348025E+03  0.17312083247E+03 0.  0.
        -24    2    5    5    0    0 -0.12700004028E+02  0.51170693476E+02  0.53336918060E+02  0.10972335483E+03  0.80091558821E+02 0.  0.
          5    1    3    3  501    0 -0.62246701522E+02 -0.92555826796E+01 -0.12167703515E+03  0.13706826235E+03  0.47000000000E+01 0. -1.
        -11    1    4    4    0    0 -0.10850444199E+02 -0.80070844465E+00 -0.41244102911E+02  0.42655003203E+02  0.00000000000E+00 0.  1.
         12    1    4    4    0    0  0.57921297266E+02  0.20941262079E+02 -0.38808870811E+01  0.61712838364E+02  0.00000000000E+00 0. -1.
         -5    1    5    5    0  502  0.27875852483E+02 -0.62055664431E+02  0.10757829804E+03  0.12737012542E+03  0.47000000000E+01 0.  1.
         11    1    6    6    0    0 -0.39883975240E+02  0.55384490821E+02  0.35420082860E+02  0.76894444365E+02  0.00000000000E+00 0. -1.
        -12    1    6    6    0    0  0.27183971212E+02 -0.42137973444E+01  0.17916835201E+02  0.32828910468E+02  0.00000000000E+00 0.  1.
<mgrwt>
<rscale>  2 0.17444538E+03</rscale>
<asrwt>0</asrwt>
<pdfrwt beam="1">  1       21 0.36357137E-01 0.17455222E+03</pdfrwt>
<pdfrwt beam="2">  1       21 0.37262799E-01 0.17455222E+03</pdfrwt>
<totfact> 0.51110326E+04</totfact>
</mgrwt>
</event>
<event>
11    1  0.1019868E-001  0.3427411E+03  0.7546771E-02  0.1065898E+00
         21   -1    0    0  503  502  0.00000000000E+00  0.00000000000E+00  0.91709482781E+02  0.91709482781E+02  0.00000000000E+00 0. -1.
         21   -1    0    0  501  503 -0.00000000000E+00 -0.00000000000E+00 -0.12728313791E+04  0.12728313791E+04  0.00000000000E+00 0.  1.
          6    2    1    2  501    0 -0.27000847799E+03 -0.12122571330E+03 -0.57149121339E+03  0.66638853975E+03  0.17283294586E+03 0.  0.
         24    2    3    3    0    0 -0.17826551822E+03 -0.14261922503E+03 -0.46451653329E+03  0.52376972895E+03  0.80251360917E+02 0.  0.
         -6    2    1    2    0  502  0.27000847799E+03  0.12122571330E+03 -0.60963068297E+03  0.69815232217E+03  0.16782980543E+03 0.  0.
          5    1    3    3  501    0 -0.91742959769E+02  0.21393511732E+02 -0.10697468010E+03  0.14261881080E+03  0.47000000000E+01 0. -1.
        -11    1    4    4    0    0 -0.67391711246E+02 -0.57197168141E+02 -0.27022048548E+03  0.28431016437E+03  0.00000000000E+00 0.  1.
         12    1    4    4    0    0 -0.11087380697E+03 -0.85422056893E+02 -0.19429604781E+03  0.23945956458E+03  0.00000000000E+00 0. -1.
         -5    1    5    5    0  502  0.11810671994E+03  0.57119451579E+02 -0.18446703608E+03  0.22641114470E+03  0.47000000000E+01 0.  1.
         11    1    5    5    0    0  0.37321540211E+02  0.62662860942E+01 -0.12935855897E+02  0.39993750424E+02  0.00000000000E+00 0. -1.
        -12    1    5    5    0    0  0.11458021783E+03  0.57839975628E+02 -0.41222779099E+03  0.43174742705E+03  0.00000000000E+00 0.  1.
<mgrwt>
<rscale>  2 0.34211554E+03</rscale>
<asrwt>0</asrwt>
<pdfrwt beam="1">  1       21 0.14109152E-01 0.34274113E+03</pdfrwt>
<pdfrwt beam="2">  1       21 0.19582020E+00 0.34274113E+03</pdfrwt>
<totfact> 0.56604442E+03</totfact>
</mgrwt>
</event>
<event>
12    1  0.1019868E-001  0.1919451E+03  0.7546771E-02  0.1156987E+00
         21   -1    0    0  501  502  0.00000000000E+00  0.00000000000E+00  0.59341313287E+02  0.59341313287E+02  0.00000000000E+00 0.  1.
         21   -1    0    0  502  503 -0.00000000000E+00 -0.00000000000E+00 -0.78272186451E+03  0.78272186451E+03  0.00000000000E+00 0.  1.
         -6    2    1    2    0  503 -0.77668883686E+02 -0.27417703299E+02 -0.55453701977E+03  0.58642460869E+03  0.17204165032E+03 0.  0.
        -24    2    3    3    0    0 -0.85625536932E+02  0.10350522917E+01 -0.54095157018E+03  0.55356852749E+03  0.80478005964E+02 0.  0.
          6    2    1    2  501    0  0.77668883686E+02  0.27417703299E+02 -0.16884353146E+03  0.25563856910E+03  0.17337460584E+03 0.  0.
         24    2    5    5    0    0  0.77200197040E+02  0.62310659359E+01 -0.31521677045E+02  0.11661168332E+03  0.81277130598E+02 0.  0.
          5    1    5    5  501    0  0.46868664677E+00  0.21186637363E+02 -0.13732185441E+03  0.13902688578E+03  0.47000000000E+01 0. -1.
        -11    1    6    6    0    0  0.37643141488E+02  0.19521908006E+02 -0.54437079803E+02  0.69003671284E+02  0.00000000000E+00 0.  1.
         12    1    6    6    0    0  0.39557055551E+02 -0.13290842070E+02  0.22915402758E+02  0.47608012040E+02  0.00000000000E+00 0. -1.
         -5    1    3    3    0  503  0.79566532459E+01 -0.28452755590E+02 -0.13585449590E+02  0.32856081205E+02  0.47000000000E+01 0.  1.
         13    1    4    4    0    0  0.45784505827E+01 -0.57154367143E+01 -0.21977451663E+03  0.21989649062E+03  0.00000000000E+00 0. -1.
        -14    1    4    4    0    0 -0.90203987515E+02  0.67504890060E+01 -0.32117705354E+03  0.33367203687E+03  0.00000000000E+00 0.  1.
<mgrwt>
<rscale>  2 0.19164365E+03</rscale>
<asrwt>0</asrwt>
<pdfrwt beam="1">  1       21 0.91294333E-02 0.19194515E+03</pdfrwt>
<pdfrwt beam="2">  1       21 0.12041874E+00 0.19194515E+03</pdfrwt>
<totfact> 0.49896545E+04</totfact>
</mgrwt>
</event>
<event>
12    1  0.1019868E-001  0.2224452E+03  0.7546771E-02  0.1133395E+00
         21   -1    0    0  501  502  0.00000000000E+00  0.00000000000E+00  0.12069054456E+03  0.12069054456E+03  0.00000000000E+00 0. -1.
         21   -1    0    0  502  503 -0.00000000000E+00 -0.00000000000E+00 -0.16765760151E+04  0.16765760151E+04  0.00000000000E+00 0. -1.
         -6    2    1    2    0  503  0.10543115986E+03  0.93199227775E+02 -0.15599865343E+04  0.15747835502E+04  0.16304421896E+03 0.  0.
        -24    2    3    3    0    0  0.42657418950E+02  0.86496747541E+02 -0.59051800337E+03  0.60325033502E+03  0.76799164505E+02 0.  0.
          6    2    1    2  501    0 -0.10543115986E+03 -0.93199227775E+02  0.41010637174E+01  0.22248300948E+03  0.17227897509E+03 0.  0.
         24    2    5    5    0    0 -0.31922065426E+02  0.17870528441E+02 -0.12338217340E+02  0.88198171648E+02  0.79298876582E+02 0.  0.
          5    1    5    5  501    0 -0.73509094438E+02 -0.11106975622E+03  0.16439281057E+02  0.13428483784E+03  0.47000000000E+01 0. -1.
        -13    1    6    6    0    0  0.78182741232E+01 -0.46773421332E+01 -0.35725706273E+02  0.36869079571E+02  0.00000000000E+00 0.  1.
         14    1    6    6    0    0 -0.39740339549E+02  0.22547870574E+02  0.23387488933E+02  0.51329092077E+02  0.00000000000E+00 0. -1.
         -5    1    3    3    0  503  0.62773740913E+02  0.67024802337E+01 -0.96946853088E+03  0.97153321516E+03  0.47000000000E+01 0.  1.
         13    1    4    4    0    0 -0.28140993373E+01  0.52986152866E+02 -0.42629462766E+03  0.42958417234E+03  0.00000000000E+00 0. -1.
        -14    1    4    4    0    0  0.45471518288E+02  0.33510594676E+02 -0.16422337571E+03  0.17366616269E+03  0.00000000000E+00 0.  1.
<mgrwt>
<rscale>  2 0.22065551E+03</rscale>
<asrwt>0</asrwt>
<pdfrwt beam="1">  1       21 0.18567777E-01 0.22244521E+03</pdfrwt>
<pdfrwt beam="2">  1       21 0.25793476E+00 0.22244521E+03</pdfrwt>
<totfact> 0.15310741E+03</totfact>
</mgrwt>
</event>
<event>
12    1  0.1019868E-001  0.1863611E+03  0.7546771E-02  0.1162214E+00
         21   -1    0    0  503  502  0.00000000000E+00  0.00000000000E+00  0.13156429194E+04  0.13156429194E+04  0.00000000000E+00 0.  1.
         21   -1    0    0  501  503 -0.00000000000E+00 -0.00000000000E+00 -0.26543602453E+02  0.26543602453E+02  0.00000000000E+00 0.  1.
          6    2    1    2  501    0 -0.63283706868E+02  0.18596244184E+02  0.73076054529E+03  0.75414946550E+03  0.17429800317E+03 0.  0.
         24    2    3    3    0    0 -0.50761070275E+02 -0.52815357060E+02  0.53858466377E+03  0.54869851598E+03  0.75036479109E+02 0.  0.
         -6    2    1    2    0  502  0.63283706868E+02 -0.18596244184E+02  0.55833877160E+03  0.58803705630E+03  0.17232164070E+03 0.  0.
        -24    2    5    5    0    0  0.82173125840E+02 -0.19536601413E+02  0.55772014304E+03  0.56853918149E+03  0.71069976320E+02 0.  0.
          5    1    3    3  501    0 -0.12522636593E+02  0.71411601244E+02  0.19217588152E+03  0.20545094952E+03  0.47000000000E+01 0. -1.
        -11    1    4    4    0    0 -0.47998860452E+02 -0.41948782280E+01  0.37306414720E+03  0.37616265834E+03  0.00000000000E+00 0.  1.
         12    1    4    4    0    0 -0.27622098221E+01 -0.48620478832E+02  0.16552051657E+03  0.17253585764E+03  0.00000000000E+00 0. -1.
         -5    1    5    5    0  502 -0.18889418973E+02  0.94035722871E+00  0.61862856662E+00  0.19497874811E+02  0.47000000000E+01 0.  1.
         11    1    6    6    0    0  0.61643526385E+02  0.16414250378E+02  0.41715243755E+03  0.42200178686E+03  0.00000000000E+00 0. -1.
        -12    1    6    6    0    0  0.20529599456E+02 -0.35950851791E+02  0.14056770549E+03  0.14653739463E+03  0.00000000000E+00 0.  1.
<mgrwt>
<rscale>  2 0.18589755E+03</rscale>
<asrwt>0</asrwt>
<pdfrwt beam="1">  1       21 0.20240655E+00 0.18636105E+03</pdfrwt>
<pdfrwt beam="2">  1       21 0.40836322E-02 0.18636105E+03</pdfrwt>
<totfact> 0.49252846E+04</totfact>
</mgrwt>
</event>
<event>
12    1  0.1019868E-001  0.2038130E+03  0.7546771E-02  0.1147284E+00
         21   -1    0    0  501  502  0.00000000000E+00  0.00000000000E+00  0.41321619148E+03  0.41321619148E+03  0.00000000000E+00 0. -1.
         21   -1    0    0  502  503 -0.00000000000E+00 -0.00000000000E+00 -0.19220446848E+03  0.19220446848E+03  0.00000000000E+00 0.  1.
         -6    2    1    2    0  503  0.93518893418E+02  0.46300298565E+02 -0.10000273468E+03  0.22702486554E+03  0.17507210388E+03 0.  0.
        -24    2    3    3    0    0 -0.97125189080E+01  0.55746896532E+02 -0.54740958408E+02  0.11381408383E+03  0.82188950930E+02 0.  0.
          6    2    1    2  501    0 -0.93518893418E+02 -0.46300298565E+02  0.32101445768E+03  0.37839579442E+03  0.17100758498E+03 0.  0.
         24    2    5    5    0    0 -0.11773630506E+03 -0.74989694578E+02  0.26168883435E+03  0.30803114382E+03  0.83167588130E+02 0.  0.
          5    1    5    5  501    0  0.24217411645E+02  0.28689396013E+02  0.59325623334E+02  0.70364650602E+02  0.47000000000E+01 0. -1.
        -11    1    6    6    0    0 -0.82136084715E+02 -0.47874424757E+02  0.91106226312E+02  0.13167627513E+03  0.00000000000E+00 0.  1.
         12    1    6    6    0    0 -0.35600220347E+02 -0.27115269821E+02  0.17058260804E+03  0.17635486869E+03  0.00000000000E+00 0. -1.
         -5    1    3    3    0  503  0.10323141233E+03 -0.94465979668E+01 -0.45261776270E+02  0.11321078171E+03  0.47000000000E+01 0.  1.
         11    1    4    4    0    0 -0.13579810513E+02 -0.19809978384E+02 -0.15525939661E+02  0.28598973749E+02  0.00000000000E+00 0. -1.
        -12    1    4    4    0    0  0.38672916047E+01  0.75556874916E+02 -0.39215018747E+02  0.85215110085E+02  0.00000000000E+00 0.  1.
<mgrwt>
<rscale>  2 0.20293724E+03</rscale>
<asrwt>0</asrwt>
<pdfrwt beam="1">  1       21 0.63571722E-01 0.20381301E+03</pdfrwt>
<pdfrwt beam="2">  1       21 0.29569918E-01 0.20381301E+03</pdfrwt>
<totfact> 0.24908004E+04</totfact>
</mgrwt>
</event>
<event>
12    1  0.1019868E-001  0.2166567E+03  0.7546771E-02  0.1136465E+00
         21   -1    0    0  503  502  0.00000000000E+00  0.00000000000E+00  0.13333044449E+03  0.13333044449E+03  0.00000000000E+00 0.  1.
         21   -1    0    0  501  503 -0.00000000000E+00 -0.00000000000E+00 -0.36609889962E+03  0.36609889962E+03  0.00000000000E+00 0.  1.
          6    2    1    2  501    0 -0.62388963360E+02  0.11538680249E+03 -0.16632122644E+03  0.27313527854E+03  0.17243443126E+03 0.  0.
         24    2    3    3    0    0 -0.41311091342E+02  0.13113755591E+03 -0.72083137556E+02  0.17517982786E+03  0.81168519332E+02 0.  0.
         -6    2    1    2    0  502  0.62388963360E+02 -0.11538680249E+03 -0.66447228681E+02  0.22629406557E+03  0.17200951419E+03 0.  0.
        -24    2    5    5    0    0 -0.21732106981E+02 -0.81454300058E+02 -0.65072773967E+02  0.13545493125E+03  0.83704749075E+02 0.  0.
          5    1    3    3  501    0 -0.21077872018E+02 -0.15750753422E+02 -0.94238088884E+02  0.97955450684E+02  0.47000000000E+01 0. -1.
        -11    1    4    4    0    0 -0.30790567051E+02  0.28696570048E+02  0.10265213003E+02  0.43323512668E+02  0.00000000000E+00 0.  1.
         12    1    4    4    0    0 -0.10520524290E+02  0.10244098586E+03 -0.82348350559E+02  0.13185631519E+03  0.00000000000E+00 0. -1.
         -5    1    5    5    0  502  0.84121070341E+02 -0.33932502432E+02 -0.13744547138E+01  0.90839134311E+02  0.47000000000E+01 0.  1.
         13    1    6    6    0    0  0.65924255393E+01  0.12534467827E+02 -0.26378547979E+02  0.29939952433E+02  0.00000000000E+00 0. -1.
        -14    1    6    6    0    0 -0.28324532521E+02 -0.93988767885E+02 -0.38694225988E+02  0.10551497882E+03  0.00000000000E+00 0.  1.
<mgrwt>
<rscale>  2 0.21657215E+03</rscale>
<asrwt>0</asrwt>
<pdfrwt beam="1">  1       21 0.20512376E-01 0.21665671E+03</pdfrwt>
<pdfrwt beam="2">  1       21 0.56322908E-01 0.21665671E+03</pdfrwt>
<totfact> 0.64598944E+04</totfact>
</mgrwt>
</event>
<event>
12    1  0.1019868E-001  0.1798333E+03  0.7546771E-02  0.1173077E+00
         21   -1    0    0  503  502  0.00000000000E+00  0.00000000000E+00  0.35861444765E+03  0.35861444765E+03  0.00000000000E+00 0. -1.
         21   -1    0    0  501  503 -0.00000000000E+00 -0.00000000000E+00 -0.80613501840E+02  0.80613501840E+02  0.00000000000E+00 0. -1.
          6    2    1    2  501    0  0.51202509366E+02 -0.28537262882E+01  0.12305492050E+03  0.20184998402E+03  0.15156207266E+03 0.  0.
         24    2    3    3    0    0  0.24007987295E+02  0.41459038969E+02  0.11330228291E+03  0.14874285516E+03  0.83616949739E+02 0.  0.
         -6    2    1    2    0  502 -0.51202509366E+02  0.28537262882E+01  0.15494602531E+03  0.23737796547E+03  0.17236643239E+03 0.  0.
        -24    2    5    5    0    0 -0.28696434920E+01  0.23533482874E+02  0.11602043493E+02  0.84625533808E+02  0.80404066372E+02 0.  0.
          5    1    3    3  501    0  0.27194522071E+02 -0.44312765257E+02  0.97526375932E+01  0.53107128857E+02  0.47000000000E+01 0. -1.
        -13    1    4    4    0    0  0.18363488641E+02 -0.10269110185E+02 -0.30738984589E+01  0.21263141602E+02  0.00000000000E+00 0.  1.
         14    1    4    4    0    0  0.56444986540E+01  0.51728149154E+02  0.11637618137E+03  0.12747971356E+03  0.00000000000E+00 0. -1.
         -5    1    5    5    0  502 -0.48332865874E+02 -0.20679756586E+02  0.14334398182E+03  0.15275243166E+03  0.47000000000E+01 0.  1.
         13    1    6    6    0    0 -0.35498779352E+02 -0.29856839519E+01 -0.10479092026E+02  0.37133394860E+02  0.00000000000E+00 0. -1.
        -14    1    6    6    0    0  0.32629135860E+02  0.26519166826E+02  0.22081135519E+02  0.47492138949E+02  0.00000000000E+00 0.  1.
<mgrwt>
<rscale>  2 0.17465642E+03</rscale>
<asrwt>0</asrwt>
<pdfrwt beam="1">  1       21 0.55171453E-01 0.17983333E+03</pdfrwt>
<pdfrwt beam="2">  1       21 0.12402077E-01 0.17983333E+03</pdfrwt>
<totfact> 0.17209697E+05</totfact>
</mgrwt>
</event>
<event>
12    1  0.1019868E-001  0.2478287E+03  0.7546771E-02  0.1114760E+00
         21   -1    0    0  501  502  0.00000000000E+00  0.00000000000E+00  0.13391605024E+04  0.13391605024E+04  0.00000000000E+00 0. -1.
         21   -1    0    0  502  503 -0.00000000000E+00 -0.00000000000E+00 -0.16765553743E+03  0.16765553743E+03  0.00000000000E+00 0. -1.
         -6    2    1    2    0  503 -0.13972300758E+03 -0.10752421513E+03 -0.56465166991E+02  0.25417985355E+03  0.17416976540E+03 0.  0.
        -24    2    3    3    0    0 -0.14418874864E+03 -0.32006241976E+02 -0.59912984030E+02  0.17830571728E+03  0.79928520556E+02 0.  0.
          6    2    1    2  501    0  0.13972300758E+03  0.10752421513E+03  0.12279701319E+04  0.12526361862E+04  0.17350156909E+03 0.  0.
         24    2    5    5    0    0  0.14857194809E+02  0.34256521137E+02  0.27856770911E+03  0.29224737089E+03  0.80089398535E+02 0.  0.
          5    1    5    5  501    0  0.12486581277E+03  0.73267693998E+02  0.94940242282E+03  0.96038881535E+03  0.47000000000E+01 0. -1.
        -13    1    6    6    0    0 -0.40113200459E+00 -0.24686637188E+02  0.11726488006E+03  0.11983590054E+03  0.00000000000E+00 0.  1.
         14    1    6    6    0    0  0.15258326814E+02  0.58943158325E+02  0.16130282905E+03  0.17241147036E+03  0.00000000000E+00 0. -1.
         -5    1    3    3    0  503  0.44657410587E+01 -0.75517973159E+02  0.34478170391E+01  0.75874136275E+02  0.47000000000E+01 0.  1.
         11    1    4    4    0    0 -0.12458889625E+03  0.41010315807E+01 -0.32197816870E+02  0.12874746965E+03  0.00000000000E+00 0. -1.
        -12    1    4    4    0    0 -0.19599852387E+02 -0.36107273557E+02 -0.27715167159E+02  0.49558247628E+02  0.00000000000E+00 0.  1.
<mgrwt>
<rscale>  2 0.24771137E+03</rscale>
<asrwt>0</asrwt>
<pdfrwt beam="1">  1       21 0.20602469E+00 0.24782874E+03</pdfrwt>
<pdfrwt beam="2">  1       21 0.25793160E-01 0.24782874E+03</pdfrwt>
<totfact> 0.16633289E+03</totfact>
</mgrwt>
</event>
<event>
12    1  0.1019868E-001  0.1907447E+03  0.7546771E-02  0.1157878E+00
         21   -1    0    0  501  502  0.00000000000E+00  0.00000000000E+00  0.14096006992E+03  0.14096006992E+03  0.00000000000E+00 0.  1.
         21   -1    0    0  502  503 -0.00000000000E+00 -0.00000000000E+00 -0.10639511730E+04  0.10639511730E+04  0.00000000000E+00 0.  1.
         -6    2    1    2    0  503 -0.26513473986E+01  0.79554126200E+02 -0.98608805463E+03  0.10043670536E+04  0.17334254602E+03 0.  0.
        -24    2    3    3    0    0  0.45699807754E+02  0.43652696324E+01 -0.64751324406E+03  0.65415827201E+03  0.80883345653E+02 0.  0.
          6    2    1    2  501    0  0.26513473986E+01 -0.79554126200E+02  0.63096951589E+02  0.20054418927E+03  0.17291864536E+03 0.  0.
         24    2    5    5    0    0 -0.26509256289E+02 -0.11409265415E+03  0.34165564021E+02  0.14667057879E+03  0.81394708165E+02 0.  0.
          5    1    5    5  501    0  0.29160603688E+02  0.34538527947E+02  0.28931387568E+02  0.53873610486E+02  0.47000000000E+01 0. -1.
        -13    1    6    6    0    0  0.20043658420E+02 -0.55019308622E+02  0.40491734243E+02  0.71193069228E+02  0.00000000000E+00 0.  1.
         14    1    6    6    0    0 -0.46552914709E+02 -0.59073345525E+02 -0.63261702218E+01  0.75477509558E+02  0.00000000000E+00 0. -1.
         -5    1    3    3    0  503 -0.48351155153E+02  0.75188856568E+02 -0.33857481057E+03  0.35020878160E+03  0.47000000000E+01 0.  1.
         11    1    4    4    0    0  0.55063851175E+02 -0.38328375691E+00 -0.22951528835E+03  0.23602847752E+03  0.00000000000E+00 0. -1.
        -12    1    4    4    0    0 -0.93640434214E+01  0.47485533893E+01 -0.41799795571E+03  0.41812979450E+03  0.00000000000E+00 0.  1.
<mgrwt>
<rscale>  2 0.19064830E+03</rscale>
<asrwt>0</asrwt>
<pdfrwt beam="1">  1       21 0.21686166E-01 0.19074466E+03</pdfrwt>
<pdfrwt beam="2">  1       21 0.16368479E+00 0.19074466E+03</pdfrwt>
<totfact> 0.47013336E+03</totfact>
</mgrwt>
</event>
<event>
12    1  0.1019868E-001  0.2430587E+03  0.7546771E-02  0.1117816E+00
         21   -1    0    0  501  502  0.00000000000E+00  0.00000000000E+00  0.66338180251E+02  0.66338180251E+02  0.00000000000E+00 0. -1.
         21   -1    0    0  502  503 -0.00000000000E+00 -0.00000000000E+00 -0.21403614695E+04  0.21403614695E+04  0.00000000000E+00 0. -1.
         -6    2    1    2    0  503 -0.15352235643E+03 -0.73760302952E+02 -0.18802293328E+04  0.18958401179E+04  0.17302517912E+03 0.  0.
        -24    2    3    3    0    0 -0.28065379096E+02 -0.40406122128E+02 -0.11335869767E+04  0.11379820491E+04  0.86967753564E+02 0.  0.
          6    2    1    2  501    0  0.15352235643E+03  0.73760302952E+02 -0.19379395644E+03  0.31085953181E+03  0.17340084992E+03 0.  0.
         24    2    5    5    0    0  0.12916686445E+02 -0.13684005540E+01 -0.95259774170E+02  0.12338859647E+03  0.77340855025E+02 0.  0.
          5    1    5    5  501    0  0.14060566998E+03  0.75128703506E+02 -0.98534182268E+02  0.18747093534E+03  0.47000000000E+01 0. -1.
        -11    1    6    6    0    0  0.32966530311E+01  0.35805835538E+02 -0.65826112510E+02  0.75006685488E+02  0.00000000000E+00 0.  1.
         12    1    6    6    0    0  0.96200334136E+01 -0.37174236092E+02 -0.29433661659E+02  0.48381910985E+02  0.00000000000E+00 0. -1.
         -5    1    3    3    0  503 -0.12545697733E+03 -0.33354180824E+02 -0.74664235612E+03  0.75785806883E+03  0.47000000000E+01 0.  1.
         13    1    4    4    0    0  0.20970373715E+02  0.13713060759E+02 -0.20449925424E+03  0.20602851646E+03  0.00000000000E+00 0. -1.
        -14    1    4    4    0    0 -0.49035752811E+02 -0.54119182887E+02 -0.92908772245E+03  0.93195353265E+03  0.00000000000E+00 0.  1.
<mgrwt>
<rscale>  2 0.24299175E+03</rscale>
<asrwt>0</asrwt>
<pdfrwt beam="1">  1       21 0.10205873E-01 0.24305874E+03</pdfrwt>
<pdfrwt beam="2">  1       21 0.32928641E+00 0.24305874E+03</pdfrwt>
<totfact> 0.17026750E+03</totfact>
</mgrwt>
</event>
<event>
12    1  0.1019868E-001  0.1862426E+03  0.7546771E-02  0.1162395E+00
         21   -1    0    0  501  502  0.00000000000E+00  0.00000000000E+00  0.60939881455E+03  0.60939881455E+03  0.00000000000E+00 0. -1.
         21   -1    0    0  502  503 -0.00000000000E+00 -0.00000000000E+00 -0.58709597593E+02  0.58709597593E+02  0.00000000000E+00 0. -1.
         -6    2    1    2    0  503  0.65230619440E+02  0.22479924241E+01  0.20563768448E+03  0.27600274240E+03  0.17213532280E+03 0.  0.
        -24    2    3    3    0    0  0.54123373351E+02 -0.55481090825E+02  0.79923302230E+02  0.13714233094E+03  0.80079920792E+02 0.  0.
          6    2    1    2  501    0 -0.65230619440E+02 -0.22479924241E+01  0.34505153248E+03  0.39210566974E+03  0.17443110099E+03 0.  0.
         24    2    5    5    0    0  0.14734532421E+02  0.17723953689E+02  0.26196555899E+03  0.27497893012E+03  0.80350562743E+02 0.  0.
          5    1    5    5  501    0 -0.79965151860E+02 -0.19971946114E+02  0.83085973497E+02  0.11712673963E+03  0.47000000000E+01 0. -1.
        -11    1    6    6    0    0  0.41367651071E+02  0.27385266515E+02  0.11402575037E+03  0.12435074236E+03  0.00000000000E+00 0.  1.
         12    1    6    6    0    0 -0.26633118650E+02 -0.96613128259E+01  0.14793980861E+03  0.15062818776E+03  0.00000000000E+00 0. -1.
         -5    1    3    3    0  503  0.11107246088E+02  0.57729083249E+02  0.12571438225E+03  0.13886041146E+03  0.47000000000E+01 0.  1.
         11    1    4    4    0    0  0.45855330132E+02  0.74433893880E+01  0.22771720883E+02  0.51736511470E+02  0.00000000000E+00 0. -1.
        -12    1    4    4    0    0  0.82680432188E+01 -0.62924480213E+02  0.57151581347E+02  0.85405819469E+02  0.00000000000E+00 0.  1.
<mgrwt>
<rscale>  2 0.18570313E+03</rscale>
<asrwt>0</asrwt>
<pdfrwt beam="1">  1       21 0.93753659E-01 0.18624257E+03</pdfrwt>
<pdfrwt beam="2">  1       21 0.90322462E-02 0.18624257E+03</pdfrwt>
<totfact> 0.92986961E+04</totfact>
</mgrwt>
</event>
<event>
12    1  0.1019868E-001  0.2497457E+03  0.7546771E-02  0.1113573E+00
         21   -1    0    0  501  502  0.00000000000E+00  0.00000000000E+00  0.80220230067E+02  0.80220230067E+02  0.00000000000E+00 0.  1.
         21   -1    0    0  502  503 -0.00000000000E+00 -0.00000000000E+00 -0.95709102492E+03  0.95709102492E+03  0.00000000000E+00 0.  1.
         -6    2    1    2    0  503 -0.55750776585E+02 -0.17047757595E+03 -0.66392605606E+03  0.70910647450E+03  0.17281039111E+03 0.  0.
        -24    2    3    3    0    0 -0.48907653580E-01 -0.16942358487E+03 -0.43821640577E+03  0.47657530383E+03  0.79912755136E+02 0.  0.
          6    2    1    2  501    0  0.55750776585E+02  0.17047757595E+03 -0.21294473879E+03  0.32820478048E+03  0.17378769565E+03 0.  0.
         24    2    5    5    0    0  0.97113681665E+02  0.14495061737E+03 -0.20319159695E+03  0.27840789999E+03  0.76041995383E+02 0.  0.
          5    1    5    5  501    0 -0.41362905080E+02  0.25526958580E+02 -0.97531418413E+01  0.49796880493E+02  0.47000000000E+01 0. -1.
        -13    1    6    6    0    0  0.77550365075E+02  0.14779656948E+03 -0.16142071994E+03  0.23219503419E+03  0.00000000000E+00 0.  1.
         14    1    6    6    0    0  0.19563316590E+02 -0.28459521126E+01 -0.41770877013E+02  0.46212865804E+02  0.00000000000E+00 0. -1.
         -5    1    3    3    0  503 -0.55701868932E+02 -0.10539910781E+01 -0.22570965029E+03  0.23253117067E+03  0.47000000000E+01 0.  1.
         13    1    4    4    0    0 -0.28037984490E+02 -0.14602709284E+03 -0.32003137677E+03  0.35288825786E+03  0.00000000000E+00 0. -1.
        -14    1    4    4    0    0  0.27989076836E+02 -0.23396492030E+02 -0.11818502900E+03  0.12368704597E+03  0.00000000000E+00 0.  1.
<mgrwt>
<rscale>  2 0.24957576E+03</rscale>
<asrwt>0</asrwt>
<pdfrwt beam="1">  1       21 0.12341575E-01 0.24974570E+03</pdfrwt>
<pdfrwt beam="2">  1       21 0.14724476E+00 0.24974570E+03</pdfrwt>
<totfact> 0.16897797E+04</totfact>
</mgrwt>
</event>
<event>
12    1  0.1019868E-001  0.1788070E+03  0.7546771E-02  0.1169011E+00
         21   -1    0    0  501  502  0.00000000000E+00  0.00000000000E+00  0.44595279507E+02  0.44595279507E+02  0.00000000000E+00 0.  1.
         21   -1    0    0  502  503 -0.00000000000E+00 -0.00000000000E+00 -0.11546173700E+04  0.11546173700E+04  0.00000000000E+00 0.  1.
         -6    2    1    2    0  503 -0.24820896360E+02 -0.38575695975E+02 -0.92432384483E+03  0.94142244425E+03  0.17261948673E+03 0.  0.
        -24    2    3    3    0    0  0.41970064886E+01  0.33731672241E+02 -0.66143326215E+03  0.66718907166E+03  0.80572057674E+02 0.  0.
          6    2    1    2  501    0  0.24820896360E+02  0.38575695975E+02 -0.18569824566E+03  0.25779020526E+03  0.17282300272E+03 0.  0.
         24    2    5    5    0    0 -0.26527479887E+02  0.62970296755E+02 -0.77725633480E+02  0.13567580286E+03  0.87736445793E+02 0.  0.
          5    1    5    5  501    0  0.51348376248E+02 -0.24394600780E+02 -0.10797261218E+03  0.12211440239E+03  0.47000000000E+01 0. -1.
        -13    1    6    6    0    0 -0.17141524177E+02 -0.49509020619E+01  0.12912422819E+02  0.22024394325E+02  0.00000000000E+00 0.  1.
         14    1    6    6    0    0 -0.93859557103E+01  0.67921198817E+02 -0.90638056299E+02  0.11365140854E+03  0.00000000000E+00 0. -1.
         -5    1    3    3    0  503 -0.29017902849E+02 -0.72307368216E+02 -0.26289058267E+03  0.27423337259E+03  0.47000000000E+01 0.  1.
         13    1    4    4    0    0  0.16250755058E+02 -0.21998382101E+02 -0.13991247169E+03  0.14256056814E+03  0.00000000000E+00 0. -1.
        -14    1    4    4    0    0 -0.12053748569E+02  0.55730054341E+02 -0.52152079046E+03  0.52462850351E+03  0.00000000000E+00 0.  1.
<mgrwt>
<rscale>  2 0.17875783E+03</rscale>
<asrwt>0</asrwt>
<pdfrwt beam="1">  1       21 0.68608139E-02 0.17880702E+03</pdfrwt>
<pdfrwt beam="2">  1       21 0.17763340E+00 0.17880702E+03</pdfrwt>
<totfact> 0.29855195E+04</totfact>
</mgrwt>
</event>
<event>
12    1  0.1019868E-001  0.1954675E+03  0.7546771E-02  0.1155662E+00
         21   -1    0    0  503  502  0.00000000000E+00  0.00000000000E+00  0.26592911697E+03  0.26592911697E+03  0.00000000000E+00 0. -1.
         21   -1    0    0  501  503 -0.00000000000E+00 -0.00000000000E+00 -0.88822223308E+03  0.88822223308E+03  0.00000000000E+00 0. -1.
          6    2    1    2  501    0 -0.12210457103E+02  0.71758905633E+02 -0.84067208872E+03  0.86106958178E+03  0.17150168548E+03 0.  0.
         24    2    3    3    0    0 -0.18513888772E+02 -0.20568372451E+02 -0.26475727708E+03  0.27774804113E+03  0.79257406975E+02 0.  0.
         -6    2    1    2    0  502  0.12210457103E+02 -0.71758905633E+02  0.21837897260E+03  0.29308176827E+03  0.18140868617E+03 0.  0.
        -24    2    5    5    0    0  0.35086832157E+01 -0.31228722576E+02  0.14608247305E+02  0.85084135842E+02  0.77706919325E+02 0.  0.
          5    1    3    3  501    0  0.63034316690E+01  0.92327278084E+02 -0.57591481163E+03  0.58332154065E+03  0.47000000000E+01 0. -1.
        -11    1    4    4    0    0 -0.48729861579E+02 -0.18209657506E+02 -0.19218957528E+03  0.19910555965E+03  0.00000000000E+00 0.  1.
         12    1    4    4    0    0  0.30215972807E+02 -0.23587149453E+01 -0.72567701803E+02  0.78642481483E+02  0.00000000000E+00 0. -1.
         -5    1    5    5    0  502  0.87017738876E+01 -0.40530183057E+02  0.20377072530E+03  0.20799763243E+03  0.47000000000E+01 0.  1.
         11    1    6    6    0    0  0.35287176424E+02  0.83473741126E+00  0.18357072585E+02  0.39785219874E+02  0.00000000000E+00 0. -1.
        -12    1    6    6    0    0 -0.31778493208E+02 -0.32063459987E+02 -0.37488252800E+01  0.45298915968E+02  0.00000000000E+00 0.  1.
<mgrwt>
<rscale>  2 0.19313667E+03</rscale>
<asrwt>0</asrwt>
<pdfrwt beam="1">  1       21 0.40912172E-01 0.19546751E+03</pdfrwt>
<pdfrwt beam="2">  1       21 0.13664958E+00 0.19546751E+03</pdfrwt>
<totfact> 0.21861428E+03</totfact>
</mgrwt>
</event>
<event>
11    1  0.1019868E-001  0.2153814E+03  0.7546771E-02  0.1137643E+00
         21   -1    0    0  503  502  0.00000000000E+00  0.00000000000E+00  0.83103375231E+02  0.83103375231E+02  0.00000000000E+00 0. -1.
         21   -1    0    0  501  503 -0.00000000000E+00 -0.00000000000E+00 -0.96185106094E+03  0.96185106094E+03  0.00000000000E+00 0.  1.
          6    2    1    2  501    0  0.73078783706E+02  0.10114654232E+03 -0.78017740114E+03  0.80936143510E+03  0.17555063010E+03 0.  0.
         24    2    3    3    0    0  0.10779571495E+03  0.11550833649E+03 -0.66747467873E+03  0.69046854177E+03  0.79134496037E+02 0.  0.
         -6    2    1    2    0  502 -0.73078783706E+02 -0.10114654232E+03 -0.98570284572E+02  0.23559300107E+03  0.17382988668E+03 0.  0.
          5    1    3    3  501    0 -0.34716931249E+02 -0.14361794164E+02 -0.11270272240E+03  0.11889289333E+03  0.47000000000E+01 0. -1.
        -11    1    4    4    0    0  0.43139143364E+02  0.34392507924E+02 -0.39645933770E+03  0.40027969813E+03  0.00000000000E+00 0.  1.
         12    1    4    4    0    0  0.64656571590E+02  0.81115828564E+02 -0.27101534104E+03  0.29018884364E+03  0.00000000000E+00 0. -1.
         -5    1    5    5    0  502 -0.73861117273E+02 -0.58987992046E+02 -0.39457649824E+02  0.10253801237E+03  0.47000000000E+01 0.  1.
         13    1    5    5    0    0  0.25177674812E+01 -0.24683623918E+02  0.31871996511E+02  0.40391145124E+02  0.00000000000E+00 0. -1.
        -14    1    5    5    0    0 -0.17354339143E+01 -0.17474926360E+02 -0.90984631259E+02  0.92663843583E+02  0.00000000000E+00 0.  1.
<mgrwt>
<rscale>  2 0.21503051E+03</rscale>
<asrwt>0</asrwt>
<pdfrwt beam="1">  1       21 0.12785135E-01 0.21538142E+03</pdfrwt>
<pdfrwt beam="2">  1       21 0.14797709E+00 0.21538142E+03</pdfrwt>
<totfact> 0.15974992E+04</totfact>
</mgrwt>
</event>
<event>
12    1  0.1019868E-001  0.1999834E+03  0.7546771E-02  0.1150213E+00
         21   -1    0    0  501  502  0.00000000000E+00  0.00000000000E+00  0.31508983183E+03  0.31508983183E+03  0.00000000000E+00 0.  1.
         21   -1    0    0  502  503 -0.00000000000E+00 -0.00000000000E+00 -0.22328523752E+03  0.22328523752E+03  0.00000000000E+00 0.  1.
         -6    2    1    2    0  503 -0.85562308817E+02  0.48698172114E+02 -0.13204590900E+03  0.23964446142E+03  0.17407160925E+03 0.  0.
        -24    2    3    3    0    0  0.83375802444E+01  0.66574522197E+02 -0.54887491324E+02  0.11671251082E+03  0.78150439722E+02 0.  0.
          6    2    1    2  501    0  0.85562308817E+02 -0.48698172114E+02  0.22385050331E+03  0.29873060793E+03  0.17157653575E+03 0.  0.
         24    2    5    5    0    0 -0.13006424592E+02 -0.63219820089E+01  0.13945487118E+03  0.16214272626E+03  0.81446105172E+02 0.  0.
          5    1    5    5  501    0  0.98568733409E+02 -0.42376190105E+02  0.84395632138E+02  0.13658788166E+03  0.47000000000E+01 0. -1.
        -13    1    6    6    0    0 -0.18548300636E+02  0.17362925539E+02  0.13505419335E+03  0.13742323596E+03  0.00000000000E+00 0.  1.
         14    1    6    6    0    0  0.55418760440E+01 -0.23684907547E+02  0.44006778279E+01  0.24719490306E+02  0.00000000000E+00 0. -1.
         -5    1    3    3    0  503 -0.93899889062E+02 -0.17876350083E+02 -0.77158417679E+02  0.12293195059E+03  0.47000000000E+01 0.  1.
         11    1    4    4    0    0 -0.23791653309E+02 -0.49010385422E+01 -0.90237888791E+01  0.25913157116E+02  0.00000000000E+00 0. -1.
        -12    1    4    4    0    0  0.32129233554E+02  0.71475560739E+02 -0.45863702445E+02  0.90799353707E+02  0.00000000000E+00 0.  1.
<mgrwt>
<rscale>  2 0.19943915E+03</rscale>
<asrwt>0</asrwt>
<pdfrwt beam="1">  1       21 0.48475359E-01 0.19998336E+03</pdfrwt>
<pdfrwt beam="2">  1       21 0.34351575E-01 0.19998336E+03</pdfrwt>
<totfact> 0.33058007E+04</totfact>
</mgrwt>
</event>
<event>
12    1  0.1019868E-001  0.3407926E+03  0.7546771E-02  0.1066758E+00
         21   -1    0    0  501  502  0.00000000000E+00  0.00000000000E+00  0.54071541650E+03  0.54071541650E+03  0.00000000000E+00 0. -1.
         21   -1    0    0  502  503 -0.00000000000E+00 -0.00000000000E+00 -0.21347257055E+03  0.21347257055E+03  0.00000000000E+00 0.  1.
         -6    2    1    2    0  503  0.64523567913E+02 -0.28471473489E+03  0.18155575725E+03  0.38613736738E+03  0.17582321352E+03 0.  0.
        -24    2    3    3    0    0  0.14724077069E+02 -0.93677038157E+02  0.94124368694E+01  0.12416255253E+03  0.79596228297E+02 0.  0.
          6    2    1    2  501    0 -0.64523567913E+02  0.28471473489E+03  0.14568708870E+03  0.36805061967E+03  0.17032545244E+03 0.  0.
         24    2    5    5    0    0 -0.83909984639E+02  0.12032160246E+03  0.42137395533E+02  0.17274172561E+03  0.80907169800E+02 0.  0.
          5    1    5    5  501    0  0.19386416727E+02  0.16439313243E+03  0.10354969316E+03  0.19530889406E+03  0.47000000000E+01 0. -1.
        -11    1    6    6    0    0 -0.30069507854E+02  0.10566260920E+03  0.15626221889E+02  0.11096369269E+03  0.00000000000E+00 0.  1.
         12    1    6    6    0    0 -0.53840476785E+02  0.14658993262E+02  0.26511173644E+02  0.61778032923E+02  0.00000000000E+00 0. -1.
         -5    1    3    3    0  503  0.49799490844E+02 -0.19103769674E+03  0.17214332038E+03  0.26197481485E+03  0.47000000000E+01 0.  1.
         11    1    4    4    0    0  0.13702813928E+02 -0.80664406338E+02  0.39876444619E+02  0.91020021945E+02  0.00000000000E+00 0. -1.
        -12    1    4    4    0    0  0.10212631407E+01 -0.13012631819E+02 -0.30464007750E+02  0.33142530583E+02  0.00000000000E+00 0.  1.
<mgrwt>
<rscale>  2 0.34008949E+03</rscale>
<asrwt>0</asrwt>
<pdfrwt beam="1">  1       21 0.83186987E-01 0.34079257E+03</pdfrwt>
<pdfrwt beam="2">  1       21 0.32841934E-01 0.34079257E+03</pdfrwt>
<totfact> 0.10393969E+04</totfact>
</mgrwt>
</event>
<event>
12    1  0.1019868E-001  0.2343148E+03  0.7546771E-02  0.1123990E+00
         21   -1    0    0  501  502  0.00000000000E+00  0.00000000000E+00  0.29626005697E+03  0.29626005697E+03  0.00000000000E+00 0. -1.
         21   -1    0    0  502  503 -0.00000000000E+00 -0.00000000000E+00 -0.40572838552E+03  0.40572838552E+03  0.00000000000E+00 0.  1.
         -6    2    1    2    0  503  0.15602712822E+03 -0.25864059134E+02 -0.31426379823E+03  0.39078975336E+03  0.17012196259E+03 0.  0.
        -24    2    3    3    0    0  0.29965089854E+02  0.30759103556E+02 -0.90795709200E+02  0.12800106090E+03  0.79349743036E+02 0.  0.
          6    2    1    2  501    0 -0.15602712822E+03  0.25864059134E+02  0.20479546968E+03  0.31119868914E+03  0.17288732002E+03 0.  0.
         24    2    5    5    0    0 -0.11933732600E+03  0.25323947821E+00  0.48322566409E+02  0.14838617387E+03  0.73769401948E+02 0.  0.
          5    1    5    5  501    0 -0.36689802219E+02  0.25610819656E+02  0.15647290328E+03  0.16281251527E+03  0.47000000000E+01 0. -1.
        -11    1    6    6    0    0 -0.89469521425E+02  0.33408966784E+02  0.36303844234E+02  0.10217104987E+03  0.00000000000E+00 0.  1.
         12    1    6    6    0    0 -0.29867804574E+02 -0.33155727306E+02  0.12018722175E+02  0.46215123996E+02  0.00000000000E+00 0. -1.
         -5    1    3    3    0  503  0.12606203836E+03 -0.56623162690E+02 -0.22346808903E+03  0.26278869246E+03  0.47000000000E+01 0.  1.
         13    1    4    4    0    0  0.29289325177E+02  0.54093213335E+01  0.38358692646E+01  0.30030638016E+02  0.00000000000E+00 0. -1.
        -14    1    4    4    0    0  0.67576467676E+00  0.25349782222E+02 -0.94631578464E+02  0.97970422880E+02  0.00000000000E+00 0.  1.
<mgrwt>
<rscale>  2 0.23380494E+03</rscale>
<asrwt>0</asrwt>
<pdfrwt beam="1">  1       21 0.45578471E-01 0.23431483E+03</pdfrwt>
<pdfrwt beam="2">  1       21 0.62419751E-01 0.23431483E+03</pdfrwt>
<totfact> 0.10695605E+04</totfact>
</mgrwt>
</event>
<event>
11    1  0.1019868E-001  0.1833451E+03  0.7546771E-02  0.1168290E+00
         21   -1    0    0  503  502  0.00000000000E+00  0.00000000000E+00  0.32560580328E+03  0.32560580328E+03  0.00000000000E+00 0.  1.
         21   -1    0    0  501  503 -0.00000000000E+00 -0.00000000000E+00 -0.10131670743E+03  0.10131670743E+03  0.00000000000E+00 0.  1.
          6    2    1    2  501    0 -0.10951000704E+02  0.58912847005E+02  0.54487931776E+02  0.17702679793E+03  0.15741316500E+03 0.  0.
         24    2    3    3    0    0  0.23100707461E+02 -0.13553070674E+02  0.46920539709E+02  0.96465122939E+02  0.79916547017E+02 0.  0.
         -6    2    1    2    0  502  0.10951000704E+02 -0.58912847005E+02  0.16980116407E+03  0.24989571279E+03  0.17327661121E+03 0.  0.
          5    1    3    3  501    0 -0.34051708165E+02  0.72465917679E+02  0.75673920670E+01  0.80561674987E+02  0.47000000000E+01 0. -1.
        -11    1    4    4    0    0 -0.66124794483E+01  0.27659312624E+02  0.33445446087E+02  0.43901712076E+02  0.00000000000E+00 0.  1.
         12    1    4    4    0    0  0.29713186909E+02 -0.41212383298E+02  0.13475093622E+02  0.52563410862E+02  0.00000000000E+00 0. -1.
         -5    1    5    5    0  502  0.39359989074E+02 -0.10446110247E+03  0.85725100267E+02  0.14082689191E+03  0.47000000000E+01 0.  1.
         13    1    5    5    0    0 -0.37377943571E+02  0.29175176117E+02  0.43256404785E+02  0.64182693321E+02  0.00000000000E+00 0. -1.
        -14    1    5    5    0    0  0.89689552018E+01  0.16373079349E+02  0.40819659014E+02  0.44886127554E+02  0.00000000000E+00 0.  1.
<mgrwt>
<rscale>  2 0.17949757E+03</rscale>
<asrwt>0</asrwt>
<pdfrwt beam="1">  1       21 0.50093200E-01 0.18334512E+03</pdfrwt>
<pdfrwt beam="2">  1       21 0.15587186E-01 0.18334512E+03</pdfrwt>
<totfact> 0.13925926E+05</totfact>
</mgrwt>
</event>
<event>
12    1  0.1019868E-001  0.2223422E+03  0.7546771E-02  0.1133144E+00
         21   -1    0    0  501  502  0.00000000000E+00  0.00000000000E+00  0.27261719216E+02  0.27261719216E+02  0.00000000000E+00 0. -1.
         21   -1    0    0  502  503 -0.00000000000E+00 -0.00000000000E+00 -0.20787412791E+04  0.20787412791E+04  0.00000000000E+00 0. -1.
         -6    2    1    2    0  503  0.12183586350E+03 -0.47517129628E+02 -0.14208645795E+04  0.14373391923E+04  0.17316450367E+03 0.  0.
        -24    2    3    3    0    0  0.85128187488E+02 -0.63546248129E+02 -0.56586743981E+03  0.58139142233E+03  0.80778045068E+02 0.  0.
          6    2    1    2  501    0 -0.12183586350E+03  0.47517129628E+02 -0.63061498045E+03  0.66866380603E+03  0.17981706451E+03 0.  0.
         24    2    5    5    0    0 -0.92961632079E+02  0.95945697508E+02 -0.36181922901E+03  0.39397799748E+03  0.80362093744E+02 0.  0.
          5    1    5    5  501    0 -0.28874231423E+02 -0.48428567880E+02 -0.26879575144E+03  0.27468580855E+03  0.47000000000E+01 0. -1.
        -13    1    6    6    0    0 -0.55518451336E+02  0.92716210961E+02 -0.19465639054E+03  0.22264254892E+03  0.00000000000E+00 0.  1.
         14    1    6    6    0    0 -0.37443180743E+02  0.32294865463E+01 -0.16716283847E+03  0.17133544856E+03  0.00000000000E+00 0. -1.
         -5    1    3    3    0  503  0.36707676014E+02  0.16029118501E+02 -0.85499713966E+03  0.85594776999E+03  0.47000000000E+01 0.  1.
         13    1    4    4    0    0  0.22800208776E+02  0.16142160291E+02 -0.71195210715E+02  0.76479911661E+02  0.00000000000E+00 0. -1.
        -14    1    4    4    0    0  0.62327978712E+02 -0.79688408419E+02 -0.49467222909E+03  0.50491151067E+03  0.00000000000E+00 0.  1.
<mgrwt>
<rscale>  2 0.22099370E+03</rscale>
<asrwt>0</asrwt>
<pdfrwt beam="1">  1       21 0.41941122E-02 0.22234215E+03</pdfrwt>
<pdfrwt beam="2">  1       21 0.31980623E+00 0.22234215E+03</pdfrwt>
<totfact> 0.91998593E+03</totfact>
</mgrwt>
</event>
<event>
12    1  0.1019868E-001  0.1731711E+03  0.7546771E-02  0.1174667E+00
         21   -1    0    0  503  502  0.00000000000E+00  0.00000000000E+00  0.45964551540E+03  0.45964551540E+03  0.00000000000E+00 0. -1.
         21   -1    0    0  501  503 -0.00000000000E+00 -0.00000000000E+00 -0.32598551095E+03  0.32598551095E+03  0.00000000000E+00 0. -1.
          6    2    1    2  501    0  0.50668156805E+00 -0.79873717283E+01 -0.28458402618E+03  0.33295421774E+03  0.17264526730E+03 0.  0.
         24    2    3    3    0    0 -0.48889206978E+02 -0.14141703313E+02 -0.85231856098E+02  0.12742755933E+03  0.79894751082E+02 0.  0.
         -6    2    1    2    0  502 -0.50668156805E+00  0.79873717283E+01  0.41824403063E+03  0.45267680861E+03  0.17298603720E+03 0.  0.
        -24    2    5    5    0    0 -0.59599888638E+02 -0.24879641178E+02  0.28207706227E+03  0.30057230200E+03  0.81271744178E+02 0.  0.
          5    1    3    3  501    0  0.49395888546E+02  0.61543315851E+01 -0.19935217008E+03  0.20552665842E+03  0.47000000000E+01 0. -1.
        -11    1    4    4    0    0  0.16437606236E+02 -0.21488728531E+02 -0.13875615544E+02  0.30405477457E+02  0.00000000000E+00 0.  1.
         12    1    4    4    0    0 -0.65326813215E+02  0.73470252172E+01 -0.71356240554E+02  0.97022081870E+02  0.00000000000E+00 0. -1.
         -5    1    5    5    0  502  0.59093207069E+02  0.32867012907E+02  0.13616696836E+03  0.15210450661E+03  0.47000000000E+01 0.  1.
         11    1    6    6    0    0  0.11333800175E+02  0.17727701473E+02  0.54780233791E+02  0.58682198665E+02  0.00000000000E+00 0. -1.
        -12    1    6    6    0    0 -0.70933688813E+02 -0.42607342651E+02  0.22729682848E+03  0.24189010334E+03  0.00000000000E+00 0.  1.
<mgrwt>
<rscale>  2 0.17308592E+03</rscale>
<asrwt>0</asrwt>
<pdfrwt beam="1">  1       21 0.70714694E-01 0.17317108E+03</pdfrwt>
<pdfrwt beam="2">  1       21 0.50151617E-01 0.17317108E+03</pdfrwt>
<totfact> 0.69625334E+03</totfact>
</mgrwt>
</event>
<event>
12    1  0.1019868E-001  0.3108977E+03  0.7546771E-02  0.1079964E+00
         21   -1    0    0  503  502  0.00000000000E+00  0.00000000000E+00  0.91618513490E+02  0.91618513490E+02  0.00000000000E+00 0. -1.
         21   -1    0    0  501  503 -0.00000000000E+00 -0.00000000000E+00 -0.11381818238E+04  0.11381818238E+04  0.00000000000E+00 0.  1.
          6    2    1    2  501    0 -0.26648186214E+01  0.25799174822E+03 -0.69055377004E+03  0.75714808235E+03  0.17274798373E+03 0.  0.
         24    2    3    3    0    0 -0.44074776006E+02  0.24824315178E+03 -0.61934851371E+03  0.67406921480E+03  0.84908636958E+02 0.  0.
         -6    2    1    2    0  502  0.26648186214E+01 -0.25799174822E+03 -0.35600954032E+03  0.47265225499E+03  0.17346618674E+03 0.  0.
        -24    2    5    5    0    0  0.51006474448E+02 -0.87675364464E+02 -0.13312252352E+03  0.18796769530E+03  0.85566455117E+02 0.  0.
          5    1    3    3  501    0  0.41409957385E+02  0.97485964383E+01 -0.71205256329E+02  0.83078867541E+02  0.47000000000E+01 0. -1.
        -11    1    4    4    0    0 -0.38909558953E+01  0.15367651815E+03 -0.45477100742E+03  0.48005029003E+03  0.00000000000E+00 0.  1.
         12    1    4    4    0    0 -0.40183820111E+02  0.94566633630E+02 -0.16457750629E+03  0.19401892477E+03  0.00000000000E+00 0. -1.
         -5    1    5    5    0  502 -0.48341655826E+02 -0.17031638376E+03 -0.22288701681E+03  0.28468455969E+03  0.47000000000E+01 0.  1.
         11    1    6    6    0    0  0.69780147324E+02 -0.58150692608E+02 -0.66020892444E+02  0.11229216469E+03  0.00000000000E+00 0. -1.
        -12    1    6    6    0    0 -0.18773672876E+02 -0.29524671856E+02 -0.67101631072E+02  0.75675530616E+02  0.00000000000E+00 0.  1.
<mgrwt>
<rscale>  2 0.31079758E+03</rscale>
<asrwt>0</asrwt>
<pdfrwt beam="1">  1       21 0.14095157E-01 0.31089767E+03</pdfrwt>
<pdfrwt beam="2">  1       21 0.17510488E+00 0.31089767E+03</pdfrwt>
<totfact> 0.79916780E+03</totfact>
</mgrwt>
</event>
<event>
12    1  0.1019868E-001  0.1849463E+03  0.7546771E-02  0.1163113E+00
         21   -1    0    0  503  502  0.00000000000E+00  0.00000000000E+00  0.50333282995E+02  0.50333282995E+02  0.00000000000E+00 0.  1.
         21   -1    0    0  501  503 -0.00000000000E+00 -0.00000000000E+00 -0.92895510556E+03  0.92895510556E+03  0.00000000000E+00 0.  1.
          6    2    1    2  501    0  0.41411771420E+02 -0.50962283510E+02 -0.18545621868E+03  0.26187379921E+03  0.17283456978E+03 0.  0.
         24    2    3    3    0    0 -0.18902331281E+02 -0.78099433254E+02 -0.14447800251E+03  0.18392817661E+03  0.80615515509E+02 0.  0.
         -6    2    1    2    0  502 -0.41411771420E+02  0.50962283510E+02 -0.69316560388E+03  0.71741458934E+03  0.17289606545E+03 0.  0.
        -24    2    5    5    0    0 -0.60179238168E+02  0.75758949044E+02 -0.33589881644E+03  0.35876609870E+03  0.80772146358E+02 0.  0.
          5    1    3    3  501    0  0.60314102701E+02  0.27137149744E+02 -0.40978216172E+02  0.77945622594E+02  0.47000000000E+01 0. -1.
        -13    1    4    4    0    0 -0.40098311813E+02 -0.58288445397E+02 -0.13664871110E+03  0.15387750883E+03  0.00000000000E+00 0.  1.
         14    1    4    4    0    0  0.21195980532E+02 -0.19810987857E+02 -0.78292914104E+01  0.30050667789E+02  0.00000000000E+00 0. -1.
         -5    1    5    5    0  502  0.18767466749E+02 -0.24796665534E+02 -0.35726678745E+03  0.35864849064E+03  0.47000000000E+01 0.  1.
         13    1    6    6    0    0 -0.67356667394E+02  0.51132669692E+02 -0.31352107889E+03  0.32472594208E+03  0.00000000000E+00 0. -1.
        -14    1    6    6    0    0  0.71774292260E+01  0.24626279352E+02 -0.22377737546E+02  0.34040156620E+02  0.00000000000E+00 0.  1.
<mgrwt>
<rscale>  2 0.18493194E+03</rscale>
<asrwt>0</asrwt>
<pdfrwt beam="1">  1       21 0.77435826E-02 0.18494631E+03</pdfrwt>
<pdfrwt beam="2">  1       21 0.14291616E+00 0.18494631E+03</pdfrwt>
<totfact> 0.43267033E+04</totfact>
</mgrwt>
</event>
<event>
12    1  0.1019868E-001  0.4093100E+03  0.7546771E-02  0.1040852E+00
         21   -1    0    0  503  502  0.00000000000E+00  0.00000000000E+00  0.86823247611E+03  0.86823247611E+03  0.00000000000E+00 0. -1.
         21   -1    0    0  501  503 -0.00000000000E+00 -0.00000000000E+00 -0.38494579778E+03  0.38494579778E+03  0.00000000000E+00 0. -1.
          6    2    1    2  501    0  0.40595390163E+02  0.36537663709E+03 -0.20289207784E+03  0.45419395083E+03  0.17314409341E+03 0.  0.
         24    2    3    3    0    0 -0.12204234286E+02  0.96500042834E+02 -0.10427096086E+03  0.16293695435E+03  0.78834105646E+02 0.  0.
         -6    2    1    2    0  502 -0.40595390163E+02 -0.36537663709E+03  0.68617875617E+03  0.79898432306E+03  0.17996274739E+03 0.  0.
        -24    2    5    5    0    0 -0.14773053724E+02 -0.56518354288E+02  0.17619224185E+03  0.20218572496E+03  0.80142334633E+02 0.  0.
          5    1    3    3  501    0  0.52799624449E+02  0.26887659426E+03 -0.98621116976E+02  0.29125699647E+03  0.47000000000E+01 0. -1.
        -11    1    4    4    0    0 -0.18497681224E+02 -0.77441428944E+01 -0.10769891096E+02  0.22762392538E+02  0.00000000000E+00 0.  1.
         12    1    4    4    0    0  0.62934469380E+01  0.10424418573E+03 -0.93501069767E+02  0.14017456182E+03  0.00000000000E+00 0. -1.
         -5    1    5    5    0  502 -0.25822336439E+02 -0.30885828280E+03  0.50998651432E+03  0.59679859810E+03  0.47000000000E+01 0.  1.
         11    1    6    6    0    0 -0.38493027981E+02 -0.13059489304E+02  0.12288306337E+03  0.12943149048E+03  0.00000000000E+00 0. -1.
        -12    1    6    6    0    0  0.23719974256E+02 -0.43458864984E+02  0.53309178477E+02  0.72754234477E+02  0.00000000000E+00 0.  1.
<mgrwt>
<rscale>  2 0.40857002E+03</rscale>
<asrwt>0</asrwt>
<pdfrwt beam="1">  1       21 0.13357423E+00 0.40930998E+03</pdfrwt>
<pdfrwt beam="2">  1       21 0.59222431E-01 0.40930998E+03</pdfrwt>
<totfact> 0.92591557E+02</totfact>
</mgrwt>
</event>
<event>
12    1  0.1019868E-001  0.4923749E+03  0.7546771E-02  0.1015838E+00
         21   -1    0    0  501  502  0.00000000000E+00  0.00000000000E+00  0.33313954047E+03  0.33313954047E+03  0.00000000000E+00 0.  1.
         21   -1    0    0  502  503 -0.00000000000E+00 -0.00000000000E+00 -0.84868015981E+03  0.84868015981E+03  0.00000000000E+00 0. -1.
         -6    2    1    2    0  503  0.44224846325E+03 -0.12718192372E+03 -0.33502950039E+02  0.49276718748E+03  0.17302632293E+03 0.  0.
        -24    2    3    3    0    0  0.27794439369E+03 -0.85193023371E+02  0.45619789670E+02  0.30557372348E+03  0.82360172744E+02 0.  0.
          6    2    1    2  501    0 -0.44224846325E+03  0.12718192372E+03 -0.48203766930E+03  0.68905251279E+03  0.17514024606E+03 0.  0.
         24    2    5    5    0    0 -0.15091294904E+03  0.38172065244E+02 -0.25356867236E+03  0.30823850397E+03  0.80511359309E+02 0.  0.
          5    1    5    5  501    0 -0.29133551422E+03  0.89009858471E+02 -0.22846899694E+03  0.38081400882E+03  0.47000000000E+01 0. -1.
        -13    1    6    6    0    0  0.82406539059E+01 -0.41039436491E+01 -0.63031262710E+01  0.11157066418E+02  0.00000000000E+00 0.  1.
         14    1    6    6    0    0 -0.15915360294E+03  0.42276008893E+02 -0.24726554609E+03  0.29708143756E+03  0.00000000000E+00 0. -1.
         -5    1    3    3    0  503  0.16430406956E+03 -0.41988900344E+02 -0.79122739708E+02  0.18719346400E+03  0.47000000000E+01 0.  1.
         11    1    4    4    0    0  0.13269930200E+03 -0.86310484281E+01  0.47972970938E+02  0.14136833340E+03  0.00000000000E+00 0. -1.
        -12    1    4    4    0    0  0.14524509170E+03 -0.76561974943E+02 -0.23531812684E+01  0.16420539008E+03  0.00000000000E+00 0.  1.
<mgrwt>
<rscale>  2 0.49218781E+03</rscale>
<asrwt>0</asrwt>
<pdfrwt beam="1">  1       21 0.51252237E-01 0.49237491E+03</pdfrwt>
<pdfrwt beam="2">  1       21 0.13056618E+00 0.49237491E+03</pdfrwt>
<totfact> 0.12967084E+03</totfact>
</mgrwt>
</event>
<event>
12    1  0.1019868E-001  0.2191972E+03  0.7546771E-02  0.1135312E+00
         21   -1    0    0  501  502  0.00000000000E+00  0.00000000000E+00  0.22136733710E+03  0.22136733710E+03  0.00000000000E+00 0.  1.
         21   -1    0    0  502  503 -0.00000000000E+00 -0.00000000000E+00 -0.22568102081E+03  0.22568102081E+03  0.00000000000E+00 0. -1.
         -6    2    1    2    0  503  0.64873498776E+02 -0.11093638177E+03 -0.55674631657E+02  0.22191428142E+03  0.17213608583E+03 0.  0.
        -24    2    3    3    0    0  0.25208361140E+01 -0.26739601359E+01 -0.54104296211E+02  0.96881635950E+02  0.80282450376E+02 0.  0.
          6    2    1    2  501    0 -0.64873498776E+02  0.11093638177E+03  0.51360947948E+02  0.22513407650E+03  0.17757239026E+03 0.  0.
         24    2    5    5    0    0 -0.79807448259E+02  0.89131087628E+02  0.95970316408E+02  0.17307085096E+03  0.80185025033E+02 0.  0.
          5    1    5    5  501    0  0.14933949483E+02  0.21805294143E+02 -0.44609368460E+02  0.52063225546E+02  0.47000000000E+01 0. -1.
        -11    1    6    6    0    0 -0.18371284836E+02  0.76807603187E+02  0.68931750647E+02  0.10482603809E+03  0.00000000000E+00 0.  1.
         12    1    6    6    0    0 -0.61436163424E+02  0.12323484441E+02  0.27038565761E+02  0.68244812868E+02  0.00000000000E+00 0. -1.
         -5    1    3    3    0  503  0.62352662662E+02 -0.10826242163E+03 -0.15703354464E+01  0.12503264547E+03  0.47000000000E+01 0.  1.
         11    1    4    4    0    0  0.34272463191E+02  0.16129961882E+02 -0.45101158827E+02  0.58897299862E+02  0.00000000000E+00 0. -1.
        -12    1    4    4    0    0 -0.31751627077E+02 -0.18803922018E+02 -0.90031373840E+01  0.37984336088E+02  0.00000000000E+00 0.  1.
<mgrwt>
<rscale>  2 0.21809380E+03</rscale>
<asrwt>0</asrwt>
<pdfrwt beam="1">  1       21 0.34056513E-01 0.21919718E+03</pdfrwt>
<pdfrwt beam="2">  1       21 0.34720157E-01 0.21919718E+03</pdfrwt>
<totfact> 0.65648430E+04</totfact>
</mgrwt>
</event>
<event>
12    1  0.1019868E-001  0.2220132E+03  0.7546771E-02  0.1132400E+00
         21   -1    0    0  501  502  0.00000000000E+00  0.00000000000E+00  0.47495000220E+03  0.47495000220E+03  0.00000000000E+00 0. -1.
         21   -1    0    0  502  503 -0.00000000000E+00 -0.00000000000E+00 -0.11087464041E+03  0.11087464041E+03  0.00000000000E+00 0.  1.
         -6    2    1    2    0  503 -0.62569427304E+02 -0.12527904354E+03  0.25626876117E+03  0.33906270786E+03  0.17227904668E+03 0.  0.
        -24    2    3    3    0    0 -0.37183277896E+02  0.22048726993E+02  0.71079287323E+02  0.10101405784E+03  0.57296005776E+02 0.  0.
          6    2    1    2  501    0  0.62569427304E+02  0.12527904354E+03  0.10780660063E+03  0.24676193476E+03  0.17221909686E+03 0.  0.
         24    2    5    5    0    0 -0.28623487933E+02  0.65064640054E+02  0.16999871622E+02  0.10460049762E+03  0.74830187898E+02 0.  0.
          5    1    5    5  501    0  0.91192915237E+02  0.60214403486E+02  0.90806729003E+02  0.14216143714E+03  0.47000000000E+01 0. -1.
        -11    1    6    6    0    0  0.24648367635E+02  0.32383413562E+02  0.58209386534E+01  0.41110957515E+02  0.00000000000E+00 0.  1.
         12    1    6    6    0    0 -0.53271855568E+02  0.32681226492E+02  0.11178932969E+02  0.63489540107E+02  0.00000000000E+00 0. -1.
         -5    1    3    3    0  503 -0.25386149408E+02 -0.14732777053E+03  0.18518947385E+03  0.23804865002E+03  0.47000000000E+01 0.  1.
         11    1    4    4    0    0  0.14399148003E+01  0.10718852897E+02  0.57539514836E+02  0.58547100096E+02  0.00000000000E+00 0. -1.
        -12    1    4    4    0    0 -0.38623192696E+02  0.11329874096E+02  0.13539772487E+02  0.42466957744E+02  0.00000000000E+00 0.  1.
<mgrwt>
<rscale>  2 0.22200153E+03</rscale>
<asrwt>0</asrwt>
<pdfrwt beam="1">  1       21 0.73069230E-01 0.22201316E+03</pdfrwt>
<pdfrwt beam="2">  1       21 0.17057637E-01 0.22201316E+03</pdfrwt>
<totfact> 0.51515224E+04</totfact>
</mgrwt>
</event>
<event>
12    1  0.1019868E-001  0.1946324E+03  0.7546771E-02  0.1154580E+00
         21   -1    0    0  503  502  0.00000000000E+00  0.00000000000E+00  0.12838073024E+03  0.12838073024E+03  0.00000000000E+00 0.  1.
         21   -1    0    0  501  503 -0.00000000000E+00 -0.00000000000E+00 -0.31044441801E+03  0.31044441801E+03  0.00000000000E+00 0.  1.
          6    2    1    2  501    0  0.41469933578E+02  0.75220157405E+02 -0.14256824052E+03  0.24126224687E+03  0.17465377491E+03 0.  0.
         24    2    3    3    0    0  0.45588451007E+02  0.52027494905E+02 -0.17301173973E+03  0.20248392273E+03  0.79255976349E+02 0.  0.
         -6    2    1    2    0  502 -0.41469933578E+02 -0.75220157405E+02 -0.39495447251E+02  0.19756290138E+03  0.17347444244E+03 0.  0.
        -24    2    5    5    0    0  0.28856627312E+02 -0.40714450675E+02  0.26282829899E+02  0.95164948726E+02  0.76649911187E+02 0.  0.
          5    1    3    3  501    0 -0.41185174290E+01  0.23192662500E+02  0.30443499211E+02  0.38778324149E+02  0.47000000000E+01 0. -1.
        -11    1    4    4    0    0  0.23687322125E+02  0.64715615101E+02 -0.15959163793E+03  0.17383524086E+03  0.00000000000E+00 0.  1.
         12    1    4    4    0    0  0.21901128881E+02 -0.12688120196E+02 -0.13420101798E+02  0.28648681866E+02  0.00000000000E+00 0. -1.
         -5    1    5    5    0  502 -0.70326560890E+02 -0.34505706731E+02 -0.65778277150E+02  0.10239795266E+03  0.47000000000E+01 0.  1.
         11    1    6    6    0    0  0.41678922394E+02 -0.24553267388E+02 -0.13611652651E+02  0.50252090496E+02  0.00000000000E+00 0. -1.
        -12    1    6    6    0    0 -0.12822295082E+02 -0.16161183287E+02  0.39894482550E+02  0.44912858230E+02  0.00000000000E+00 0.  1.
<mgrwt>
<rscale>  2 0.19436746E+03</rscale>
<asrwt>0</asrwt>
<pdfrwt beam="1">  1       21 0.19750882E-01 0.19463239E+03</pdfrwt>
<pdfrwt beam="2">  1       21 0.47760679E-01 0.19463239E+03</pdfrwt>
<totfact> 0.98959445E+04</totfact>
</mgrwt>
</event>
<event>
12    1  0.1019868E-001  0.1840328E+03  0.7546771E-02  0.1163963E+00
         21   -1    0    0  501  502  0.00000000000E+00  0.00000000000E+00  0.44931413313E+03  0.44931413313E+03  0.00000000000E+00 0. -1.
         21   -1    0    0  502  503 -0.00000000000E+00 -0.00000000000E+00 -0.98002966223E+02  0.98002966223E+02  0.00000000000E+00 0. -1.
         -6    2    1    2    0  503  0.60522630059E+02 -0.10914519091E+02  0.30718777703E+03  0.35809552803E+03  0.17345305234E+03 0.  0.
        -24    2    3    3    0    0  0.55793838166E+02 -0.39211531620E+00  0.32372335536E+03  0.33739292422E+03  0.76967969822E+02 0.  0.
          6    2    1    2  501    0 -0.60522630059E+02  0.10914519091E+02  0.44123389883E+02  0.18922157132E+03  0.17342379895E+03 0.  0.
         24    2    5    5    0    0 -0.92950172673E+02 -0.37669153886E+01  0.76001188868E+02  0.14120725985E+03  0.74225233397E+02 0.  0.
          5    1    5    5  501    0  0.32427542614E+02  0.14681434480E+02 -0.31877798985E+02  0.48014311475E+02  0.47000000000E+01 0. -1.
        -11    1    6    6    0    0 -0.97249183121E+02  0.16024083429E+02  0.59908392486E+02  0.11533945707E+03  0.00000000000E+00 0.  1.
         12    1    6    6    0    0  0.42990104483E+01 -0.19790998817E+02  0.16092796382E+02  0.25867802775E+02  0.00000000000E+00 0. -1.
         -5    1    3    3    0  503  0.47287918933E+01 -0.10522403775E+02 -0.16535578329E+02  0.20702603813E+02  0.47000000000E+01 0.  1.
         11    1    4    4    0    0  0.42090135698E+02  0.25130217256E+02  0.28416221209E+03  0.28835961944E+03  0.00000000000E+00 0. -1.
        -12    1    4    4    0    0  0.13703702468E+02 -0.25522332572E+02  0.39561143265E+02  0.49033304780E+02  0.00000000000E+00 0.  1.
<mgrwt>
<rscale>  2 0.18402592E+03</rscale>
<asrwt>0</asrwt>
<pdfrwt beam="1">  1       21 0.69125250E-01 0.18403281E+03</pdfrwt>
<pdfrwt beam="2">  1       21 0.15077380E-01 0.18403281E+03</pdfrwt>
<totfact> 0.74301749E+04</totfact>
</mgrwt>
</event>
<event>
12    1  0.1019868E-001  0.1857664E+03  0.7546771E-02  0.1162491E+00
         21   -1    0    0  503  502  0.00000000000E+00  0.00000000000E+00  0.24155370433E+03  0.24155370433E+03  0.00000000000E+00 0. -1.
         21   -1    0    0  501  503 -0.00000000000E+00 -0.00000000000E+00 -0.24154414388E+03  0.24154414388E+03  0.00000000000E+00 0. -1.
          6    2    1    2  501    0  0.32155017069E+02 -0.59024845985E+02 -0.15478547245E+03  0.24180091691E+03  0.17317985844E+03 0.  0.
         24    2    3    3    0    0  0.34084002299E+02  0.23589511355E+02 -0.34224123317E+02  0.95561449155E+02  0.79009592387E+02 0.  0.
         -6    2    1    2    0  502 -0.32155017069E+02  0.59024845985E+02  0.15479503290E+03  0.24129693131E+03  0.17246689329E+03 0.  0.
        -24    2    5    5    0    0  0.31013655835E+01  0.40850155247E+02  0.17634096910E+03  0.19591357237E+03  0.74884155901E+02 0.  0.
          5    1    3    3  501    0 -0.19289852303E+01 -0.82614357340E+02 -0.12056134914E+03  0.14623946775E+03  0.47000000000E+01 0. -1.
        -13    1    4    4    0    0  0.20644770072E+02 -0.27366671342E+02 -0.24087232198E+02  0.41896730023E+02  0.00000000000E+00 0.  1.
         14    1    4    4    0    0  0.13439232228E+02  0.50956182698E+02 -0.10136891118E+02  0.53664719132E+02  0.00000000000E+00 0. -1.
         -5    1    5    5    0  502 -0.35256382653E+02  0.18174690738E+02 -0.21545936200E+02  0.45383358931E+02  0.47000000000E+01 0.  1.
         13    1    6    6    0    0  0.38260780516E+02  0.27055094352E+02  0.84778010709E+02  0.96866798005E+02  0.00000000000E+00 0. -1.
        -14    1    6    6    0    0 -0.35159414932E+02  0.13795060895E+02  0.91562958392E+02  0.99046774369E+02  0.00000000000E+00 0.  1.
<mgrwt>
<rscale>  2 0.18560002E+03</rscale>
<asrwt>0</asrwt>
<pdfrwt beam="1">  1       21 0.37162109E-01 0.18576636E+03</pdfrwt>
<pdfrwt beam="2">  1       21 0.37160637E-01 0.18576636E+03</pdfrwt>
<totfact> 0.48932058E+04</totfact>
</mgrwt>
</event>
<event>
12    1  0.1019868E-001  0.4624197E+03  0.7546771E-02  0.1024118E+00
         21   -1    0    0  501  502  0.00000000000E+00  0.00000000000E+00  0.77795035826E+03  0.77795035826E+03  0.00000000000E+00 0. -1.
         21   -1    0    0  502  503 -0.00000000000E+00 -0.00000000000E+00 -0.35962430918E+03  0.35962430918E+03  0.00000000000E+00 0.  1.
         -6    2    1    2    0  503 -0.39980952172E+03  0.15453697407E+03  0.48586673891E+03  0.67074471400E+03  0.17350116244E+03 0.  0.
        -24    2    3    3    0    0 -0.20325811793E+03  0.54914648020E+02  0.33597222733E+03  0.40419731337E+03  0.78540750747E+02 0.  0.
          6    2    1    2  501    0  0.39980952172E+03 -0.15453697407E+03 -0.67540689838E+02  0.46682995344E+03  0.17216018888E+03 0.  0.
         24    2    5    5    0    0  0.10537669542E+03 -0.16737639846E+02  0.36445535872E+01  0.13401052102E+03  0.81000866958E+02 0.  0.
          5    1    5    5  501    0  0.29443282630E+03 -0.13779933423E+03 -0.71185243425E+02  0.33281943242E+03  0.47000000000E+01 0. -1.
        -11    1    6    6    0    0  0.80960067837E+02  0.60317538165E+00  0.37144027151E+02  0.89076232282E+02  0.00000000000E+00 0.  1.
         12    1    6    6    0    0  0.24416627582E+02 -0.17340815228E+02 -0.33499473563E+02  0.44934288737E+02  0.00000000000E+00 0. -1.
         -5    1    3    3    0  503 -0.19655140379E+03  0.99622326055E+02  0.14989451158E+03  0.26654740063E+03  0.47000000000E+01 0.  1.
         11    1    4    4    0    0 -0.14806910776E+03  0.72778301171E+02  0.22538875124E+03  0.27932280783E+03  0.00000000000E+00 0. -1.
        -12    1    4    4    0    0 -0.55189010171E+02 -0.17863653151E+02  0.11058347610E+03  0.12487450554E+03  0.00000000000E+00 0.  1.
<mgrwt>
<rscale>  2 0.46229429E+03</rscale>
<asrwt>0</asrwt>
<pdfrwt beam="1">  1       21 0.11968467E+00 0.46241970E+03</pdfrwt>
<pdfrwt beam="2">  1       21 0.55326817E-01 0.46241970E+03</pdfrwt>
<totfact> 0.13923327E+03</totfact>
</mgrwt>
</event>
<event>
12    1  0.1019868E-001  0.1877459E+03  0.7546771E-02  0.1160946E+00
         21   -1    0    0  501  502  0.00000000000E+00  0.00000000000E+00  0.41567057392E+02  0.41567057392E+02  0.00000000000E+00 0.  1.
         21   -1    0    0  502  503 -0.00000000000E+00 -0.00000000000E+00 -0.96918627323E+03  0.96918627323E+03  0.00000000000E+00 0.  1.
         -6    2    1    2    0  503  0.67100830677E+02  0.35492923286E+01 -0.65074227724E+03  0.67728430557E+03  0.17530944136E+03 0.  0.
        -24    2    3    3    0    0  0.29806902055E+02 -0.57910424901E+02 -0.25951429586E+03  0.27947837629E+03  0.80736759513E+02 0.  0.
          6    2    1    2  501    0 -0.67100830677E+02 -0.35492923286E+01 -0.27687693860E+03  0.33346902505E+03  0.17327905987E+03 0.  0.
         24    2    5    5    0    0  0.11998892293E+02 -0.37074155877E+02 -0.19854562479E+03  0.21711367548E+03  0.78737008512E+02 0.  0.
          5    1    5    5  501    0 -0.79099722971E+02  0.33524863548E+02 -0.78331313811E+02  0.11635534957E+03  0.47000000000E+01 0. -1.
        -13    1    6    6    0    0 -0.95502495439E+01  0.60889991818E+01  0.14162713652E+01  0.11414420790E+02  0.00000000000E+00 0.  1.
         14    1    6    6    0    0  0.21549141837E+02 -0.43163155059E+02 -0.19996189615E+03  0.20569925469E+03  0.00000000000E+00 0. -1.
         -5    1    3    3    0  503  0.37293928622E+02  0.61459717229E+02 -0.39122798138E+03  0.39780592928E+03  0.47000000000E+01 0.  1.
         11    1    4    4    0    0 -0.20851228826E+02 -0.45297064565E+02 -0.15178724000E+03  0.15976847007E+03  0.00000000000E+00 0. -1.
        -12    1    4    4    0    0  0.50658130881E+02 -0.12613360335E+02 -0.10772705585E+03  0.11970990622E+03  0.00000000000E+00 0.  1.
<mgrwt>
<rscale>  2 0.18727047E+03</rscale>
<asrwt>0</asrwt>
<pdfrwt beam="1">  1       21 0.63949321E-02 0.18774589E+03</pdfrwt>
<pdfrwt beam="2">  1       21 0.14910558E+00 0.18774589E+03</pdfrwt>
<totfact> 0.53815210E+04</totfact>
</mgrwt>
</event>
<event>
12    1  0.1019868E-001  0.2112011E+03  0.7546771E-02  0.1140885E+00
         21   -1    0    0  501  502  0.00000000000E+00  0.00000000000E+00  0.30030145725E+03  0.30030145725E+03  0.00000000000E+00 0.  1.
         21   -1    0    0  502  503 -0.00000000000E+00 -0.00000000000E+00 -0.26336770778E+03  0.26336770778E+03  0.00000000000E+00 0.  1.
         -6    2    1    2    0  503 -0.11599709855E+03 -0.32466894227E+02 -0.16843060752E+03  0.26908398150E+03  0.17183682219E+03 0.  0.
        -24    2    3    3    0    0 -0.25995281735E+02 -0.13729160781E+02 -0.15339796094E+03  0.17581287050E+03  0.80715466203E+02 0.  0.
          6    2    1    2  501    0  0.11599709855E+03  0.32466894227E+02  0.20536435699E+03  0.29458518352E+03  0.17348338576E+03 0.  0.
         24    2    5    5    0    0  0.58600060659E+02  0.53677981427E+02  0.45505014055E+02  0.12335017045E+03  0.82639369830E+02 0.  0.
          5    1    5    5  501    0  0.57397037890E+02 -0.21211087200E+02  0.15985934294E+03  0.17123501308E+03  0.47000000000E+01 0. -1.
        -11    1    6    6    0    0  0.43109158773E+02  0.60167409110E+02  0.64370193099E+02  0.98091989728E+02  0.00000000000E+00 0.  1.
         12    1    6    6    0    0  0.15490901885E+02 -0.64894276831E+01 -0.18865179044E+02  0.25258180719E+02  0.00000000000E+00 0. -1.
         -5    1    3    3    0  503 -0.90001816814E+02 -0.18737733446E+02 -0.15032646577E+02  0.93271111002E+02  0.47000000000E+01 0.  1.
         11    1    4    4    0    0  0.13888114091E+02 -0.14181876034E+01 -0.12394190375E+03  0.12472564481E+03  0.00000000000E+00 0. -1.
        -12    1    4    4    0    0 -0.39883395826E+02 -0.12310973178E+02 -0.29456057195E+02  0.51087225690E+02  0.00000000000E+00 0.  1.
<mgrwt>
<rscale>  2 0.21086270E+03</rscale>
<asrwt>0</asrwt>
<pdfrwt beam="1">  1       21 0.46200224E-01 0.21120112E+03</pdfrwt>
<pdfrwt beam="2">  1       21 0.40518109E-01 0.21120112E+03</pdfrwt>
<totfact> 0.26071572E+04</totfact>
</mgrwt>
</event>
<event>
12    1  0.1019868E-001  0.2203526E+03  0.7546771E-02  0.1134003E+00
         21   -1    0    0  501  502  0.00000000000E+00  0.00000000000E+00  0.70427262390E+03  0.70427262390E+03  0.00000000000E+00 0.  1.
         21   -1    0    0  502  503 -0.00000000000E+00 -0.00000000000E+00 -0.68398372303E+02  0.68398372303E+02  0.00000000000E+00 0. -1.
         -6    2    1    2    0  503 -0.85592395812E+02  0.10561074271E+03  0.33068944675E+03  0.39624964772E+03  0.17081740522E+03 0.  0.
        -24    2    3    3    0    0 -0.76502862861E+02  0.13190907303E+03  0.32434977990E+03  0.36732728331E+03  0.80460311771E+02 0.  0.
          6    2    1    2  501    0  0.85592395812E+02 -0.10561074271E+03  0.30518480485E+03  0.37642134849E+03  0.17342312213E+03 0.  0.
         24    2    5    5    0    0  0.10569956149E+02 -0.79988930725E+02  0.83648852456E+02  0.14108093142E+03  0.79979657927E+02 0.  0.
          5    1    5    5  501    0  0.75022439662E+02 -0.25621811989E+02  0.22153595239E+03  0.23534041707E+03  0.47000000000E+01 0. -1.
        -13    1    6    6    0    0  0.27387134623E+01  0.16114481844E+02  0.64883194912E+01  0.17586226609E+02  0.00000000000E+00 0.  1.
         14    1    6    6    0    0  0.78312426868E+01 -0.96103412568E+02  0.77160532965E+02  0.12349470481E+03  0.00000000000E+00 0. -1.
         -5    1    3    3    0  503 -0.90895329510E+01 -0.26298330321E+02  0.63396668500E+01  0.28922364404E+02  0.47000000000E+01 0.  1.
         11    1    4    4    0    0 -0.68053091582E+02  0.55901746440E+02  0.11785426754E+03  0.14712531021E+03  0.00000000000E+00 0. -1.
        -12    1    4    4    0    0 -0.84497712788E+01  0.76007326595E+02  0.20649551236E+03  0.22020197310E+03  0.00000000000E+00 0.  1.
<mgrwt>
<rscale>  2 0.21983960E+03</rscale>
<asrwt>0</asrwt>
<pdfrwt beam="1">  1       21 0.10834963E+00 0.22035260E+03</pdfrwt>
<pdfrwt beam="2">  1       21 0.10522827E-01 0.22035260E+03</pdfrwt>
<totfact> 0.49528641E+04</totfact>
</mgrwt>
</event>
<event>
12    1  0.1019868E-001  0.1787920E+03  0.7546771E-02  0.1170198E+00
         21   -1    0    0  503  502  0.00000000000E+00  0.00000000000E+00  0.29920303778E+03  0.29920303778E+03  0.00000000000E+00 0. -1.
         21   -1    0    0  501  503 -0.00000000000E+00 -0.00000000000E+00 -0.10505283529E+03  0.10505283529E+03  0.00000000000E+00 0. -1.
          6    2    1    2  501    0 -0.11424100833E+02  0.12892178717E+01  0.11675825570E+03  0.20943267255E+03  0.17348597032E+03 0.  0.
         24    2    3    3    0    0  0.24178846959E+02 -0.32332880597E+02  0.84713934363E+01  0.90495084151E+02  0.80545415393E+02 0.  0.
         -6    2    1    2    0  502  0.11424100833E+02 -0.12892178717E+01  0.77391946791E+02  0.19482320052E+03  0.17842195456E+03 0.  0.
        -24    2    5    5    0    0  0.77370683577E+01 -0.31570128301E+01 -0.31077112813E+02  0.86173719348E+02  0.79939314538E+02 0.  0.
          5    1    3    3  501    0 -0.35602947792E+02  0.33622098468E+02  0.10828686226E+03  0.11893758840E+03  0.47000000000E+01 0. -1.
        -11    1    4    4    0    0 -0.29456725738E+02 -0.16537661613E+02  0.73445515991E+01  0.34570730120E+02  0.00000000000E+00 0.  1.
         12    1    4    4    0    0  0.53635572697E+02 -0.15795218983E+02  0.11268418372E+01  0.55924354031E+02  0.00000000000E+00 0. -1.
         -5    1    5    5    0  502  0.36870324754E+01  0.18677949584E+01  0.10846905960E+03  0.10864948117E+03  0.47000000000E+01 0.  1.
         13    1    6    6    0    0  0.28464299761E+02 -0.33282948597E+02 -0.17696335365E+02  0.47234852742E+02  0.00000000000E+00 0. -1.
        -14    1    6    6    0    0 -0.20727231403E+02  0.30125935767E+02 -0.13380777448E+02  0.38938866606E+02  0.00000000000E+00 0.  1.
<mgrwt>
<rscale>  2 0.17754766E+03</rscale>
<asrwt>0</asrwt>
<pdfrwt beam="1">  1       21 0.46031236E-01 0.17879196E+03</pdfrwt>
<pdfrwt beam="2">  1       21 0.16161975E-01 0.17879196E+03</pdfrwt>
<totfact> 0.15551034E+05</totfact>
</mgrwt>
</event>
<event>
12    1  0.1019868E-001  0.2796871E+03  0.7546771E-02  0.1096035E+00
         21   -1    0    0  501  502  0.00000000000E+00  0.00000000000E+00  0.21557735217E+03  0.21557735217E+03  0.00000000000E+00 0.  1.
         21   -1    0    0  502  503 -0.00000000000E+00 -0.00000000000E+00 -0.43067948793E+03  0.43067948793E+03  0.00000000000E+00 0. -1.
         -6    2    1    2    0  503  0.20332992241E+03 -0.82233056877E+02 -0.23753139813E+03  0.36694142954E+03  0.17354974684E+03 0.  0.
        -24    2    3    3    0    0  0.16291234980E+03 -0.39595314231E+02 -0.86534107807E+02  0.20484939100E+03  0.79792847763E+02 0.  0.
          6    2    1    2  501    0 -0.20332992241E+03  0.82233056877E+02  0.22429262370E+02  0.27931541055E+03  0.17148963166E+03 0.  0.
         24    2    5    5    0    0 -0.19437102798E+03  0.11134770180E+03  0.37861343106E+02  0.24484566361E+03  0.91309969174E+02 0.  0.
          5    1    5    5  501    0 -0.89588944279E+01 -0.29114644922E+02 -0.15432080736E+02  0.34469746940E+02  0.47000000000E+01 0. -1.
        -13    1    6    6    0    0 -0.13215085112E+03  0.63636876692E+02 -0.19126173303E+02  0.14791656443E+03  0.00000000000E+00 0.  1.
         14    1    6    6    0    0 -0.62220176862E+02  0.47710825106E+02  0.56987516410E+02  0.96929099179E+02  0.00000000000E+00 0. -1.
         -5    1    3    3    0  503  0.40417572615E+02 -0.42637742646E+02 -0.15099729032E+03  0.16209203854E+03  0.47000000000E+01 0.  1.
         11    1    4    4    0    0  0.13297266561E+03 -0.58485314329E+02 -0.87225427054E+02  0.16944183933E+03  0.00000000000E+00 0. -1.
        -12    1    4    4    0    0  0.29939684183E+02  0.18890000098E+02  0.69131924615E+00  0.35407551666E+02  0.00000000000E+00 0.  1.
<mgrwt>
<rscale>  2 0.27936810E+03</rscale>
<asrwt>0</asrwt>
<pdfrwt beam="1">  1       21 0.33165747E-01 0.27968705E+03</pdfrwt>
<pdfrwt beam="2">  1       21 0.66258382E-01 0.27968705E+03</pdfrwt>
<totfact> 0.17473790E+04</totfact>
</mgrwt>
</event>
<event>
12    1  0.1019868E-001  0.1750487E+03  0.7546771E-02  0.1172790E+00
         21   -1    0    0  503  502  0.00000000000E+00  0.00000000000E+00  0.18742719972E+03  0.18742719972E+03  0.00000000000E+00 0. -1.
         21   -1    0    0  501  503 -0.00000000000E+00 -0.00000000000E+00 -0.96606312103E+03  0.96606312103E+03  0.00000000000E+00 0. -1.
          6    2    1    2  501    0  0.60437257573E+01  0.16379008757E+02 -0.91505110733E+03  0.93156434698E+03  0.17374925896E+03 0.  0.
         24    2    3    3    0    0  0.69077851431E+02 -0.13409212628E+01 -0.49164617986E+03  0.50310067346E+03  0.81368137733E+02 0.  0.
         -6    2    1    2    0  502 -0.60437257573E+01 -0.16379008757E+02  0.13641518603E+03  0.22192597376E+03  0.17417587750E+03 0.  0.
        -24    2    5    5    0    0 -0.34920403693E+02 -0.28051495362E+02  0.15919022335E+03  0.18305565350E+03  0.78495376193E+02 0.  0.
          5    1    3    3  501    0 -0.63034125674E+02  0.17719930020E+02 -0.42340492747E+03  0.42846367352E+03  0.47000000000E+01 0. -1.
        -13    1    4    4    0    0  0.54610628806E+02 -0.34856067676E+02 -0.23108753335E+03  0.23999732145E+03  0.00000000000E+00 0.  1.
         14    1    4    4    0    0  0.14467222625E+02  0.33515146413E+02 -0.26055864651E+03  0.26310335201E+03  0.00000000000E+00 0. -1.
         -5    1    5    5    0  502  0.28876677936E+02  0.11672486604E+02 -0.22775037321E+02  0.38870320260E+02  0.47000000000E+01 0.  1.
         11    1    6    6    0    0 -0.25797343525E+02 -0.49070375750E+00  0.15057949269E+03  0.15277410560E+03  0.00000000000E+00 0. -1.
        -12    1    6    6    0    0 -0.91230601684E+01 -0.27560791604E+02  0.86107306522E+01  0.30281547897E+02  0.00000000000E+00 0.  1.
<mgrwt>
<rscale>  2 0.17494245E+03</rscale>
<asrwt>0</asrwt>
<pdfrwt beam="1">  1       21 0.28834954E-01 0.17504866E+03</pdfrwt>
<pdfrwt beam="2">  1       21 0.14862510E+00 0.17504866E+03</pdfrwt>
<totfact> 0.35815952E+03</totfact>
</mgrwt>
</event>
<event>
12    1  0.1019868E-001  0.1955697E+03  0.7546771E-02  0.1154974E+00
         21   -1    0    0  501  502  0.00000000000E+00  0.00000000000E+00  0.11515608938E+03  0.11515608938E+03  0.00000000000E+00 0.  1.
         21   -1    0    0  502  503 -0.00000000000E+00 -0.00000000000E+00 -0.15379703581E+04  0.15379703581E+04  0.00000000000E+00 0.  1.
         -6    2    1    2    0  503 -0.55565770922E+02  0.51461184937E+02 -0.14491211307E+04  0.14622583696E+04  0.18030995452E+03 0.  0.
        -24    2    3    3    0    0 -0.39603432637E+02  0.80097518716E+02 -0.55767508553E+03  0.57019728580E+03  0.78354319181E+02 0.  0.
          6    2    1    2  501    0  0.55565770922E+02 -0.51461184937E+02  0.26306861966E+02  0.19086807785E+03  0.17321305869E+03 0.  0.
         24    2    5    5    0    0 -0.33909219523E+02 -0.26580912471E+02 -0.11295371831E+02  0.90564439529E+02  0.78853992962E+02 0.  0.
          5    1    5    5  501    0  0.89474990445E+02 -0.24880272466E+02  0.37602233797E+02  0.10030363832E+03  0.47000000000E+01 0. -1.
        -11    1    6    6    0    0 -0.38329558679E+02  0.14480793052E+02  0.12579177904E+02  0.42861219682E+02  0.00000000000E+00 0.  1.
         12    1    6    6    0    0  0.44203391557E+01 -0.41061705523E+02 -0.23874549735E+02  0.47703219847E+02  0.00000000000E+00 0. -1.
         -5    1    3    3    0  503 -0.15962338285E+02 -0.28636333779E+02 -0.89144604513E+03  0.89206108381E+03  0.47000000000E+01 0.  1.
         13    1    4    4    0    0  0.14636379237E+02 -0.38563885967E+01 -0.36320118184E+02  0.39347761246E+02  0.00000000000E+00 0. -1.
        -14    1    4    4    0    0 -0.54239811874E+02  0.83953907312E+02 -0.52135496734E+03  0.53084952455E+03  0.00000000000E+00 0.  1.
<mgrwt>
<rscale>  2 0.19391805E+03</rscale>
<asrwt>0</asrwt>
<pdfrwt beam="1">  1       21 0.17716322E-01 0.19556965E+03</pdfrwt>
<pdfrwt beam="2">  1       21 0.23661082E+00 0.19556965E+03</pdfrwt>
<totfact> 0.23002412E+03</totfact>
</mgrwt>
</event>
<event>
12    1  0.1019868E-001  0.1875586E+03  0.7546771E-02  0.1160772E+00
         21   -1    0    0  503  502  0.00000000000E+00  0.00000000000E+00  0.24072130398E+03  0.24072130398E+03  0.00000000000E+00 0. -1.
         21   -1    0    0  501  503 -0.00000000000E+00 -0.00000000000E+00 -0.15339835210E+03  0.15339835210E+03  0.00000000000E+00 0. -1.
          6    2    1    2  501    0 -0.69731520053E+02  0.11453477898E+02  0.87386333240E+02  0.20656102049E+03  0.17331306039E+03 0.  0.
         24    2    3    3    0    0 -0.53605399951E+01 -0.60686406960E+01 -0.16030916349E+02  0.83403133100E+02  0.81446476553E+02 0.  0.
         -6    2    1    2    0  502  0.69731520053E+02 -0.11453477898E+02 -0.63381365556E-01  0.18755863559E+03  0.17373707354E+03 0.  0.
        -24    2    5    5    0    0  0.92873881792E+02  0.32748031264E+02 -0.28988398354E+02  0.12969596259E+03  0.79263636060E+02 0.  0.
          5    1    3    3  501    0 -0.64370980058E+02  0.17522118594E+02  0.10341724959E+03  0.12315788739E+03  0.47000000000E+01 0. -1.
        -11    1    4    4    0    0 -0.19129850801E+02  0.20680963410E+02 -0.37165572125E+02  0.46636178988E+02  0.00000000000E+00 0.  1.
         12    1    4    4    0    0  0.13769310806E+02 -0.26749604106E+02  0.21134655776E+02  0.36766954112E+02  0.00000000000E+00 0. -1.
         -5    1    5    5    0  502 -0.23142361738E+02 -0.44201509162E+02  0.28925016989E+02  0.57862673001E+02  0.47000000000E+01 0.  1.
         11    1    6    6    0    0  0.40631620883E+02  0.10213206776E+02 -0.53324894306E+02  0.67814324158E+02  0.00000000000E+00 0. -1.
        -12    1    6    6    0    0  0.52242260909E+02  0.22534824487E+02  0.24336495951E+02  0.61881638429E+02  0.00000000000E+00 0.  1.
<mgrwt>
<rscale>  2 0.18746037E+03</rscale>
<asrwt>0</asrwt>
<pdfrwt beam="1">  1       21 0.37034047E-01 0.18755862E+03</pdfrwt>
<pdfrwt beam="2">  1       21 0.23599746E-01 0.18755862E+03</pdfrwt>
<totfact> 0.11907614E+05</totfact>
</mgrwt>
</event>
<event>
12    1  0.1019868E-001  0.1736127E+03  0.7546771E-02  0.1174678E+00
         21   -1    0    0  501  502  0.00000000000E+00  0.00000000000E+00  0.74318351385E+03  0.74318351385E+03  0.00000000000E+00 0.  1.
         21   -1    0    0  502  503 -0.00000000000E+00 -0.00000000000E+00 -0.14025119200E+03  0.14025119200E+03  0.00000000000E+00 0.  1.
         -6    2    1    2    0  503  0.66498094127E+01 -0.90270538347E+00 -0.72407842170E+02  0.18613584625E+03  0.17134358117E+03 0.  0.
        -24    2    3    3    0    0  0.42349443807E+02 -0.47631593811E+02 -0.75029976106E+02  0.12708486407E+03  0.80366791914E+02 0.  0.
          6    2    1    2  501    0 -0.66498094127E+01  0.90270538347E+00  0.67534016402E+03  0.69729885961E+03  0.17348293180E+03 0.  0.
         24    2    5    5    0    0 -0.70456676507E+02  0.14266472485E+02  0.34456713270E+03  0.36013006685E+03  0.76154321030E+02 0.  0.
          5    1    5    5  501    0  0.63806867094E+02 -0.13363767102E+02  0.33077303132E+03  0.33716879275E+03  0.47000000000E+01 0. -1.
        -13    1    6    6    0    0 -0.58341520617E+02  0.43575150981E+02  0.22976329895E+03  0.24102634784E+03  0.00000000000E+00 0.  1.
         14    1    6    6    0    0 -0.12115155890E+02 -0.29308678496E+02  0.11480383376E+03  0.11910371901E+03  0.00000000000E+00 0. -1.
         -5    1    3    3    0  503 -0.35699634394E+02  0.46728888427E+02  0.26221339356E+01  0.59050982176E+02  0.47000000000E+01 0.  1.
         13    1    4    4    0    0  0.52838059101E+02 -0.36033003259E+02 -0.15872131536E+02  0.65895086106E+02  0.00000000000E+00 0. -1.
        -14    1    4    4    0    0 -0.10488615295E+02 -0.11598590552E+02 -0.59157844570E+02  0.61189777968E+02  0.00000000000E+00 0.  1.
<mgrwt>
<rscale>  2 0.17307576E+03</rscale>
<asrwt>0</asrwt>
<pdfrwt beam="1">  1       21 0.11433592E+00 0.17361268E+03</pdfrwt>
<pdfrwt beam="2">  1       21 0.21577107E-01 0.17361268E+03</pdfrwt>
<totfact> 0.12066674E+04</totfact>
</mgrwt>
</event>
<event>
12    1  0.1019868E-001  0.1926014E+03  0.7546771E-02  0.1156357E+00
         21   -1    0    0  503  502  0.00000000000E+00  0.00000000000E+00  0.17352145672E+04  0.17352145672E+04  0.00000000000E+00 0.  1.
         21   -1    0    0  501  503 -0.00000000000E+00 -0.00000000000E+00 -0.33686117422E+02  0.33686117422E+02  0.00000000000E+00 0.  1.
          6    2    1    2  501    0  0.59903604611E+02 -0.59943763038E+02  0.13863820449E+04  0.13995599745E+04  0.17184659203E+03 0.  0.
         24    2    3    3    0    0  0.73844937158E+02 -0.34170807713E+01  0.11820512413E+04  0.11870445777E+04  0.79780582009E+02 0.  0.
         -6    2    1    2    0  502 -0.59903604611E+02  0.59943763038E+02  0.31514640486E+03  0.36934071012E+03  0.17295550607E+03 0.  0.
        -24    2    5    5    0    0  0.28738580885E+02  0.64440885313E+02  0.17581750557E+03  0.20407639656E+03  0.75873886396E+02 0.  0.
          5    1    3    3  501    0 -0.13941332548E+02 -0.56526682267E+02  0.20433080364E+03  0.21251539680E+03  0.47000000000E+01 0. -1.
        -11    1    4    4    0    0 -0.73367994541E+01 -0.17254694603E+02  0.92246759765E+02  0.94132979339E+02  0.00000000000E+00 0.  1.
         12    1    4    4    0    0  0.81181736612E+02  0.13837613832E+02  0.10898044815E+04  0.10929115983E+04  0.00000000000E+00 0. -1.
         -5    1    5    5    0  502 -0.88642185496E+02 -0.44971222748E+01  0.13932889929E+03  0.16526431356E+03  0.47000000000E+01 0.  1.
         11    1    6    6    0    0  0.19892872976E+02 -0.10212395160E+02  0.75343830798E+02  0.78592062255E+02  0.00000000000E+00 0. -1.
        -12    1    6    6    0    0  0.88457079087E+01  0.74653280473E+02  0.10047367477E+03  0.12548433431E+03  0.00000000000E+00 0.  1.
<mgrwt>
<rscale>  2 0.19235213E+03</rscale>
<asrwt>0</asrwt>
<pdfrwt beam="1">  1       21 0.26695602E+00 0.19260141E+03</pdfrwt>
<pdfrwt beam="2">  1       21 0.51824809E-02 0.19260141E+03</pdfrwt>
<totfact> 0.13401182E+04</totfact>
</mgrwt>
</event>
<event>
12    1  0.1019868E-001  0.3583133E+03  0.7546771E-02  0.1059364E+00
         21   -1    0    0  503  502  0.00000000000E+00  0.00000000000E+00  0.19715608657E+03  0.19715608657E+03  0.00000000000E+00 0.  1.
         21   -1    0    0  501  503 -0.00000000000E+00 -0.00000000000E+00 -0.87399125626E+03  0.87399125626E+03  0.00000000000E+00 0. -1.
          6    2    1    2  501    0  0.18731856008E+03  0.25120867488E+03 -0.61042357677E+03  0.70781733969E+03  0.17376536478E+03 0.  0.
         24    2    3    3    0    0  0.15756315086E+03  0.15527555582E+03 -0.52682661821E+03  0.57705385400E+03  0.80673539695E+02 0.  0.
         -6    2    1    2    0  502 -0.18731856008E+03 -0.25120867488E+03 -0.66411592914E+02  0.36333000314E+03  0.17147638385E+03 0.  0.
        -24    2    5    5    0    0 -0.15011979904E+03 -0.91767672347E+02 -0.42504031398E+02  0.19780404562E+03  0.79765832467E+02 0.  0.
          5    1    3    3  501    0  0.29755409223E+02  0.95933119062E+02 -0.83596958558E+02  0.13076348570E+03  0.47000000000E+01 0. -1.
        -11    1    4    4    0    0  0.10535404918E+02 -0.33965416490E+01 -0.78403889438E+02  0.79181444360E+02  0.00000000000E+00 0.  1.
         12    1    4    4    0    0  0.14702774594E+03  0.15867209747E+03 -0.44842272878E+03  0.49787240964E+03  0.00000000000E+00 0. -1.
         -5    1    5    5    0  502 -0.37198761050E+02 -0.15944100254E+03 -0.23907561517E+02  0.16552595752E+03  0.47000000000E+01 0.  1.
         13    1    6    6    0    0 -0.13282529970E+02  0.14564358826E+02 -0.69432450702E+01  0.20898679444E+02  0.00000000000E+00 0. -1.
        -14    1    6    6    0    0 -0.13683726906E+03 -0.10633203117E+03 -0.35560786327E+02  0.17690536618E+03  0.00000000000E+00 0.  1.
<mgrwt>
<rscale>  2 0.35803690E+03</rscale>
<asrwt>0</asrwt>
<pdfrwt beam="1">  1       21 0.30331706E-01 0.35831333E+03</pdfrwt>
<pdfrwt beam="2">  1       21 0.13446019E+00 0.35831333E+03</pdfrwt>
<totfact> 0.37312053E+03</totfact>
</mgrwt>
</event>
<event>
12    1  0.1019868E-001  0.1973833E+03  0.7546771E-02  0.1152256E+00
         21   -1    0    0  503  502  0.00000000000E+00  0.00000000000E+00  0.45718335143E+04  0.45718335143E+04  0.00000000000E+00 0.  1.
         21   -1    0    0  501  503 -0.00000000000E+00 -0.00000000000E+00 -0.84810863398E+01  0.84810863398E+01  0.00000000000E+00 0.  1.
          6    2    1    2  501    0  0.68532786066E+02  0.67590360573E+02  0.21702043531E+04  0.21790403778E+04  0.17077714833E+03 0.  0.
         24    2    3    3    0    0  0.91026772785E+02  0.97674713551E+02  0.16005873824E+04  0.16081668094E+04  0.80587191176E+02 0.  0.
         -6    2    1    2    0  502 -0.68532786066E+02 -0.67590360573E+02  0.23931480749E+04  0.24012742228E+04  0.17232232970E+03 0.  0.
        -24    2    5    5    0    0 -0.25970193168E+01 -0.95504042417E+02  0.12997626885E+04  0.13055368492E+04  0.76913271891E+02 0.  0.
          5    1    3    3  501    0 -0.22493986719E+02 -0.30084352978E+02  0.56961697072E+03  0.57087356837E+03  0.47000000000E+01 0. -1.
        -11    1    4    4    0    0  0.24257688636E+02  0.50542828525E+02  0.10553582333E+04  0.10568462582E+04  0.00000000000E+00 0.  1.
         12    1    4    4    0    0  0.66769084149E+02  0.47131885026E+02  0.54522914906E+03  0.55132055120E+03  0.00000000000E+00 0. -1.
         -5    1    5    5    0  502 -0.65935766750E+02  0.27913681844E+02  0.10933853864E+04  0.10957373737E+04  0.47000000000E+01 0.  1.
         11    1    6    6    0    0  0.35655534137E+02 -0.49726117820E+02  0.76950885057E+03  0.77193774038E+03  0.00000000000E+00 0. -1.
        -12    1    6    6    0    0 -0.38252553454E+02 -0.45777924596E+02  0.53025383797E+03  0.53359910879E+03  0.00000000000E+00 0.  1.
<mgrwt>
<rscale>  2 0.19704559E+03</rscale>
<asrwt>0</asrwt>
<pdfrwt beam="1">  1       21 0.70335703E+00 0.19738335E+03</pdfrwt>
<pdfrwt beam="2">  1       21 0.13047862E-02 0.19738335E+03</pdfrwt>
<totfact> 0.11213988E+02</totfact>
</mgrwt>
</event>
<event>
12    1  0.1019868E-001  0.1869070E+03  0.7546771E-02  0.1162139E+00
         21   -1    0    0  501  502  0.00000000000E+00  0.00000000000E+00  0.13912596017E+03  0.13912596017E+03  0.00000000000E+00 0. -1.
         21   -1    0    0  502  503 -0.00000000000E+00 -0.00000000000E+00 -0.37320221800E+03  0.37320221800E+03  0.00000000000E+00 0. -1.
         -6    2    1    2    0  503  0.29407848206E+02  0.52551682836E+02  0.33178303559E+02  0.18620056536E+03  0.17304146846E+03 0.  0.
        -24    2    3    3    0    0 -0.35566281023E+02  0.73411703287E+02  0.25001547557E+02  0.11731132628E+03  0.80514789746E+02 0.  0.
          6    2    1    2  501    0 -0.29407848206E+02 -0.52551682836E+02 -0.26725456139E+03  0.32612761281E+03  0.17693987213E+03 0.  0.
         24    2    5    5    0    0 -0.17743316386E+02 -0.77255703569E+02 -0.82859417307E+02  0.13966043311E+03  0.79725055852E+02 0.  0.
          5    1    5    5  501    0 -0.11664531820E+02  0.24704020733E+02 -0.18439514408E+03  0.18646717969E+03  0.47000000000E+01 0. -1.
        -13    1    6    6    0    0  0.31653483342E+02 -0.32271992347E+02 -0.27645253321E+02  0.52987588442E+02  0.00000000000E+00 0.  1.
         14    1    6    6    0    0 -0.49396799728E+02 -0.44983711221E+02 -0.55214163986E+02  0.86672844671E+02  0.00000000000E+00 0. -1.
         -5    1    3    3    0  503  0.64974129229E+02 -0.20860020451E+02  0.81767560019E+01  0.68889239080E+02  0.47000000000E+01 0.  1.
         11    1    4    4    0    0  0.12089975108E+02 -0.10652474900E+02  0.11371631116E+02  0.19721985545E+02  0.00000000000E+00 0. -1.
        -12    1    4    4    0    0 -0.47656256131E+02  0.84064178187E+02  0.13629916441E+02  0.97589340734E+02  0.00000000000E+00 0.  1.
<mgrwt>
<rscale>  2 0.18597853E+03</rscale>
<asrwt>0</asrwt>
<pdfrwt beam="1">  1       21 0.21403994E-01 0.18690698E+03</pdfrwt>
<pdfrwt beam="2">  1       21 0.57415725E-01 0.18690698E+03</pdfrwt>
<totfact> 0.58025098E+04</totfact>
</mgrwt>
</event>
<event>
12    1  0.1019868E-001  0.1804060E+03  0.7546771E-02  0.1167411E+00
         21   -1    0    0  503  502  0.00000000000E+00  0.00000000000E+00  0.10492581953E+03  0.10492581953E+03  0.00000000000E+00 0.  1.
         21   -1    0    0  501  503 -0.00000000000E+00 -0.00000000000E+00 -0.33863638401E+03  0.33863638401E+03  0.00000000000E+00 0. -1.
          6    2    1    2  501    0 -0.50497627777E+02 -0.15788553373E+02 -0.18114469139E+03  0.25565395664E+03  0.17247103379E+03 0.  0.
         24    2    3    3    0    0  0.32264343507E+02  0.21930988798E+02 -0.96670945983E+02  0.13143555455E+03  0.80050465783E+02 0.  0.
         -6    2    1    2    0  502  0.50497627777E+02  0.15788553373E+02 -0.52565873085E+02  0.18790824691E+03  0.17247332958E+03 0.  0.
        -24    2    5    5    0    0  0.32084132449E+02  0.32692958293E+02 -0.97487854969E+02  0.13628567266E+03  0.83496596512E+02 0.  0.
          5    1    3    3  501    0 -0.82761971283E+02 -0.37719542171E+02 -0.84473745409E+02  0.12421840208E+03  0.47000000000E+01 0. -1.
        -11    1    4    4    0    0  0.18326464684E+02  0.72908069390E+01  0.10521148278E+02  0.22354188304E+02  0.00000000000E+00 0.  1.
         12    1    4    4    0    0  0.13937878823E+02  0.14640181859E+02 -0.10719209426E+03  0.10908136625E+03  0.00000000000E+00 0. -1.
         -5    1    5    5    0  502  0.18413495327E+02 -0.16904404920E+02  0.44921981883E+02  0.51622574250E+02  0.47000000000E+01 0.  1.
         11    1    6    6    0    0  0.26038689580E+02 -0.17481156914E+02 -0.74369245195E+02  0.80711763907E+02  0.00000000000E+00 0. -1.
        -12    1    6    6    0    0  0.60454428696E+01  0.50174115207E+02 -0.23118609774E+02  0.55573908754E+02  0.00000000000E+00 0.  1.
<mgrwt>
<rscale>  2 0.18040549E+03</rscale>
<asrwt>0</asrwt>
<pdfrwt beam="1">  1       21 0.16142434E-01 0.18040604E+03</pdfrwt>
<pdfrwt beam="2">  1       21 0.52097905E-01 0.18040604E+03</pdfrwt>
<totfact> 0.12047784E+05</totfact>
</mgrwt>
</event>
<event>
12    1  0.1019868E-001  0.1838596E+03  0.7546771E-02  0.1164714E+00
         21   -1    0    0  503  502  0.00000000000E+00  0.00000000000E+00  0.59530021241E+02  0.59530021241E+02  0.00000000000E+00 0. -1.
         21   -1    0    0  501  503 -0.00000000000E+00 -0.00000000000E+00 -0.67843324598E+03  0.67843324598E+03  0.00000000000E+00 0. -1.
          6    2    1    2  501    0 -0.47418210527E+02 -0.38888408717E+02 -0.46177536138E+03  0.49610891268E+03  0.17066567857E+03 0.  0.
         24    2    3    3    0    0 -0.84388927935E+02  0.15939829607E+02 -0.27055364648E+03  0.29372115635E+03  0.75480280454E+02 0.  0.
         -6    2    1    2    0  502  0.47418210527E+02  0.38888408717E+02 -0.15712786337E+03  0.24185435455E+03  0.17333080611E+03 0.  0.
        -24    2    5    5    0    0  0.25948659205E+02  0.22509400015E+02 -0.13209126283E+02  0.95348701267E+02  0.87959580561E+02 0.  0.
          5    1    3    3  501    0  0.36970717408E+02 -0.54828238324E+02 -0.19122171490E+03  0.20238775633E+03  0.47000000000E+01 0. -1.
        -13    1    4    4    0    0 -0.26119063333E+02  0.62203753288E+01 -0.13663890995E+02  0.30126407946E+02  0.00000000000E+00 0.  1.
         14    1    4    4    0    0 -0.58269864602E+02  0.97194542782E+01 -0.25688975548E+03  0.26359474840E+03  0.00000000000E+00 0. -1.
         -5    1    5    5    0  502  0.21469551322E+02  0.16379008702E+02 -0.14391873708E+03  0.14650565328E+03  0.47000000000E+01 0.  1.
         13    1    6    6    0    0  0.10897270622E+02  0.55012411915E+02 -0.18688337864E+02  0.59113196021E+02  0.00000000000E+00 0. -1.
        -14    1    6    6    0    0  0.15051388583E+02 -0.32503011900E+02  0.54792115803E+01  0.36235505246E+02  0.00000000000E+00 0.  1.
<mgrwt>
<rscale>  2 0.18322881E+03</rscale>
<asrwt>0</asrwt>
<pdfrwt beam="1">  1       21 0.91584646E-02 0.18385963E+03</pdfrwt>
<pdfrwt beam="2">  1       21 0.10437435E+00 0.18385963E+03</pdfrwt>
<totfact> 0.70497336E+04</totfact>
</mgrwt>
</event>
<event>
12    1  0.1019868E-001  0.2067354E+03  0.7546771E-02  0.1144625E+00
         21   -1    0    0  503  502  0.00000000000E+00  0.00000000000E+00  0.16185836942E+03  0.16185836942E+03  0.00000000000E+00 0.  1.
         21   -1    0    0  501  503 -0.00000000000E+00 -0.00000000000E+00 -0.35433468777E+03  0.35433468777E+03  0.00000000000E+00 0.  1.
          6    2    1    2  501    0 -0.10723457711E+03 -0.18397437194E+02 -0.22814150942E+03  0.30640381316E+03  0.17319650162E+03 0.  0.
         24    2    3    3    0    0  0.20554018779E+01  0.89553895082E+01 -0.13755676146E+03  0.16176577114E+03  0.84627881996E+02 0.  0.
         -6    2    1    2    0  502  0.10723457711E+03  0.18397437194E+02  0.35665191074E+02  0.20978924403E+03  0.17578908053E+03 0.  0.
        -24    2    5    5    0    0  0.55999538507E+02  0.44049153490E+02  0.82587275196E+02  0.13558134884E+03  0.80531781880E+02 0.  0.
          5    1    3    3  501    0 -0.10928997899E+03 -0.27352826702E+02 -0.90584747962E+02  0.14463804202E+03  0.47000000000E+01 0. -1.
        -11    1    4    4    0    0 -0.22127066646E+02  0.33839112076E+02 -0.11080795570E+03  0.11795378599E+03  0.00000000000E+00 0.  1.
         12    1    4    4    0    0  0.24182468524E+02 -0.24883722568E+02 -0.26748805762E+02  0.43811985146E+02  0.00000000000E+00 0. -1.
         -5    1    5    5    0  502  0.51235038606E+02 -0.25651716296E+02 -0.46922084123E+02  0.74207895188E+02  0.47000000000E+01 0.  1.
         11    1    6    6    0    0 -0.17390785959E+02  0.38290868467E+01 -0.27657634067E+00  0.17809487270E+02  0.00000000000E+00 0. -1.
        -12    1    6    6    0    0  0.73390324467E+02  0.40220066644E+02  0.82863851537E+02  0.11777186157E+03  0.00000000000E+00 0.  1.
<mgrwt>
<rscale>  2 0.20618319E+03</rscale>
<asrwt>0</asrwt>
<pdfrwt beam="1">  1       21 0.24901288E-01 0.20673539E+03</pdfrwt>
<pdfrwt beam="2">  1       21 0.54513028E-01 0.20673539E+03</pdfrwt>
<totfact> 0.48172124E+04</totfact>
</mgrwt>
</event>
<event>
12    1  0.1019868E-001  0.1820720E+03  0.7546771E-02  0.1165983E+00
         21   -1    0    0  501  502  0.00000000000E+00  0.00000000000E+00  0.64810777940E+03  0.64810777940E+03  0.00000000000E+00 0. -1.
         21   -1    0    0  502  503 -0.00000000000E+00 -0.00000000000E+00 -0.88956389115E+02  0.88956389115E+02  0.00000000000E+00 0. -1.
         -6    2    1    2    0  503  0.28229916393E+01  0.53379190648E+02  0.38998926908E+02  0.18620182591E+03  0.17404854609E+03 0.  0.
        -24    2    3    3    0    0 -0.10971005444E+02  0.73529615253E+01  0.85860292452E+02  0.11892058258E+03  0.81213829726E+02 0.  0.
          6    2    1    2  501    0 -0.28229916393E+01 -0.53379190648E+02  0.52015246338E+03  0.55086234261E+03  0.17330155241E+03 0.  0.
         24    2    5    5    0    0  0.24480493190E+02  0.29625072120E+02  0.19531433591E+03  0.21444431845E+03  0.79760494345E+02 0.  0.
          5    1    5    5  501    0 -0.27303484829E+02 -0.83004262768E+02  0.32483812746E+03  0.33641802415E+03  0.47000000000E+01 0. -1.
        -11    1    6    6    0    0  0.20330573553E+02 -0.23381332984E+02  0.10665605193E+03  0.11106544182E+03  0.00000000000E+00 0.  1.
         12    1    6    6    0    0  0.41499196373E+01  0.53006405104E+02  0.88658283984E+02  0.10337887663E+03  0.00000000000E+00 0. -1.
         -5    1    3    3    0  503  0.13793997084E+02  0.46026229123E+02 -0.46861365543E+02  0.67281243325E+02  0.47000000000E+01 0.  1.
         13    1    4    4    0    0 -0.39556820598E+02 -0.14864946405E+02  0.63796393489E+02  0.76522470619E+02  0.00000000000E+00 0. -1.
        -14    1    4    4    0    0  0.28585815154E+02  0.22217907930E+02  0.22063898963E+02  0.42398111966E+02  0.00000000000E+00 0.  1.
<mgrwt>
<rscale>  2 0.18189323E+03</rscale>
<asrwt>0</asrwt>
<pdfrwt beam="1">  1       21 0.99708886E-01 0.18207197E+03</pdfrwt>
<pdfrwt beam="2">  1       21 0.13685599E-01 0.18207197E+03</pdfrwt>
<totfact> 0.38514448E+04</totfact>
</mgrwt>
</event>
<event>
12    1  0.1019868E-001  0.1918493E+03  0.7546771E-02  0.1157739E+00
         21   -1    0    0  501  502  0.00000000000E+00  0.00000000000E+00  0.30307063623E+03  0.30307063623E+03  0.00000000000E+00 0. -1.
         21   -1    0    0  502  503 -0.00000000000E+00 -0.00000000000E+00 -0.15538995083E+03  0.15538995083E+03  0.00000000000E+00 0. -1.
         -6    2    1    2    0  503  0.21602674633E+02 -0.78820830193E+02  0.18440522371E+03  0.26312792539E+03  0.16897224555E+03 0.  0.
        -24    2    3    3    0    0 -0.49910997533E+02 -0.52155077391E+02  0.13155185553E+03  0.17017182712E+03  0.80257711643E+02 0.  0.
          6    2    1    2  501    0 -0.21602674633E+02  0.78820830193E+02 -0.36724538309E+02  0.19533266166E+03  0.17357061437E+03 0.  0.
         24    2    5    5    0    0 -0.34574394828E+02 -0.19231309422E+02 -0.37005546657E+02  0.96314195839E+02  0.79635304965E+02 0.  0.
          5    1    5    5  501    0  0.12971720195E+02  0.98052139615E+02  0.28100834758E+00  0.99018465821E+02  0.47000000000E+01 0. -1.
        -11    1    6    6    0    0 -0.60642194118E+02 -0.14215807089E+02 -0.27908160769E+02  0.68252694570E+02  0.00000000000E+00 0.  1.
         12    1    6    6    0    0  0.26067799290E+02 -0.50155023330E+01 -0.90973858877E+01  0.28061501269E+02  0.00000000000E+00 0. -1.
         -5    1    3    3    0  503  0.71513672166E+02 -0.26665752802E+02  0.52853368176E+02  0.92956098276E+02  0.47000000000E+01 0.  1.
         11    1    4    4    0    0 -0.17449021787E+02  0.19275479232E+02  0.16097020117E+02  0.30579838417E+02  0.00000000000E+00 0. -1.
        -12    1    4    4    0    0 -0.32461975746E+02 -0.71430556623E+02  0.11545483541E+03  0.13959198870E+03  0.00000000000E+00 0.  1.
<mgrwt>
<rscale>  2 0.19080328E+03</rscale>
<asrwt>0</asrwt>
<pdfrwt beam="1">  1       21 0.46626252E-01 0.19184931E+03</pdfrwt>
<pdfrwt beam="2">  1       21 0.23906146E-01 0.19184931E+03</pdfrwt>
<totfact> 0.72679254E+04</totfact>
</mgrwt>
</event>
<event>
12    1  0.1019868E-001  0.2897781E+03  0.7546771E-02  0.1090475E+00
         21   -1    0    0  503  502  0.00000000000E+00  0.00000000000E+00  0.61359794171E+02  0.61359794171E+02  0.00000000000E+00 0.  1.
         21   -1    0    0  501  503 -0.00000000000E+00 -0.00000000000E+00 -0.14342815738E+04  0.14342815738E+04  0.00000000000E+00 0. -1.
          6    2    1    2  501    0  0.21364170893E+03  0.90403046598E+02 -0.52598415540E+03  0.60052535421E+03  0.17365448078E+03 0.  0.
         24    2    3    3    0    0  0.16176378319E+03  0.86793724812E+02 -0.25396914327E+03  0.32354412162E+03  0.80497209189E+02 0.  0.
         -6    2    1    2    0  502 -0.21364170893E+03 -0.90403046598E+02 -0.84693762422E+03  0.89511601374E+03  0.17353342075E+03 0.  0.
        -24    2    5    5    0    0 -0.22444401714E+03 -0.66115819943E+02 -0.62233902446E+03  0.66890111535E+03  0.73324090702E+02 0.  0.
          5    1    3    3  501    0  0.51877925741E+02  0.36093217858E+01 -0.27201501213E+03  0.27698123259E+03  0.47000000000E+01 0. -1.
        -11    1    4    4    0    0  0.15732234487E+03  0.55298706069E+02 -0.22804126420E+03  0.28250855787E+03  0.00000000000E+00 0.  1.
         12    1    4    4    0    0  0.44414383136E+01  0.31495018743E+02 -0.25927879063E+02  0.41035563754E+02  0.00000000000E+00 0. -1.
         -5    1    5    5    0  502  0.10802308209E+02 -0.24287226655E+02 -0.22459859976E+03  0.22621489839E+03  0.47000000000E+01 0.  1.
         13    1    6    6    0    0 -0.16743821007E+03 -0.21288028664E+02 -0.37679929489E+03  0.41287582030E+03  0.00000000000E+00 0. -1.
        -14    1    6    6    0    0 -0.57005807063E+02 -0.44827791280E+02 -0.24553972957E+03  0.25602529505E+03  0.00000000000E+00 0.  1.
<mgrwt>
<rscale>  2 0.28976000E+03</rscale>
<asrwt>0</asrwt>
<pdfrwt beam="1">  1       21 0.94399692E-02 0.28977814E+03</pdfrwt>
<pdfrwt beam="2">  1       21 0.22065868E+00 0.28977814E+03</pdfrwt>
<totfact> 0.83250093E+03</totfact>
</mgrwt>
</event>
<event>
12    1  0.1019868E-001  0.1850171E+03  0.7546771E-02  0.1163700E+00
         21   -1    0    0  503  502  0.00000000000E+00  0.00000000000E+00  0.18204589387E+03  0.18204589387E+03  0.00000000000E+00 0. -1.
         21   -1    0    0  501  503 -0.00000000000E+00 -0.00000000000E+00 -0.20250872427E+03  0.20250872427E+03  0.00000000000E+00 0. -1.
          6    2    1    2  501    0  0.16568852827E+02  0.55970290563E+02 -0.66561144022E+02  0.19662585152E+03  0.17556804744E+03 0.  0.
         24    2    3    3    0    0 -0.47466537631E+02  0.59295588229E+02 -0.71544935374E+02  0.13213928693E+03  0.81074499041E+02 0.  0.
         -6    2    1    2    0  502 -0.16568852827E+02 -0.55970290563E+02  0.46098313619E+02  0.18792876662E+03  0.17258321615E+03 0.  0.
        -24    2    5    5    0    0  0.14445276540E+02 -0.67501892491E+01  0.85232778925E+02  0.11765721499E+03  0.79525860996E+02 0.  0.
          5    1    3    3  501    0  0.64035390458E+02 -0.33252976659E+01  0.49837913524E+01  0.64486564585E+02  0.47000000000E+01 0. -1.
        -13    1    4    4    0    0 -0.43160825825E+02 -0.74755262792E+01 -0.33711266639E+02  0.55273772057E+02  0.00000000000E+00 0.  1.
         14    1    4    4    0    0 -0.43057118061E+01  0.66771114508E+02 -0.37833668736E+02  0.76865514874E+02  0.00000000000E+00 0. -1.
         -5    1    5    5    0  502 -0.31014129367E+02 -0.49220101314E+02 -0.39134465306E+02  0.70271551630E+02  0.47000000000E+01 0.  1.
         13    1    6    6    0    0 -0.66848878941E+00 -0.28237975045E+02 -0.23104861408E+00  0.28246831599E+02  0.00000000000E+00 0. -1.
        -14    1    6    6    0    0  0.15113765329E+02  0.21487785796E+02  0.85463827539E+02  0.89410383393E+02  0.00000000000E+00 0.  1.
<mgrwt>
<rscale>  2 0.18430555E+03</rscale>
<asrwt>0</asrwt>
<pdfrwt beam="1">  1       21 0.28007061E-01 0.18501713E+03</pdfrwt>
<pdfrwt beam="2">  1       21 0.31155188E-01 0.18501713E+03</pdfrwt>
<totfact> 0.12085580E+05</totfact>
</mgrwt>
</event>
<event>
12    1  0.1019868E-001  0.1778455E+03  0.7546771E-02  0.1169911E+00
         21   -1    0    0  503  502  0.00000000000E+00  0.00000000000E+00  0.83914973432E+02  0.83914973432E+02  0.00000000000E+00 0. -1.
         21   -1    0    0  501  503 -0.00000000000E+00 -0.00000000000E+00 -0.38126349572E+03  0.38126349572E+03  0.00000000000E+00 0. -1.
          6    2    1    2  501    0  0.38612218977E+02 -0.14912371567E+02 -0.12367627578E+03  0.21660033505E+03  0.17293525283E+03 0.  0.
         24    2    3    3    0    0  0.36524128978E+02 -0.17219657104E+02 -0.15799734189E+03  0.18181946004E+03  0.80402906771E+02 0.  0.
         -6    2    1    2    0  502 -0.38612218977E+02  0.14912371567E+02 -0.17367224652E+03  0.24857813411E+03  0.17296172197E+03 0.  0.
        -24    2    5    5    0    0 -0.58245315762E+02  0.36868265215E+02 -0.18841302963E+03  0.21530802076E+03  0.78142742995E+02 0.  0.
          5    1    3    3  501    0  0.20880899992E+01  0.23072855374E+01  0.34321066118E+02  0.34780875001E+02  0.47000000000E+01 0. -1.
        -13    1    4    4    0    0 -0.64512966034E+01  0.27308761008E+02 -0.51424428225E+02  0.58582074681E+02  0.00000000000E+00 0.  1.
         14    1    4    4    0    0  0.42975425581E+02 -0.44528418113E+02 -0.10657291367E+03  0.12323738536E+03  0.00000000000E+00 0. -1.
         -5    1    5    5    0  502  0.19633096785E+02 -0.21955893648E+02  0.14740783113E+02  0.33270113346E+02  0.47000000000E+01 0.  1.
         11    1    6    6    0    0 -0.35167808652E+02 -0.21583338122E+02 -0.79257752788E+02  0.89355506976E+02  0.00000000000E+00 0. -1.
        -12    1    6    6    0    0 -0.23077507110E+02  0.58451603337E+02 -0.10915527684E+03  0.12595251379E+03  0.00000000000E+00 0.  1.
<mgrwt>
<rscale>  2 0.17783911E+03</rscale>
<asrwt>0</asrwt>
<pdfrwt beam="1">  1       21 0.12909996E-01 0.17784555E+03</pdfrwt>
<pdfrwt beam="2">  1       21 0.58655922E-01 0.17784555E+03</pdfrwt>
<totfact> 0.14071104E+05</totfact>
</mgrwt>
</event>
<event>
12    1  0.1019868E-001  0.2280252E+03  0.7546771E-02  0.1128197E+00
         21   -1    0    0  501  502  0.00000000000E+00  0.00000000000E+00  0.92239352205E+03  0.92239352205E+03  0.00000000000E+00 0.  1.
         21   -1    0    0  502  503 -0.00000000000E+00 -0.00000000000E+00 -0.66497348252E+02  0.66497348252E+02  0.00000000000E+00 0. -1.
         -6    2    1    2    0  503  0.10478453082E+03  0.10310858178E+03  0.23217984333E+03  0.32479934981E+03  0.17313567065E+03 0.  0.
        -24    2    3    3    0    0  0.41787926432E+02  0.10324583035E+03  0.77387334120E+02  0.15761262214E+03  0.80293255596E+02 0.  0.
          6    2    1    2  501    0 -0.10478453082E+03 -0.10310858178E+03  0.62371633047E+03  0.66409152049E+03  0.17431095536E+03 0.  0.
         24    2    5    5    0    0 -0.69817776887E+02 -0.70931862032E+02  0.59434096726E+03  0.60802890248E+03  0.80945104037E+02 0.  0.
          5    1    5    5  501    0 -0.34966753936E+02 -0.32176719750E+02  0.29375363210E+02  0.56062618013E+02  0.47000000000E+01 0. -1.
        -13    1    6    6    0    0 -0.99417364361E+01 -0.58477640888E+02  0.18869414968E+03  0.19779776219E+03  0.00000000000E+00 0.  1.
         14    1    6    6    0    0 -0.59876040451E+02 -0.12454221143E+02  0.40564681758E+03  0.41023114028E+03  0.00000000000E+00 0. -1.
         -5    1    3    3    0  503  0.62996604391E+02 -0.13724857299E+00  0.15479250921E+03  0.16718672767E+03  0.47000000000E+01 0.  1.
         13    1    4    4    0    0  0.38414081911E+02  0.11428664268E+03  0.81304014402E+02  0.14542152916E+03  0.00000000000E+00 0. -1.
        -14    1    4    4    0    0  0.33738445207E+01 -0.11040812327E+02 -0.39166802814E+01  0.12191092983E+02  0.00000000000E+00 0.  1.
<mgrwt>
<rscale>  2 0.22780057E+03</rscale>
<asrwt>0</asrwt>
<pdfrwt beam="1">  1       21 0.14190669E+00 0.22802519E+03</pdfrwt>
<pdfrwt beam="2">  1       21 0.10230362E-01 0.22802519E+03</pdfrwt>
<totfact> 0.26362720E+04</totfact>
</mgrwt>
</event>
<event>
12    1  0.1019868E-001  0.2712385E+03  0.7546771E-02  0.1100699E+00
         21   -1    0    0  501  502  0.00000000000E+00  0.00000000000E+00  0.12886403908E+03  0.12886403908E+03  0.00000000000E+00 0. -1.
         21   -1    0    0  502  503 -0.00000000000E+00 -0.00000000000E+00 -0.56975024438E+03  0.56975024438E+03  0.00000000000E+00 0. -1.
         -6    2    1    2    0  503  0.12067685956E+03  0.17053952573E+03 -0.23297005321E+03  0.35755472275E+03  0.17298468082E+03 0.  0.
        -24    2    3    3    0    0  0.13971722845E+02  0.12406942259E+03 -0.88198075844E+02  0.17174171966E+03  0.78280821584E+02 0.  0.
          6    2    1    2  501    0 -0.12067685956E+03 -0.17053952573E+03 -0.20791615210E+03  0.34105956071E+03  0.17159797020E+03 0.  0.
         24    2    5    5    0    0  0.28407726222E+01 -0.64812733080E+02 -0.10984776051E+03  0.15112731075E+03  0.81019585335E+02 0.  0.
          5    1    5    5  501    0 -0.12351763218E+03 -0.10572679265E+03 -0.98068391591E+02  0.18993224996E+03  0.47000000000E+01 0. -1.
        -13    1    6    6    0    0 -0.26835589204E+02 -0.33929076188E+02 -0.97320972889E+02  0.10650212591E+03  0.00000000000E+00 0.  1.
         14    1    6    6    0    0  0.29676361826E+02 -0.30883656892E+02 -0.12526787619E+02  0.44625184843E+02  0.00000000000E+00 0. -1.
         -5    1    3    3    0  503  0.10670513671E+03  0.46470103136E+02 -0.14477197736E+03  0.18581300309E+03  0.47000000000E+01 0.  1.
         11    1    4    4    0    0  0.26776297328E+02  0.12680091680E+03 -0.90996366704E+02  0.15835334336E+03  0.00000000000E+00 0. -1.
        -12    1    4    4    0    0 -0.12804574483E+02 -0.27314942053E+01  0.27982908599E+01  0.13388376303E+02  0.00000000000E+00 0.  1.
<mgrwt>
<rscale>  2 0.27101768E+03</rscale>
<asrwt>0</asrwt>
<pdfrwt beam="1">  1       21 0.19825237E-01 0.27123852E+03</pdfrwt>
<pdfrwt beam="2">  1       21 0.87653882E-01 0.27123852E+03</pdfrwt>
<totfact> 0.25173619E+04</totfact>
</mgrwt>
</event>
<event>
11    1  0.1019868E-001  0.1919699E+03  0.7546771E-02  0.1156771E+00
         21   -1    0    0  501  502  0.00000000000E+00  0.00000000000E+00  0.55968380449E+03  0.55968380449E+03  0.00000000000E+00 0.  1.
         21   -1    0    0  502  503 -0.00000000000E+00 -0.00000000000E+00 -0.12500730617E+03  0.12500730617E+03  0.00000000000E+00 0.  1.
         -6    2    1    2    0  503 -0.42271415268E+00 -0.84775916839E+02 -0.18505842627E+02  0.19252580791E+03  0.17186211257E+03 0.  0.
          6    2    1    2  501    0  0.42271415268E+00  0.84775916839E+02  0.45318234095E+03  0.49216530274E+03  0.17223622242E+03 0.  0.
         24    2    4    4    0    0 -0.53908684290E+02  0.77166615852E+02  0.21736797979E+03  0.25000769859E+03  0.79963603440E+02 0.  0.
          5    1    4    4  501    0  0.54331398443E+02  0.76093009867E+01  0.23581436116E+03  0.24215760415E+03  0.47000000000E+01 0. -1.
        -13    1    5    5    0    0  0.44460239231E+01 -0.47686205952E+01  0.77229581504E+02  0.77504291045E+02  0.00000000000E+00 0.  1.
         14    1    5    5    0    0 -0.58354708214E+02  0.81935236447E+02  0.14013839828E+03  0.17250340755E+03  0.00000000000E+00 0. -1.
         -5    1    3    3    0  503  0.36244090822E+02 -0.51682972032E+02  0.15371559959E+02  0.65139378053E+02  0.47000000000E+01 0.  1.
         13    1    3    3    0    0  0.30340101682E+02 -0.44190346630E+02 -0.24080888558E+02  0.58763914940E+02  0.00000000000E+00 0. -1.
        -14    1    3    3    0    0 -0.67006906656E+02  0.11097401824E+02 -0.97965140275E+01  0.68622514920E+02  0.00000000000E+00 0.  1.
<mgrwt>
<rscale>  2 0.19188597E+03</rscale>
<asrwt>0</asrwt>
<pdfrwt beam="1">  1       21 0.86105200E-01 0.19196992E+03</pdfrwt>
<pdfrwt beam="2">  1       21 0.19231894E-01 0.19196992E+03</pdfrwt>
<totfact> 0.28899405E+04</totfact>
</mgrwt>
</event>
<event>
12    1  0.1019868E-001  0.3999534E+03  0.7546771E-02  0.1044046E+00
         21   -1    0    0  501  502  0.00000000000E+00  0.00000000000E+00  0.23868883574E+04  0.23868883574E+04  0.00000000000E+00 0. -1.
         21   -1    0    0  502  503 -0.00000000000E+00 -0.00000000000E+00 -0.76139821263E+02  0.76139821263E+02  0.00000000000E+00 0.  1.
         -6    2    1    2    0  503 -0.27157538874E+03 -0.23345858173E+03  0.15963782380E+04  0.16457175441E+04  0.17806362654E+03 0.  0.
        -24    2    3    3    0    0 -0.18364656425E+03 -0.23103395685E+03  0.10905248543E+04  0.11322517782E+04  0.75145735607E+02 0.  0.
          6    2    1    2  501    0  0.27157538874E+03  0.23345858173E+03  0.71437029817E+03  0.81731063458E+03  0.17150991031E+03 0.  0.
         24    2    5    5    0    0  0.25378271418E+03  0.17102465438E+03  0.47935246676E+03  0.57344582442E+03  0.73527054461E+02 0.  0.
          5    1    5    5  501    0  0.17792674564E+02  0.62433927356E+02  0.23501783140E+03  0.24386481015E+03  0.47000000000E+01 0. -1.
        -11    1    6    6    0    0  0.37093428625E+02  0.39054647695E+02  0.43961394085E+02  0.69525478233E+02  0.00000000000E+00 0.  1.
         12    1    6    6    0    0  0.21668928555E+03  0.13197000668E+03  0.43539107268E+03  0.50392034619E+03  0.00000000000E+00 0. -1.
         -5    1    3    3    0  503 -0.87928824486E+02 -0.24246248853E+01  0.50585338369E+03  0.51346576592E+03  0.47000000000E+01 0.  1.
         11    1    4    4    0    0 -0.12382464976E+03 -0.16633937683E+03  0.87857891040E+03  0.90271935504E+03  0.00000000000E+00 0. -1.
        -12    1    4    4    0    0 -0.59821914494E+02 -0.64694580016E+02  0.21194594389E+03  0.22953242313E+03  0.00000000000E+00 0.  1.
<mgrwt>
<rscale>  2 0.39923289E+03</rscale>
<asrwt>0</asrwt>
<pdfrwt beam="1">  1       21 0.36721354E+00 0.39995344E+03</pdfrwt>
<pdfrwt beam="2">  1       21 0.11713820E-01 0.39995344E+03</pdfrwt>
<totfact> 0.68642037E+02</totfact>
</mgrwt>
</event>
<event>
12    1  0.1019868E-001  0.1976544E+03  0.7546771E-02  0.1152083E+00
         21   -1    0    0  501  502  0.00000000000E+00  0.00000000000E+00  0.57061955093E+03  0.57061955093E+03  0.00000000000E+00 0.  1.
         21   -1    0    0  502  503 -0.00000000000E+00 -0.00000000000E+00 -0.74165640494E+02  0.74165640494E+02  0.00000000000E+00 0. -1.
         -6    2    1    2    0  503 -0.51335884368E+01 -0.93395845238E+02  0.15548017724E+03  0.25147833488E+03  0.17412102044E+03 0.  0.
        -24    2    3    3    0    0  0.21462739283E+01  0.16984089381E+02  0.94001005399E+02  0.12483511582E+03  0.80340222441E+02 0.  0.
          6    2    1    2  501    0  0.51335884368E+01  0.93395845238E+02  0.34097373320E+03  0.39330685655E+03  0.17227321046E+03 0.  0.
         24    2    5    5    0    0  0.73446412985E+01  0.84827481098E+01  0.63581238135E+02  0.10316239402E+03  0.80461201372E+02 0.  0.
          5    1    5    5  501    0 -0.22110528617E+01  0.84913097128E+02  0.27739249506E+03  0.29014446253E+03  0.47000000000E+01 0. -1.
        -11    1    6    6    0    0 -0.64660406559E+01 -0.33518127446E+02  0.41518926062E+02  0.53750309493E+02  0.00000000000E+00 0.  1.
         12    1    6    6    0    0  0.13810681954E+02  0.42000875556E+02  0.22062312072E+02  0.49412084529E+02  0.00000000000E+00 0. -1.
         -5    1    3    3    0  503 -0.72798623651E+01 -0.11037993462E+03  0.61479171840E+02  0.12664321906E+03  0.47000000000E+01 0.  1.
         11    1    4    4    0    0  0.20624957540E+02  0.13963213915E+02 -0.38552411756E+01  0.25203632692E+02  0.00000000000E+00 0. -1.
        -12    1    4    4    0    0 -0.18478683611E+02  0.30208754658E+01  0.97856246575E+02  0.99631483128E+02  0.00000000000E+00 0.  1.
<mgrwt>
<rscale>  2 0.19724669E+03</rscale>
<asrwt>0</asrwt>
<pdfrwt beam="1">  1       21 0.87787620E-01 0.19765441E+03</pdfrwt>
<pdfrwt beam="2">  1       21 0.11410099E-01 0.19765441E+03</pdfrwt>
<totfact> 0.71282611E+04</totfact>
</mgrwt>
</event>
<event>
12    1  0.1019868E-001  0.1820877E+03  0.7546771E-02  0.1165933E+00
         21   -1    0    0  501  502  0.00000000000E+00  0.00000000000E+00  0.18749044676E+02  0.18749044676E+02  0.00000000000E+00 0.  1.
         21   -1    0    0  502  503 -0.00000000000E+00 -0.00000000000E+00 -0.23675872721E+04  0.23675872721E+04  0.00000000000E+00 0. -1.
         -6    2    1    2    0  503  0.70076130179E+00 -0.57252250097E+02 -0.17760520251E+04  0.17853039107E+04  0.17225256569E+03 0.  0.
        -24    2    3    3    0    0  0.17936004987E+02  0.15108678969E+02 -0.13542845755E+04  0.13570014134E+04  0.82559989732E+02 0.  0.
          6    2    1    2  501    0 -0.70076130179E+00  0.57252250097E+02 -0.57278620233E+03  0.60103240612E+03  0.17285140557E+03 0.  0.
         24    2    5    5    0    0  0.24910303437E+02  0.76883234712E+02 -0.23006157914E+03  0.25675989844E+03  0.80409951224E+02 0.  0.
          5    1    5    5  501    0 -0.25611064739E+02 -0.19630984616E+02 -0.34272462320E+03  0.34427250767E+03  0.47000000000E+01 0. -1.
        -13    1    6    6    0    0 -0.69824923891E+01  0.81245798859E+02 -0.17268179489E+03  0.19096763422E+03  0.00000000000E+00 0.  1.
         14    1    6    6    0    0  0.31892795826E+02 -0.43625641468E+01 -0.57379784243E+02  0.65792264221E+02  0.00000000000E+00 0. -1.
         -5    1    3    3    0  503 -0.17235243685E+02 -0.72360929065E+02 -0.42176744957E+03  0.42830249730E+03  0.47000000000E+01 0.  1.
         11    1    4    4    0    0 -0.30593172372E+01  0.33731260708E+02 -0.24155295319E+03  0.24391594160E+03  0.00000000000E+00 0. -1.
        -12    1    4    4    0    0  0.20995322224E+02 -0.18622581739E+02 -0.11127316223E+04  0.11130854718E+04  0.00000000000E+00 0.  1.
<mgrwt>
<rscale>  2 0.18194541E+03</rscale>
<asrwt>0</asrwt>
<pdfrwt beam="1">  1       21 0.28844706E-02 0.18208767E+03</pdfrwt>
<pdfrwt beam="2">  1       21 0.36424392E+00 0.18208767E+03</pdfrwt>
<totfact> 0.98480652E+03</totfact>
</mgrwt>
</event>
<event>
12    1  0.1019868E-001  0.2023065E+03  0.7546771E-02  0.1147845E+00
         21   -1    0    0  501  502  0.00000000000E+00  0.00000000000E+00  0.18074629571E+02  0.18074629571E+02  0.00000000000E+00 0.  1.
         21   -1    0    0  502  503 -0.00000000000E+00 -0.00000000000E+00 -0.22641390045E+04  0.22641390045E+04  0.00000000000E+00 0.  1.
         -6    2    1    2    0  503 -0.78713512239E+02  0.72397630417E+02 -0.11544788896E+04  0.11720394196E+04  0.17151577367E+03 0.  0.
        -24    2    3    3    0    0 -0.14752564084E+02  0.22767073452E+02 -0.25132335122E+03  0.26525046311E+03  0.80364193083E+02 0.  0.
          6    2    1    2  501    0  0.78713512239E+02 -0.72397630417E+02 -0.10915854853E+04  0.11101742145E+04  0.17172850911E+03 0.  0.
         24    2    5    5    0    0  0.78254461053E+02 -0.17982915416E+02 -0.39155538155E+03  0.40801653410E+03  0.81943452182E+02 0.  0.
          5    1    5    5  501    0  0.45905118601E+00 -0.54414715001E+02 -0.70003010379E+03  0.70215768040E+03  0.47000000000E+01 0. -1.
        -11    1    6    6    0    0 -0.11965817646E+01  0.22913532612E+02 -0.50836463957E+02  0.55774616560E+02  0.00000000000E+00 0.  1.
         12    1    6    6    0    0  0.79451042818E+02 -0.40896448028E+02 -0.34071891759E+03  0.35224191754E+03  0.00000000000E+00 0. -1.
         -5    1    3    3    0  503 -0.63960948156E+02  0.49630556965E+02 -0.90315553836E+03  0.90678895645E+03  0.47000000000E+01 0.  1.
         11    1    4    4    0    0 -0.24016250769E+02  0.44951427325E+02 -0.10221079795E+03  0.11421233882E+03  0.00000000000E+00 0. -1.
        -12    1    4    4    0    0  0.92636866857E+01 -0.22184353874E+02 -0.14911255327E+03  0.15103812429E+03  0.00000000000E+00 0.  1.
<mgrwt>
<rscale>  2 0.20226133E+03</rscale>
<asrwt>0</asrwt>
<pdfrwt beam="1">  1       21 0.27807133E-02 0.20230649E+03</pdfrwt>
<pdfrwt beam="2">  1       21 0.34832895E+00 0.20230649E+03</pdfrwt>
<totfact> 0.12691105E+04</totfact>
</mgrwt>
</event>
<event>
12    1  0.1019868E-001  0.2335956E+03  0.7546771E-02  0.1124144E+00
         21   -1    0    0  501  502  0.00000000000E+00  0.00000000000E+00  0.25844862866E+03  0.25844862866E+03  0.00000000000E+00 0. -1.
         21   -1    0    0  502  503 -0.00000000000E+00 -0.00000000000E+00 -0.31404431513E+03  0.31404431513E+03  0.00000000000E+00 0.  1.
         -6    2    1    2    0  503 -0.34464126657E+02  0.15387088657E+03 -0.19169903797E+03  0.30213943571E+03  0.17226633941E+03 0.  0.
        -24    2    3    3    0    0  0.14196597629E+02  0.60143526344E+02 -0.24685816545E+02  0.10448268709E+03  0.80550947967E+02 0.  0.
          6    2    1    2  501    0  0.34464126657E+02 -0.15387088657E+03  0.13610335149E+03  0.27035350808E+03  0.17234520964E+03 0.  0.
         24    2    5    5    0    0  0.80704658051E+01 -0.21287714907E+02  0.97745366563E+02  0.12975355165E+03  0.82240672767E+02 0.  0.
          5    1    5    5  501    0  0.26393660852E+02 -0.13258317166E+03  0.38357984929E+02  0.14059995643E+03  0.47000000000E+01 0. -1.
        -11    1    6    6    0    0 -0.34367737738E+02 -0.24725765598E+02  0.42319713038E+02  0.59862032987E+02  0.00000000000E+00 0.  1.
         12    1    6    6    0    0  0.42438203543E+02  0.34380506909E+01  0.55425653525E+02  0.69891518664E+02  0.00000000000E+00 0. -1.
         -5    1    3    3    0  503 -0.48660724286E+02  0.93727360224E+02 -0.16701322142E+03  0.19765674861E+03  0.47000000000E+01 0.  1.
         13    1    4    4    0    0 -0.15128619608E+02 -0.12440626413E+02 -0.16795459924E+02  0.25801778831E+02  0.00000000000E+00 0. -1.
        -14    1    4    4    0    0  0.29325217237E+02  0.72584152757E+02 -0.78903566209E+01  0.78680908262E+02  0.00000000000E+00 0.  1.
<mgrwt>
<rscale>  2 0.23358104E+03</rscale>
<asrwt>0</asrwt>
<pdfrwt beam="1">  1       21 0.39761328E-01 0.23359558E+03</pdfrwt>
<pdfrwt beam="2">  1       21 0.48314510E-01 0.23359558E+03</pdfrwt>
<totfact> 0.24400601E+04</totfact>
</mgrwt>
</event>
<event>
12    1  0.1019868E-001  0.2035753E+03  0.7546771E-02  0.1146885E+00
         21   -1    0    0  503  502  0.00000000000E+00  0.00000000000E+00  0.24271818431E+03  0.24271818431E+03  0.00000000000E+00 0. -1.
         21   -1    0    0  501  503 -0.00000000000E+00 -0.00000000000E+00 -0.20240176113E+03  0.20240176113E+03  0.00000000000E+00 0. -1.
          6    2    1    2  501    0  0.20771880451E+02 -0.10441158822E+03  0.10892235020E+03  0.23088305417E+03  0.17352134036E+03 0.  0.
         24    2    3    3    0    0  0.50510933479E+02 -0.92630074705E+02  0.13492396380E+03  0.18939342600E+03  0.80831359413E+02 0.  0.
         -6    2    1    2    0  502 -0.20771880451E+02  0.10441158822E+03 -0.68605927025E+02  0.21423689127E+03  0.17279300213E+03 0.  0.
        -24    2    5    5    0    0 -0.45203662971E+02 -0.58710240419E+00 -0.36959440055E+02  0.10178589230E+03  0.83370569310E+02 0.  0.
          5    1    3    3  501    0 -0.29739053028E+02 -0.11781513519E+02 -0.26001613603E+02  0.41489628171E+02  0.47000000000E+01 0. -1.
        -11    1    4    4    0    0 -0.74346646159E+01  0.99074939079E+01  0.34049143611E+01  0.12846249075E+02  0.00000000000E+00 0.  1.
         12    1    4    4    0    0  0.57945598095E+02 -0.10253756861E+03  0.13151904944E+03  0.17654717693E+03  0.00000000000E+00 0. -1.
         -5    1    5    5    0  502  0.24431782520E+02  0.10499869063E+03 -0.31646486970E+02  0.11245099897E+03  0.47000000000E+01 0.  1.
         11    1    6    6    0    0 -0.56184720290E+02  0.28934314951E+02 -0.22008571056E+02  0.66920061085E+02  0.00000000000E+00 0. -1.
        -12    1    6    6    0    0  0.10981057319E+02 -0.29521417355E+02 -0.14950869000E+02  0.34865831216E+02  0.00000000000E+00 0.  1.
<mgrwt>
<rscale>  2 0.20342002E+03</rscale>
<asrwt>0</asrwt>
<pdfrwt beam="1">  1       21 0.37341259E-01 0.20357531E+03</pdfrwt>
<pdfrwt beam="2">  1       21 0.31138732E-01 0.20357531E+03</pdfrwt>
<totfact> 0.68197668E+04</totfact>
</mgrwt>
</event>
<event>
12    1  0.1019868E-001  0.2060872E+03  0.7546771E-02  0.1144991E+00
         21   -1    0    0  501  502  0.00000000000E+00  0.00000000000E+00  0.19153163956E+04  0.19153163956E+04  0.00000000000E+00 0.  1.
         21   -1    0    0  502  503 -0.00000000000E+00 -0.00000000000E+00 -0.43580660155E+02  0.43580660155E+02  0.00000000000E+00 0.  1.
         -6    2    1    2    0  503 -0.10483222614E+03  0.38712782101E+02  0.24536788803E+03  0.31952390968E+03  0.17146910289E+03 0.  0.
        -24    2    3    3    0    0  0.12923310931E+02  0.25429710607E+01  0.11888718867E+03  0.14290545354E+03  0.78194158049E+02 0.  0.
          6    2    1    2  501    0  0.10483222614E+03 -0.38712782101E+02  0.16263678474E+04  0.16393731461E+04  0.17315733259E+03 0.  0.
         24    2    5    5    0    0  0.41105737137E+02 -0.48360477167E+02  0.44565614544E+03  0.45689424284E+03  0.78195471683E+02 0.  0.
          5    1    5    5  501    0  0.63726488998E+02  0.96476950664E+01  0.11807117020E+04  0.11824789032E+04  0.47000000000E+01 0. -1.
        -13    1    6    6    0    0  0.49164998704E+02  0.23497809600E+01  0.23035840103E+03  0.23555829744E+03  0.00000000000E+00 0.  1.
         14    1    6    6    0    0 -0.80592615670E+01 -0.50710258127E+02  0.21529774441E+03  0.22133594539E+03  0.00000000000E+00 0. -1.
         -5    1    3    3    0  503 -0.11775553707E+03  0.36169811040E+02  0.12648069936E+03  0.17661845614E+03  0.47000000000E+01 0.  1.
         11    1    4    4    0    0 -0.30302547577E+02 -0.32860312184E+01  0.75334762200E+02  0.81267267621E+02  0.00000000000E+00 0. -1.
        -12    1    4    4    0    0  0.43225858509E+02  0.58290022791E+01  0.43552426471E+02  0.61638185915E+02  0.00000000000E+00 0.  1.
<mgrwt>
<rscale>  2 0.20573218E+03</rscale>
<asrwt>0</asrwt>
<pdfrwt beam="1">  1       21 0.29466400E+00 0.20608721E+03</pdfrwt>
<pdfrwt beam="2">  1       21 0.67047184E-02 0.20608721E+03</pdfrwt>
<totfact> 0.58823759E+03</totfact>
</mgrwt>
</event>
<event>
12    1  0.1019868E-001  0.1787761E+03  0.7546771E-02  0.1169238E+00
         21   -1    0    0  503  502  0.00000000000E+00  0.00000000000E+00  0.97705279471E+03  0.97705279471E+03  0.00000000000E+00 0. -1.
         21   -1    0    0  501  503 -0.00000000000E+00 -0.00000000000E+00 -0.63109161309E+02  0.63109161309E+02  0.00000000000E+00 0. -1.
          6    2    1    2  501    0 -0.24638686449E+02 -0.33360136511E+02  0.95601216555E+02  0.20273256320E+03  0.17389921218E+03 0.  0.
         24    2    3    3    0    0 -0.35291373746E+02 -0.38100522796E+02 -0.10826129175E+02  0.95565306407E+02  0.79488312459E+02 0.  0.
         -6    2    1    2    0  502  0.24638686449E+02  0.33360136511E+02  0.81834241684E+03  0.83742939282E+03  0.17286906368E+03 0.  0.
        -24    2    5    5    0    0  0.39054516299E+02  0.12329635780E+02  0.80196389728E+03  0.80676273317E+03  0.77735062341E+02 0.  0.
          5    1    3    3  501    0  0.10652687297E+02  0.47403862846E+01  0.10642734573E+03  0.10716725679E+03  0.47000000000E+01 0. -1.
        -11    1    4    4    0    0  0.84765145089E+01 -0.14684477524E+02  0.27872583090E+02  0.32624623622E+02  0.00000000000E+00 0.  1.
         12    1    4    4    0    0 -0.43767888255E+02 -0.23416045272E+02 -0.38698712265E+02  0.62940682785E+02  0.00000000000E+00 0. -1.
         -5    1    5    5    0  502 -0.14415829850E+02  0.21030500731E+02  0.16378519556E+02  0.30666659651E+02  0.47000000000E+01 0.  1.
         13    1    6    6    0    0  0.32607531300E+02  0.41214751224E+02  0.63706262621E+03  0.63922663941E+03  0.00000000000E+00 0. -1.
        -14    1    6    6    0    0  0.64469849996E+01 -0.28885115444E+02  0.16490127107E+03  0.16753609376E+03  0.00000000000E+00 0.  1.
<mgrwt>
<rscale>  2 0.17852512E+03</rscale>
<asrwt>0</asrwt>
<pdfrwt beam="1">  1       21 0.15031580E+00 0.17877612E+03</pdfrwt>
<pdfrwt beam="2">  1       21 0.97091025E-02 0.17877612E+03</pdfrwt>
<totfact> 0.25640115E+04</totfact>
</mgrwt>
</event>
<event>
12    1  0.1019868E-001  0.1789911E+03  0.7546771E-02  0.1168930E+00
         21   -1    0    0  503  502  0.00000000000E+00  0.00000000000E+00  0.19139211765E+03  0.19139211765E+03  0.00000000000E+00 0. -1.
         21   -1    0    0  501  503 -0.00000000000E+00 -0.00000000000E+00 -0.17055224416E+03  0.17055224416E+03  0.00000000000E+00 0. -1.
          6    2    1    2  501    0 -0.25704620768E+02  0.40756013364E+02 -0.16287499129E+02  0.17973064243E+03  0.17238341291E+03 0.  0.
         24    2    3    3    0    0  0.31336905350E+02  0.69284710328E+02 -0.31568370712E+02  0.11397946534E+03  0.78818676515E+02 0.  0.
         -6    2    1    2    0  502  0.25704620768E+02 -0.40756013364E+02  0.37127372616E+02  0.18221371938E+03  0.17176034926E+03 0.  0.
        -24    2    5    5    0    0 -0.45226591022E+01 -0.87578377381E+02  0.80455813840E+01  0.11917513753E+03  0.80296671134E+02 0.  0.
          5    1    3    3  501    0 -0.57041526118E+02 -0.28528696964E+02  0.15280871583E+02  0.65751177089E+02  0.47000000000E+01 0. -1.
        -13    1    4    4    0    0  0.25400016919E+02  0.38217946695E+02 -0.57154895227E+02  0.73297028299E+02  0.00000000000E+00 0.  1.
         14    1    4    4    0    0  0.59368884317E+01  0.31066763633E+02  0.25586524515E+02  0.40682437042E+02  0.00000000000E+00 0. -1.
         -5    1    5    5    0  502  0.30227279870E+02  0.46822364017E+02  0.29081791232E+02  0.63038581851E+02  0.47000000000E+01 0.  1.
         13    1    6    6    0    0  0.31116142051E+02 -0.11474292654E+02 -0.67576646955E+01  0.33845822788E+02  0.00000000000E+00 0. -1.
        -14    1    6    6    0    0 -0.35638801153E+02 -0.76104084727E+02  0.14803246079E+02  0.85329314742E+02  0.00000000000E+00 0.  1.
<mgrwt>
<rscale>  2 0.17884094E+03</rscale>
<asrwt>0</asrwt>
<pdfrwt beam="1">  1       21 0.29444941E-01 0.17899112E+03</pdfrwt>
<pdfrwt beam="2">  1       21 0.26238807E-01 0.17899112E+03</pdfrwt>
<totfact> 0.15324951E+05</totfact>
</mgrwt>
</event>
<event>
12    1  0.1019868E-001  0.2122695E+03  0.7546771E-02  0.1139800E+00
         21   -1    0    0  501  502  0.00000000000E+00  0.00000000000E+00  0.11179736487E+03  0.11179736487E+03  0.00000000000E+00 0. -1.
         21   -1    0    0  502  503 -0.00000000000E+00 -0.00000000000E+00 -0.41670869624E+03  0.41670869624E+03  0.00000000000E+00 0.  1.
         -6    2    1    2    0  503  0.38292754983E+02  0.11519608014E+03 -0.20067555399E+03  0.29211130591E+03  0.17413174641E+03 0.  0.
        -24    2    3    3    0    0  0.96131766672E+01  0.85770455023E+02 -0.21725629323E+03  0.24755351715E+03  0.81446072858E+02 0.  0.
          6    2    1    2  501    0 -0.38292754983E+02 -0.11519608014E+03 -0.10423577738E+03  0.23639475519E+03  0.17401411159E+03 0.  0.
         24    2    5    5    0    0 -0.44613001565E+02  0.23670746392E+01 -0.29972400422E+02  0.97117405861E+02  0.80854949033E+02 0.  0.
          5    1    5    5  501    0  0.63202465822E+01 -0.11756315478E+03 -0.74263376960E+02  0.13927734933E+03  0.47000000000E+01 0. -1.
        -11    1    6    6    0    0 -0.65094019578E+02 -0.11824676594E+02 -0.28846347683E+02  0.72174553244E+02  0.00000000000E+00 0.  1.
         12    1    6    6    0    0  0.20481018013E+02  0.14191751233E+02 -0.11260527395E+01  0.24942852617E+02  0.00000000000E+00 0. -1.
         -5    1    3    3    0  503  0.28679578316E+02  0.29425625121E+02  0.16580739237E+02  0.44557788766E+02  0.47000000000E+01 0.  1.
         13    1    4    4    0    0 -0.62698310693E+01  0.45264307574E+02 -0.28517667378E+02  0.53864883500E+02  0.00000000000E+00 0. -1.
        -14    1    4    4    0    0  0.15883007737E+02  0.40506147449E+02 -0.18873862585E+03  0.19368863365E+03  0.00000000000E+00 0.  1.
<mgrwt>
<rscale>  2 0.21224537E+03</rscale>
<asrwt>0</asrwt>
<pdfrwt beam="1">  1       21 0.17199595E-01 0.21226949E+03</pdfrwt>
<pdfrwt beam="2">  1       21 0.64109030E-01 0.21226949E+03</pdfrwt>
<totfact> 0.67972605E+04</totfact>
</mgrwt>
</event>
<event>
12    1  0.1019868E-001  0.2009971E+03  0.7546771E-02  0.1149231E+00
         21   -1    0    0  501  502  0.00000000000E+00  0.00000000000E+00  0.94641520778E+02  0.94641520778E+02  0.00000000000E+00 0.  1.
         21   -1    0    0  502  503 -0.00000000000E+00 -0.00000000000E+00 -0.43048785899E+03  0.43048785899E+03  0.00000000000E+00 0.  1.
         -6    2    1    2    0  503  0.18196626022E+02  0.10077844844E+03 -0.20191948356E+03  0.28490580945E+03  0.17295210190E+03 0.  0.
        -24    2    3    3    0    0 -0.51255015498E+02  0.50191804794E+02 -0.14916509986E+03  0.18397190026E+03  0.80306532655E+02 0.  0.
          6    2    1    2  501    0 -0.18196626022E+02 -0.10077844844E+03 -0.13392685465E+03  0.24022357031E+03  0.17112436550E+03 0.  0.
         24    2    5    5    0    0  0.49773321019E+01 -0.13184858412E+03 -0.79910676750E+02  0.17357356550E+03  0.79581677616E+02 0.  0.
          5    1    5    5  501    0 -0.23173958124E+02  0.31070135680E+02 -0.54016177904E+02  0.66650004814E+02  0.47000000000E+01 0. -1.
        -13    1    6    6    0    0 -0.24442528029E+02 -0.15614278360E+02 -0.35196829156E+02  0.45607670932E+02  0.00000000000E+00 0.  1.
         14    1    6    6    0    0  0.29419860131E+02 -0.11623430576E+03 -0.44713847593E+02  0.12796589457E+03  0.00000000000E+00 0. -1.
         -5    1    3    3    0  503  0.69451641520E+02  0.50586643648E+02 -0.52754383699E+02  0.10093390919E+03  0.47000000000E+01 0.  1.
         13    1    4    4    0    0  0.58419045921E+01  0.19082615891E+02 -0.10126147163E+03  0.10320930053E+03  0.00000000000E+00 0. -1.
        -14    1    4    4    0    0 -0.57096920090E+02  0.31109188903E+02 -0.47903628226E+02  0.80762599730E+02  0.00000000000E+00 0.  1.
<mgrwt>
<rscale>  2 0.20060333E+03</rscale>
<asrwt>0</asrwt>
<pdfrwt beam="1">  1       21 0.14560234E-01 0.20099712E+03</pdfrwt>
<pdfrwt beam="2">  1       21 0.66228902E-01 0.20099712E+03</pdfrwt>
<totfact> 0.86332007E+04</totfact>
</mgrwt>
</event>
<event>
12    1  0.1019868E-001  0.1895707E+03  0.7546771E-02  0.1162707E+00
         21   -1    0    0  503  502  0.00000000000E+00  0.00000000000E+00  0.20099791394E+03  0.20099791394E+03  0.00000000000E+00 0.  1.
         21   -1    0    0  501  503 -0.00000000000E+00 -0.00000000000E+00 -0.35648852523E+03  0.35648852523E+03  0.00000000000E+00 0.  1.
          6    2    1    2  501    0 -0.10317855552E+02  0.12767020358E+02 -0.28419034881E+03  0.34161555687E+03  0.18885862275E+03 0.  0.
         24    2    3    3    0    0  0.36973888551E+02  0.10654392985E+02 -0.27968914867E+03  0.29383142711E+03  0.81426673429E+02 0.  0.
         -6    2    1    2    0  502  0.10317855552E+02 -0.12767020358E+02  0.12869973752E+03  0.21587088229E+03  0.17253162154E+03 0.  0.
        -24    2    5    5    0    0  0.13732351640E+02 -0.69892968069E+02  0.11326856277E+03  0.15641296575E+03  0.81003975676E+02 0.  0.
          5    1    3    3  501    0 -0.47291744103E+02  0.21126273735E+01 -0.45012001390E+01  0.47784129765E+02  0.47000000000E+01 0. -1.
        -11    1    4    4    0    0  0.43505303042E+02  0.37852957551E+02 -0.22661502342E+03  0.23383739356E+03  0.00000000000E+00 0.  1.
         12    1    4    4    0    0 -0.65314144911E+01 -0.27198564566E+02 -0.53074125258E+02  0.59994033550E+02  0.00000000000E+00 0. -1.
         -5    1    5    5    0  502 -0.34144960879E+01  0.57125947711E+02  0.15431174752E+02  0.59457916543E+02  0.47000000000E+01 0.  1.
         11    1    6    6    0    0 -0.50541720707E+01 -0.35355521018E+02 -0.83612826942E+00  0.35724734181E+02  0.00000000000E+00 0. -1.
        -12    1    6    6    0    0  0.18786523710E+02 -0.34537447051E+02  0.11410469104E+03  0.12068823157E+03  0.00000000000E+00 0.  1.
<mgrwt>
<rscale>  2 0.18536798E+03</rscale>
<asrwt>0</asrwt>
<pdfrwt beam="1">  1       21 0.30922756E-01 0.18957066E+03</pdfrwt>
<pdfrwt beam="2">  1       21 0.54844388E-01 0.18957066E+03</pdfrwt>
<totfact> 0.31570183E+04</totfact>
</mgrwt>
</event>
<event>
12    1  0.1019868E-001  0.1902150E+03  0.7546771E-02  0.1161820E+00
         21   -1    0    0  501  502  0.00000000000E+00  0.00000000000E+00  0.15512559857E+04  0.15512559857E+04  0.00000000000E+00 0.  1.
         21   -1    0    0  502  503 -0.00000000000E+00 -0.00000000000E+00 -0.13778170758E+03  0.13778170758E+03  0.00000000000E+00 0.  1.
         -6    2    1    2    0  503  0.10812597253E+01 -0.21408886545E+02 -0.73521248303E+02  0.18992547658E+03  0.17380104475E+03 0.  0.
        -24    2    3    3    0    0  0.54508187557E+02 -0.38217228325E+02 -0.91571733199E+01  0.10447501655E+03  0.79996726236E+02 0.  0.
          6    2    1    2  501    0 -0.10812597253E+01  0.21408886545E+02  0.14869955264E+04  0.14991122167E+04  0.18900326209E+03 0.  0.
         24    2    5    5    0    0  0.53345002955E+01  0.82131995476E+02  0.66725216424E+03  0.67708440221E+03  0.80272756647E+02 0.  0.
          5    1    5    5  501    0 -0.64157600208E+01 -0.60723108931E+02  0.81974336219E+03  0.82202781448E+03  0.47000000000E+01 0. -1.
        -11    1    6    6    0    0 -0.10973635658E+02 -0.13729445111E+02  0.11539612132E+03  0.11672695986E+03  0.00000000000E+00 0.  1.
         12    1    6    6    0    0  0.16308135954E+02  0.95861440587E+02  0.55185604292E+03  0.56035744235E+03  0.00000000000E+00 0. -1.
         -5    1    3    3    0  503 -0.53426927831E+02  0.16808341780E+02 -0.64364074983E+02  0.85450460030E+02  0.47000000000E+01 0.  1.
         13    1    4    4    0    0 -0.17090364828E+01 -0.40149906898E+02  0.15481372415E+02  0.43065168309E+02  0.00000000000E+00 0. -1.
        -14    1    4    4    0    0  0.56217224039E+02  0.19326785730E+01 -0.24638545734E+02  0.61409848242E+02  0.00000000000E+00 0.  1.
<mgrwt>
<rscale>  2 0.18632291E+03</rscale>
<asrwt>0</asrwt>
<pdfrwt beam="1">  1       21 0.23865476E+00 0.19021499E+03</pdfrwt>
<pdfrwt beam="2">  1       21 0.21197187E-01 0.19021499E+03</pdfrwt>
<totfact> 0.16111232E+03</totfact>
</mgrwt>
</event>
<event>
12    1  0.1019868E-001  0.1922010E+03  0.7546771E-02  0.1158037E+00
         21   -1    0    0  503  502  0.00000000000E+00  0.00000000000E+00  0.66200115465E+03  0.66200115465E+03  0.00000000000E+00 0. -1.
         21   -1    0    0  501  503 -0.00000000000E+00 -0.00000000000E+00 -0.66186299787E+02  0.66186299787E+02  0.00000000000E+00 0.  1.
          6    2    1    2  501    0 -0.41483239164E+02  0.73771469307E+02  0.14504212234E+03  0.24078709060E+03  0.17256337077E+03 0.  0.
         24    2    3    3    0    0 -0.28918082678E+02  0.11743504220E+03  0.98289049218E+02  0.17542402303E+03  0.80533260327E+02 0.  0.
         -6    2    1    2    0  502  0.41483239164E+02 -0.73771469307E+02  0.45077273252E+03  0.48740036383E+03  0.16492413245E+03 0.  0.
        -24    2    5    5    0    0  0.75580596595E+02 -0.87077353829E+02  0.28440256202E+03  0.31698674941E+03  0.79378144913E+02 0.  0.
          5    1    3    3  501    0 -0.12565156486E+02 -0.43663572894E+02  0.46753073125E+02  0.65363067569E+02  0.47000000000E+01 0. -1.
        -11    1    4    4    0    0  0.25555593823E+02  0.61968257240E+02  0.52990794622E+02  0.85446928533E+02  0.00000000000E+00 0.  1.
         12    1    4    4    0    0 -0.54473676501E+02  0.55466784961E+02  0.45298254595E+02  0.89977094501E+02  0.00000000000E+00 0. -1.
         -5    1    5    5    0  502 -0.34097357431E+02  0.13305884522E+02  0.16637017050E+03  0.17041361442E+03  0.47000000000E+01 0.  1.
         13    1    6    6    0    0 -0.98321765319E+01 -0.18568636594E+02  0.10283453272E+03  0.10495907336E+03  0.00000000000E+00 0. -1.
        -14    1    6    6    0    0  0.85412773127E+02 -0.68508717234E+02  0.18156802929E+03  0.21202767605E+03  0.00000000000E+00 0.  1.
<mgrwt>
<rscale>  2 0.19047068E+03</rscale>
<asrwt>0</asrwt>
<pdfrwt beam="1">  1       21 0.10184633E+00 0.19220095E+03</pdfrwt>
<pdfrwt beam="2">  1       21 0.10182508E-01 0.19220095E+03</pdfrwt>
<totfact> 0.61785551E+04</totfact>
</mgrwt>
</event>
<event>
12    1  0.1019868E-001  0.1983772E+03  0.7546771E-02  0.1151225E+00
         21   -1    0    0  501  502  0.00000000000E+00  0.00000000000E+00  0.60883474302E+02  0.60883474302E+02  0.00000000000E+00 0.  1.
         21   -1    0    0  502  503 -0.00000000000E+00 -0.00000000000E+00 -0.95985927233E+03  0.95985927233E+03  0.00000000000E+00 0.  1.
         -6    2    1    2    0  503  0.91701438133E+02 -0.26777282722E+02 -0.74232305060E+03  0.76837296269E+03  0.17386006359E+03 0.  0.
        -24    2    3    3    0    0  0.76521587740E+02 -0.65295754825E+02 -0.68737928552E+03  0.69941639758E+03  0.81079751130E+02 0.  0.
          6    2    1    2  501    0 -0.91701438133E+02  0.26777282722E+02 -0.15665274743E+03  0.25236978395E+03  0.17327506441E+03 0.  0.
         24    2    5    5    0    0 -0.94406017989E+01  0.71860428439E+01 -0.80140870506E+01  0.81296106154E+02  0.80025415403E+02 0.  0.
          5    1    5    5  501    0 -0.82260836334E+02  0.19591239879E+02 -0.14863866038E+03  0.17107367780E+03  0.47000000000E+01 0. -1.
        -11    1    6    6    0    0  0.18103868704E+02 -0.21489074915E+02  0.18376100796E+02  0.33573970322E+02  0.00000000000E+00 0.  1.
         12    1    6    6    0    0 -0.27544470503E+02  0.28675117759E+02 -0.26390187847E+02  0.47722135832E+02  0.00000000000E+00 0. -1.
         -5    1    3    3    0  503  0.15179850393E+02  0.38518472103E+02 -0.54943765074E+02  0.68956565109E+02  0.47000000000E+01 0.  1.
         11    1    4    4    0    0 -0.11039989964E+02 -0.21283482588E+02 -0.63287411696E+02  0.67676912523E+02  0.00000000000E+00 0. -1.
        -12    1    4    4    0    0  0.87561577704E+02 -0.44012272237E+02 -0.62409187383E+03  0.63173948505E+03  0.00000000000E+00 0.  1.
<mgrwt>
<rscale>  2 0.19824891E+03</rscale>
<asrwt>0</asrwt>
<pdfrwt beam="1">  1       21 0.93666890E-02 0.19837716E+03</pdfrwt>
<pdfrwt beam="2">  1       21 0.14767065E+00 0.19837716E+03</pdfrwt>
<totfact> 0.28259116E+04</totfact>
</mgrwt>
</event>
<event>
12    1  0.1019868E-001  0.2101200E+03  0.7546771E-02  0.1141718E+00
         21   -1    0    0  503  502  0.00000000000E+00  0.00000000000E+00  0.88317253282E+02  0.88317253282E+02  0.00000000000E+00 0. -1.
         21   -1    0    0  501  503 -0.00000000000E+00 -0.00000000000E+00 -0.50745286956E+03  0.50745286956E+03  0.00000000000E+00 0. -1.
          6    2    1    2  501    0 -0.54297827325E+02 -0.10176214802E+03 -0.25303232498E+03  0.32890083439E+03  0.17563203739E+03 0.  0.
         24    2    3    3    0    0 -0.24860454475E+02 -0.74215434354E+01 -0.39364377108E+02  0.93437906223E+02  0.80671969299E+02 0.  0.
         -6    2    1    2    0  502  0.54297827325E+02  0.10176214802E+03 -0.16610329131E+03  0.26686928846E+03  0.17414110634E+03 0.  0.
        -24    2    5    5    0    0  0.70356334281E+02  0.12797896662E+03 -0.77577910421E+02  0.17303949424E+03  0.50948058947E+02 0.  0.
          5    1    3    3  501    0 -0.29437372850E+02 -0.94340604588E+02 -0.21366794787E+03  0.23546292817E+03  0.47000000000E+01 0. -1.
        -13    1    4    4    0    0 -0.83924826347E+00 -0.40665432363E+02 -0.32032987750E+02  0.51773487724E+02  0.00000000000E+00 0.  1.
         14    1    4    4    0    0 -0.24021206212E+02  0.33243888928E+02 -0.73313893579E+01  0.41664418499E+02  0.00000000000E+00 0. -1.
         -5    1    5    5    0  502 -0.16058506957E+02 -0.26216818592E+02 -0.88525380886E+02  0.93829794222E+02  0.47000000000E+01 0.  1.
         11    1    6    6    0    0  0.77459636007E+02  0.11931476625E+03 -0.65638784195E+02  0.15666671199E+03  0.00000000000E+00 0. -1.
        -12    1    6    6    0    0 -0.71033017254E+01  0.86642003670E+01 -0.11939126226E+02  0.16372782245E+02  0.00000000000E+00 0.  1.
<mgrwt>
<rscale>  2 0.20980812E+03</rscale>
<asrwt>0</asrwt>
<pdfrwt beam="1">  1       21 0.13587270E-01 0.21011997E+03</pdfrwt>
<pdfrwt beam="2">  1       21 0.78069672E-01 0.21011997E+03</pdfrwt>
<totfact> 0.67666211E+04</totfact>
</mgrwt>
</event>
<event>
12    1  0.1019868E-001  0.2081390E+03  0.7546771E-02  0.1143175E+00
         21   -1    0    0  501  502  0.00000000000E+00  0.00000000000E+00  0.54929126074E+02  0.54929126074E+02  0.00000000000E+00 0.  1.
         21   -1    0    0  502  503 -0.00000000000E+00 -0.00000000000E+00 -0.84828932449E+03  0.84828932449E+03  0.00000000000E+00 0.  1.
         -6    2    1    2    0  503  0.73584308103E+02  0.88742631113E+02 -0.51820740362E+03  0.55820990061E+03  0.17253832905E+03 0.  0.
        -24    2    3    3    0    0  0.87665780830E+02  0.25800593244E+02 -0.42854910077E+03  0.44766267416E+03  0.91632845221E+02 0.  0.
          6    2    1    2  501    0 -0.73584308103E+02 -0.88742631113E+02 -0.27515279479E+03  0.34500854996E+03  0.17329724200E+03 0.  0.
         24    2    5    5    0    0 -0.38163362309E+02 -0.60794985684E+02 -0.27986476363E+03  0.29940145691E+03  0.78514164132E+02 0.  0.
          5    1    5    5  501    0 -0.35420945794E+02 -0.27947645429E+02  0.47119688390E+01  0.45607093048E+02  0.47000000000E+01 0. -1.
        -13    1    6    6    0    0 -0.33795626111E+02 -0.75314679195E+02 -0.17554790702E+03  0.19398843498E+03  0.00000000000E+00 0.  1.
         14    1    6    6    0    0 -0.43677361980E+01  0.14519693511E+02 -0.10431685661E+03  0.10541302192E+03  0.00000000000E+00 0. -1.
         -5    1    3    3    0  503 -0.14081472726E+02  0.62942037869E+02 -0.89658302855E+02  0.11054722645E+03  0.47000000000E+01 0.  1.
         11    1    4    4    0    0  0.37605584228E+01  0.10503662748E+02 -0.24513304244E+03  0.24538679106E+03  0.00000000000E+00 0. -1.
        -12    1    4    4    0    0  0.83905222407E+02  0.15296930496E+02 -0.18341605833E+03  0.20227588310E+03  0.00000000000E+00 0.  1.
<mgrwt>
<rscale>  2 0.20798095E+03</rscale>
<asrwt>0</asrwt>
<pdfrwt beam="1">  1       21 0.84506353E-02 0.20813899E+03</pdfrwt>
<pdfrwt beam="2">  1       21 0.13050604E+00 0.20813899E+03</pdfrwt>
<totfact> 0.46289735E+04</totfact>
</mgrwt>
</event>
<event>
12    1  0.1019868E-001  0.1736572E+03  0.7546771E-02  0.1174596E+00
         21   -1    0    0  501  502  0.00000000000E+00  0.00000000000E+00  0.11021269524E+03  0.11021269524E+03  0.00000000000E+00 0.  1.
         21   -1    0    0  502  503 -0.00000000000E+00 -0.00000000000E+00 -0.91363300437E+03  0.91363300437E+03  0.00000000000E+00 0.  1.
         -6    2    1    2    0  503 -0.62312293456E+01 -0.80048220279E+01 -0.83190449843E+03  0.84983640437E+03  0.17336064802E+03 0.  0.
        -24    2    3    3    0    0 -0.57753173287E+02 -0.10635316879E+02 -0.71539975360E+03  0.72233395035E+03  0.80752643274E+02 0.  0.
          6    2    1    2  501    0  0.62312293456E+01  0.80048220279E+01  0.28484189300E+02  0.17400929525E+03  0.17136213233E+03 0.  0.
         24    2    5    5    0    0  0.17385875114E+02 -0.54579685347E+02 -0.10351438356E+02  0.99366528275E+02  0.80531633283E+02 0.  0.
          5    1    5    5  501    0 -0.11154645768E+02  0.62584507375E+02  0.38835627656E+02  0.74642766971E+02  0.47000000000E+01 0. -1.
        -11    1    6    6    0    0 -0.13661939862E+01 -0.69626087319E+02  0.65963426678E+01  0.69951199117E+02  0.00000000000E+00 0.  1.
         12    1    6    6    0    0  0.18752069100E+02  0.15046401971E+02 -0.16947781024E+02  0.29415329158E+02  0.00000000000E+00 0. -1.
         -5    1    3    3    0  503  0.51521943942E+02  0.26304948515E+01 -0.11650474483E+03  0.12750245401E+03  0.47000000000E+01 0.  1.
         11    1    4    4    0    0 -0.47873578735E+02 -0.19024616626E+02 -0.19250754778E+03  0.19928113691E+03  0.00000000000E+00 0. -1.
        -12    1    4    4    0    0 -0.98795945522E+01  0.83892997465E+01 -0.52289220582E+03  0.52305281344E+03  0.00000000000E+00 0.  1.
<mgrwt>
<rscale>  2 0.17315626E+03</rscale>
<asrwt>0</asrwt>
<pdfrwt beam="1">  1       21 0.16955800E-01 0.17365719E+03</pdfrwt>
<pdfrwt beam="2">  1       21 0.14055892E+00 0.17365719E+03</pdfrwt>
<totfact> 0.11261024E+04</totfact>
</mgrwt>
</event>
<event>
12    1  0.1019868E-001  0.2298467E+03  0.7546771E-02  0.1127409E+00
         21   -1    0    0  501  502  0.00000000000E+00  0.00000000000E+00  0.52418843873E+03  0.52418843873E+03  0.00000000000E+00 0.  1.
         21   -1    0    0  502  503 -0.00000000000E+00 -0.00000000000E+00 -0.16180837612E+03  0.16180837612E+03  0.00000000000E+00 0.  1.
         -6    2    1    2    0  503  0.14188732455E+03  0.32815720057E+02 -0.31327320791E+02  0.23197178191E+03  0.17782188342E+03 0.  0.
        -24    2    3    3    0    0  0.76916849963E+02  0.30403535937E+02  0.33836208236E+02  0.13980152252E+03  0.10751278950E+03 0.  0.
          6    2    1    2  501    0 -0.14188732455E+03 -0.32815720057E+02  0.39370738340E+03  0.45402503294E+03  0.17298653831E+03 0.  0.
         24    2    5    5    0    0 -0.71421086895E+02  0.48989063232E+02  0.21557563075E+03  0.24567310825E+03  0.79884438872E+02 0.  0.
          5    1    5    5  501    0 -0.70466237657E+02 -0.81804783290E+02  0.17813175265E+03  0.20835192469E+03  0.47000000000E+01 0. -1.
        -13    1    6    6    0    0 -0.20313652985E+02  0.16300646742E+02  0.16397136931E+03  0.16602700243E+03  0.00000000000E+00 0.  1.
         14    1    6    6    0    0 -0.51107433911E+02  0.32688416491E+02  0.51604261436E+02  0.79646105818E+02  0.00000000000E+00 0. -1.
         -5    1    3    3    0  503  0.64970474590E+02  0.24121841203E+01 -0.65163529027E+02  0.92170259390E+02  0.47000000000E+01 0.  1.
         11    1    4    4    0    0 -0.24135250597E+02  0.49280166453E+01  0.25185359343E+02  0.35229220750E+02  0.00000000000E+00 0. -1.
        -12    1    4    4    0    0  0.10105210056E+03  0.25475519292E+02  0.86508488926E+01  0.10457230177E+03  0.00000000000E+00 0.  1.
<mgrwt>
<rscale>  2 0.22891097E+03</rscale>
<asrwt>0</asrwt>
<pdfrwt beam="1">  1       21 0.80644374E-01 0.22984670E+03</pdfrwt>
<pdfrwt beam="2">  1       21 0.24893597E-01 0.22984670E+03</pdfrwt>
<totfact> 0.20186363E+04</totfact>
</mgrwt>
</event>
<event>
12    1  0.1019868E-001  0.2452271E+03  0.7546771E-02  0.1116480E+00
         21   -1    0    0  501  502  0.00000000000E+00  0.00000000000E+00  0.18206590919E+04  0.18206590919E+04  0.00000000000E+00 0.  1.
         21   -1    0    0  502  503 -0.00000000000E+00 -0.00000000000E+00 -0.13002625587E+03  0.13002625587E+03  0.00000000000E+00 0.  1.
         -6    2    1    2    0  503 -0.17045424239E+03  0.24454303879E+02  0.21521184208E+01  0.24448974138E+03  0.17354521111E+03 0.  0.
        -24    2    3    3    0    0 -0.19536892510E+03  0.38535015582E+02 -0.29635886361E+01  0.21504032177E+03  0.81114689232E+02 0.  0.
          6    2    1    2  501    0  0.17045424239E+03 -0.24454303879E+02  0.16884807176E+04  0.17061956064E+04  0.17459568102E+03 0.  0.
         24    2    5    5    0    0  0.62159567837E+02  0.42563865223E+02  0.99236512652E+03  0.99851052270E+03  0.80989043226E+02 0.  0.
          5    1    5    5  501    0  0.10829467455E+03 -0.67018169102E+02  0.69611559110E+03  0.70768508370E+03  0.47000000000E+01 0. -1.
        -11    1    6    6    0    0  0.15975708115E+02  0.30881752919E+02  0.78393270696E+03  0.78470338024E+03  0.00000000000E+00 0.  1.
         12    1    6    6    0    0  0.46183859723E+02  0.11682112304E+02  0.20843241956E+03  0.21380714247E+03  0.00000000000E+00 0. -1.
         -5    1    3    3    0  503  0.24914682708E+02 -0.14080711702E+02  0.51157070569E+01  0.29449419607E+02  0.47000000000E+01 0.  1.
         11    1    4    4    0    0 -0.71662588893E+02 -0.58467197868E+01  0.32512177205E+02  0.78909774083E+02  0.00000000000E+00 0. -1.
        -12    1    4    4    0    0 -0.12370633620E+03  0.44381735368E+02 -0.35475765841E+02  0.13613054769E+03  0.00000000000E+00 0.  1.
<mgrwt>
<rscale>  2 0.24504015E+03</rscale>
<asrwt>0</asrwt>
<pdfrwt beam="1">  1       21 0.28010138E+00 0.24522707E+03</pdfrwt>
<pdfrwt beam="2">  1       21 0.20004041E-01 0.24522707E+03</pdfrwt>
<totfact> 0.96444745E+02</totfact>
</mgrwt>
</event>
<event>
12    1  0.1019868E-001  0.2944374E+03  0.7546771E-02  0.1088063E+00
         21   -1    0    0  503  502  0.00000000000E+00  0.00000000000E+00  0.25169353085E+03  0.25169353085E+03  0.00000000000E+00 0. -1.
         21   -1    0    0  501  503 -0.00000000000E+00 -0.00000000000E+00 -0.26426606624E+04  0.26426606624E+04  0.00000000000E+00 0.  1.
          6    2    1    2  501    0 -0.23139820179E+03  0.58207519436E+02 -0.25450974682E+04  0.25620723102E+04  0.17251132307E+03 0.  0.
         24    2    3    3    0    0 -0.14401781972E+03  0.99935259913E+02 -0.18927724010E+04  0.19025826447E+04  0.80654630366E+02 0.  0.
         -6    2    1    2    0  502  0.23139820179E+03 -0.58207519436E+02  0.15413033671E+03  0.33228188305E+03  0.17240024941E+03 0.  0.
        -24    2    5    5    0    0  0.85221824143E+02  0.17240971400E+02  0.23097185695E+02  0.12192080106E+03  0.82287248942E+02 0.  0.
          5    1    3    3  501    0 -0.87380382076E+02 -0.41727740477E+02 -0.65232506723E+03  0.65948966545E+03  0.47000000000E+01 0. -1.
        -11    1    4    4    0    0 -0.76872579184E+02  0.74319801891E+01 -0.87914108910E+03  0.88252687342E+03  0.00000000000E+00 0.  1.
         12    1    4    4    0    0 -0.67145240533E+02  0.92503279723E+02 -0.10136313119E+04  0.10200557713E+04  0.00000000000E+00 0. -1.
         -5    1    5    5    0  502  0.14617637765E+03 -0.75448490836E+02  0.13103315102E+03  0.21036108200E+03  0.47000000000E+01 0.  1.
         11    1    6    6    0    0  0.67325811488E+02  0.10123436223E+02  0.53049765506E+02  0.86310639400E+02  0.00000000000E+00 0. -1.
        -12    1    6    6    0    0  0.17896012656E+02  0.71175351769E+01 -0.29952579811E+02  0.35610161658E+02  0.00000000000E+00 0.  1.
<mgrwt>
<rscale>  2 0.29442116E+03</rscale>
<asrwt>0</asrwt>
<pdfrwt beam="1">  1       21 0.38722080E-01 0.29443743E+03</pdfrwt>
<pdfrwt beam="2">  1       21 0.40656319E+00 0.29443743E+03</pdfrwt>
<totfact> 0.43629995E+01</totfact>
</mgrwt>
</event>
<event>
12    1  0.1019868E-001  0.1961654E+03  0.7546771E-02  0.1153212E+00
         21   -1    0    0  503  502  0.00000000000E+00  0.00000000000E+00  0.56740063491E+03  0.56740063491E+03  0.00000000000E+00 0. -1.
         21   -1    0    0  501  503 -0.00000000000E+00 -0.00000000000E+00 -0.93080158212E+02  0.93080158212E+02  0.00000000000E+00 0.  1.
          6    2    1    2  501    0  0.75717799929E+02 -0.46380204923E+02  0.40986292875E+03  0.45399679697E+03  0.17389986390E+03 0.  0.
         24    2    3    3    0    0  0.25862394250E+01  0.11400818706E+02  0.90396333005E+02  0.12117872711E+03  0.79850607892E+02 0.  0.
         -6    2    1    2    0  502 -0.75717799929E+02  0.46380204923E+02  0.64457547949E+02  0.20648399615E+03  0.17491871410E+03 0.  0.
        -24    2    5    5    0    0 -0.10929151818E+03 -0.17235845695E+01  0.41453583238E+02  0.14329822629E+03  0.82875662308E+02 0.  0.
          5    1    3    3  501    0  0.73131560504E+02 -0.57781023628E+02  0.31946659575E+03  0.33281806987E+03  0.47000000000E+01 0. -1.
        -11    1    4    4    0    0  0.75135961279E-01 -0.34681478453E+01 -0.14650238163E+02  0.15055337031E+02  0.00000000000E+00 0.  1.
         12    1    4    4    0    0  0.25111034637E+01  0.14868966551E+02  0.10504657117E+03  0.10612339007E+03  0.00000000000E+00 0. -1.
         -5    1    5    5    0  502  0.33573718253E+02  0.48103789492E+02  0.23003964711E+02  0.63185769864E+02  0.47000000000E+01 0.  1.
         13    1    6    6    0    0  0.11752511492E+02  0.87277426385E+01 -0.81388530303E+00  0.14661426507E+02  0.00000000000E+00 0. -1.
        -14    1    6    6    0    0 -0.12104402968E+03 -0.10451327208E+02  0.42267468541E+02  0.12863679978E+03  0.00000000000E+00 0.  1.
<mgrwt>
<rscale>  2 0.19593802E+03</rscale>
<asrwt>0</asrwt>
<pdfrwt beam="1">  1       21 0.87292403E-01 0.19616540E+03</pdfrwt>
<pdfrwt beam="2">  1       21 0.14320025E-01 0.19616540E+03</pdfrwt>
<totfact> 0.48027564E+04</totfact>
</mgrwt>
</event>
<event>
12    1  0.1019868E-001  0.2038255E+03  0.7546771E-02  0.1146583E+00
         21   -1    0    0  501  502  0.00000000000E+00  0.00000000000E+00  0.54103216380E+03  0.54103216380E+03  0.00000000000E+00 0.  1.
         21   -1    0    0  502  503 -0.00000000000E+00 -0.00000000000E+00 -0.10948982359E+03  0.10948982359E+03  0.00000000000E+00 0. -1.
         -6    2    1    2    0  503  0.10339246522E+03  0.31215552270E+02  0.37795086885E+02  0.20714659600E+03  0.17267550803E+03 0.  0.
        -24    2    3    3    0    0  0.10742849480E+03 -0.67490805718E+01 -0.22919889564E+02  0.13527169602E+03  0.78655443697E+02 0.  0.
          6    2    1    2  501    0 -0.10339246522E+03 -0.31215552270E+02  0.39374725332E+03  0.44337539139E+03  0.17285955463E+03 0.  0.
         24    2    5    5    0    0 -0.11375305446E+02  0.31142103088E+02  0.21090755688E+03  0.22934717020E+03  0.83778868269E+02 0.  0.
          5    1    5    5  501    0 -0.92017159773E+02 -0.62357655359E+02  0.18283969644E+03  0.21402822119E+03  0.47000000000E+01 0. -1.
        -11    1    6    6    0    0  0.36441970955E+01 -0.27038922594E+02  0.42135546753E+02  0.50197488062E+02  0.00000000000E+00 0.  1.
         12    1    6    6    0    0 -0.15019502541E+02  0.58181025682E+02  0.16877201013E+03  0.17914968213E+03  0.00000000000E+00 0. -1.
         -5    1    3    3    0  503 -0.40360295807E+01  0.37964632842E+02  0.60714976449E+02  0.71874899978E+02  0.47000000000E+01 0.  1.
         11    1    4    4    0    0  0.61990122900E+02 -0.13582877885E+02  0.25615776573E+02  0.68435648008E+02  0.00000000000E+00 0. -1.
        -12    1    4    4    0    0  0.45438371900E+02  0.68337973129E+01 -0.48535666137E+02  0.66836048013E+02  0.00000000000E+00 0.  1.
<mgrwt>
<rscale>  2 0.20378648E+03</rscale>
<asrwt>0</asrwt>
<pdfrwt beam="1">  1       21 0.83235716E-01 0.20382551E+03</pdfrwt>
<pdfrwt beam="2">  1       21 0.16844588E-01 0.20382551E+03</pdfrwt>
<totfact> 0.39648550E+04</totfact>
</mgrwt>
</event>
<event>
12    1  0.1019868E-001  0.2222408E+03  0.7546771E-02  0.1132997E+00
         21   -1    0    0  503  502  0.00000000000E+00  0.00000000000E+00  0.52183836412E+03  0.52183836412E+03  0.00000000000E+00 0.  1.
         21   -1    0    0  501  503 -0.00000000000E+00 -0.00000000000E+00 -0.10251599115E+03  0.10251599115E+03  0.00000000000E+00 0.  1.
          6    2    1    2  501    0 -0.57265399914E+02  0.12395888621E+03  0.30714565776E+03  0.37911662056E+03  0.17534487561E+03 0.  0.
         24    2    3    3    0    0 -0.87835936389E+02  0.12674914458E+03  0.18793856892E+03  0.25593073145E+03  0.79994601334E+02 0.  0.
         -6    2    1    2    0  502  0.57265399914E+02 -0.12395888621E+03  0.11217671521E+03  0.24523773471E+03  0.17003764169E+03 0.  0.
        -24    2    5    5    0    0 -0.27355320453E+02 -0.91555447783E+02  0.50239772198E+02  0.13537907985E+03  0.81686883739E+02 0.  0.
          5    1    3    3  501    0  0.30570536475E+02 -0.27902583768E+01  0.11920708885E+03  0.12318588910E+03  0.47000000000E+01 0. -1.
        -13    1    4    4    0    0 -0.36904821900E+02  0.11506901766E+03  0.12095336303E+03  0.17097532200E+03  0.00000000000E+00 0.  1.
         14    1    4    4    0    0 -0.50931114489E+02  0.11680126925E+02  0.66985205888E+02  0.84955409456E+02  0.00000000000E+00 0. -1.
         -5    1    5    5    0  502  0.84620720367E+02 -0.32403438425E+02  0.61936943011E+02  0.10985865486E+03  0.47000000000E+01 0.  1.
         13    1    6    6    0    0 -0.32380433061E+02 -0.25816435699E+02 -0.13617077154E+02  0.43593641597E+02  0.00000000000E+00 0. -1.
        -14    1    6    6    0    0  0.50251126082E+01 -0.65739012083E+02  0.63856849351E+02  0.91785438254E+02  0.00000000000E+00 0.  1.
<mgrwt>
<rscale>  2 0.22119263E+03</rscale>
<asrwt>0</asrwt>
<pdfrwt beam="1">  1       21 0.80282823E-01 0.22224076E+03</pdfrwt>
<pdfrwt beam="2">  1       21 0.15771691E-01 0.22224076E+03</pdfrwt>
<totfact> 0.48142900E+04</totfact>
</mgrwt>
</event>
<event>
12    1  0.1019868E-001  0.1820989E+03  0.7546771E-02  0.1167690E+00
         21   -1    0    0  503  502  0.00000000000E+00  0.00000000000E+00  0.18878805164E+03  0.18878805164E+03  0.00000000000E+00 0. -1.
         21   -1    0    0  501  503 -0.00000000000E+00 -0.00000000000E+00 -0.16822585851E+03  0.16822585851E+03  0.00000000000E+00 0. -1.
          6    2    1    2  501    0  0.26512520063E+02 -0.18547769679E+02  0.12160195012E+02  0.17472130853E+03  0.17126801170E+03 0.  0.
         24    2    3    3    0    0 -0.14911796032E+01 -0.71366957393E+02  0.35985089106E+02  0.11019387743E+03  0.75843903920E+02 0.  0.
         -6    2    1    2    0  502 -0.26512520063E+02  0.18547769679E+02  0.84019981170E+01  0.18229260161E+03  0.17920118736E+03 0.  0.
        -24    2    5    5    0    0 -0.18195636492E+02  0.81449808964E+02 -0.87907527680E+01  0.11638723171E+03  0.80644639030E+02 0.  0.
          5    1    3    3  501    0  0.28003699667E+02  0.52819187714E+02 -0.23824894094E+02  0.64527431100E+02  0.47000000000E+01 0. -1.
        -11    1    4    4    0    0  0.34361641223E+02 -0.39601881697E+02  0.33519451706E+02  0.62230097735E+02  0.00000000000E+00 0.  1.
         12    1    4    4    0    0 -0.35852820826E+02 -0.31765075695E+02  0.24656374009E+01  0.47963779698E+02  0.00000000000E+00 0. -1.
         -5    1    5    5    0  502 -0.83168835710E+01 -0.62902039285E+02  0.17192750885E+02  0.65905369899E+02  0.47000000000E+01 0.  1.
         11    1    6    6    0    0 -0.46201325553E+02  0.35124048036E+02 -0.19460692159E+02  0.61212578549E+02  0.00000000000E+00 0. -1.
        -12    1    6    6    0    0  0.28005689061E+02  0.46325760928E+02  0.10669939391E+02  0.55174653165E+02  0.00000000000E+00 0.  1.
<mgrwt>
<rscale>  2 0.18011642E+03</rscale>
<asrwt>0</asrwt>
<pdfrwt beam="1">  1       21 0.29044316E-01 0.18209887E+03</pdfrwt>
<pdfrwt beam="2">  1       21 0.25880901E-01 0.18209887E+03</pdfrwt>
<totfact> 0.16141010E+05</totfact>
</mgrwt>
</event>
<event>
12    1  0.1019868E-001  0.2117893E+03  0.7546771E-02  0.1144319E+00
         21   -1    0    0  501  502  0.00000000000E+00  0.00000000000E+00  0.22406685569E+03  0.22406685569E+03  0.00000000000E+00 0.  1.
         21   -1    0    0  502  503 -0.00000000000E+00 -0.00000000000E+00 -0.18252543534E+03  0.18252543534E+03  0.00000000000E+00 0.  1.
         -6    2    1    2    0  503  0.55726805778E+02 -0.65277705031E+02  0.34285330711E+02  0.19467867817E+03  0.17134073706E+03 0.  0.
        -24    2    3    3    0    0  0.70570273118E+02 -0.35119879579E+02 -0.35452068132E+02  0.11712084326E+03  0.79037164684E+02 0.  0.
          6    2    1    2  501    0 -0.55726805778E+02  0.65277705031E+02  0.72560896427E+01  0.21191361287E+03  0.19361836903E+03 0.  0.
         24    2    5    5    0    0 -0.96858371312E+02 -0.35072072991E+01 -0.54187608808E+01  0.13063685307E+03  0.87422993621E+02 0.  0.
          5    1    5    5  501    0  0.41131565533E+02  0.68784912330E+02  0.12674850523E+02  0.81276759798E+02  0.47000000000E+01 0. -1.
        -11    1    6    6    0    0 -0.93861233137E+02  0.26842393436E+02  0.66229149769E+01  0.97848393825E+02  0.00000000000E+00 0.  1.
         12    1    6    6    0    0 -0.29971381750E+01 -0.30349600735E+02 -0.12041675858E+02  0.32788459243E+02  0.00000000000E+00 0. -1.
         -5    1    3    3    0  503 -0.14843467340E+02 -0.30157825451E+02  0.69737398844E+02  0.77557834911E+02  0.47000000000E+01 0.  1.
         13    1    4    4    0    0 -0.16264650461E+02 -0.21025515458E+01  0.28296293299E+01  0.16642306924E+02  0.00000000000E+00 0. -1.
        -14    1    4    4    0    0  0.86834923579E+02 -0.33017328034E+02 -0.38281697462E+02  0.10047853633E+03  0.00000000000E+00 0.  1.
<mgrwt>
<rscale>  2 0.20656050E+03</rscale>
<asrwt>0</asrwt>
<pdfrwt beam="1">  1       21 0.34471824E-01 0.21178935E+03</pdfrwt>
<pdfrwt beam="2">  1       21 0.28080836E-01 0.21178935E+03</pdfrwt>
<totfact> 0.97511505E+04</totfact>
</mgrwt>
</event>
<event>
12    1  0.1019868E-001  0.2255147E+03  0.7546771E-02  0.1130118E+00
         21   -1    0    0  501  502  0.00000000000E+00  0.00000000000E+00  0.11447752694E+04  0.11447752694E+04  0.00000000000E+00 0.  1.
         21   -1    0    0  502  503 -0.00000000000E+00 -0.00000000000E+00 -0.47107239776E+02  0.47107239776E+02  0.00000000000E+00 0. -1.
         -6    2    1    2    0  503  0.86321104144E+02 -0.11256922526E+03  0.40054725457E+03  0.45966835051E+03  0.17531036998E+03 0.  0.
        -24    2    3    3    0    0  0.66668192806E+02 -0.51288594032E+02  0.37062933870E+03  0.38854364048E+03  0.80776766722E+02 0.  0.
          6    2    1    2  501    0 -0.86321104144E+02  0.11256922526E+03  0.69712077509E+03  0.73221415870E+03  0.17331196048E+03 0.  0.
         24    2    5    5    0    0 -0.12980879136E+02  0.98334736209E+02  0.27189051818E+03  0.30044538879E+03  0.80652056378E+02 0.  0.
          5    1    5    5  501    0 -0.73340225008E+02  0.14234489048E+02  0.42523025690E+03  0.43176876991E+03  0.47000000000E+01 0. -1.
        -11    1    6    6    0    0  0.22478022308E+02  0.56784816435E+02  0.20597486462E+03  0.21483812911E+03  0.00000000000E+00 0.  1.
         12    1    6    6    0    0 -0.35458901444E+02  0.41549919774E+02  0.65915653560E+02  0.85607259675E+02  0.00000000000E+00 0. -1.
         -5    1    3    3    0  503  0.19652911337E+02 -0.61280631225E+02  0.29917915873E+02  0.71124710034E+02  0.47000000000E+01 0.  1.
         13    1    4    4    0    0  0.10778555176E+02  0.27681291903E+01  0.13999617962E+01  0.11216045824E+02  0.00000000000E+00 0. -1.
        -14    1    4    4    0    0  0.55889637630E+02 -0.54056723222E+02  0.36922937690E+03  0.37732759465E+03  0.00000000000E+00 0.  1.
<mgrwt>
<rscale>  2 0.22512622E+03</rscale>
<asrwt>0</asrwt>
<pdfrwt beam="1">  1       21 0.17611925E+00 0.22551472E+03</pdfrwt>
<pdfrwt beam="2">  1       21 0.72472685E-02 0.22551472E+03</pdfrwt>
<totfact> 0.26973281E+04</totfact>
</mgrwt>
</event>
<event>
12    1  0.1019868E-001  0.2487716E+03  0.7546771E-02  0.1114169E+00
         21   -1    0    0  501  502  0.00000000000E+00  0.00000000000E+00  0.18957578188E+03  0.18957578188E+03  0.00000000000E+00 0. -1.
         21   -1    0    0  502  503 -0.00000000000E+00 -0.00000000000E+00 -0.35600277344E+03  0.35600277344E+03  0.00000000000E+00 0. -1.
         -6    2    1    2    0  503 -0.12231650270E+03 -0.12947350885E+03 -0.16281527382E+03  0.29731485751E+03  0.17367381720E+03 0.  0.
        -24    2    3    3    0    0 -0.10141963343E+03 -0.10533406654E+03 -0.19247921245E+03  0.25348072611E+03  0.76308739106E+02 0.  0.
          6    2    1    2  501    0  0.12231650270E+03  0.12947350885E+03 -0.36117177454E+01  0.24826369781E+03  0.17290778703E+03 0.  0.
         24    2    5    5    0    0  0.17272740332E+02  0.12072149234E+01  0.72991820422E+01  0.82048259580E+02  0.79867602413E+02 0.  0.
          5    1    5    5  501    0  0.10504376237E+03  0.12826629393E+03 -0.10910899788E+02  0.16621543823E+03  0.47000000000E+01 0. -1.
        -13    1    6    6    0    0  0.46131874442E+02  0.15745532209E+02 -0.73382907828E+00  0.48750488502E+02  0.00000000000E+00 0.  1.
         14    1    6    6    0    0 -0.28859134111E+02 -0.14538317285E+02  0.80330111205E+01  0.33297771078E+02  0.00000000000E+00 0. -1.
         -5    1    3    3    0  503 -0.20896869275E+02 -0.24139442314E+02  0.29663938633E+02  0.43834131404E+02  0.47000000000E+01 0.  1.
         11    1    4    4    0    0 -0.36390245471E+02 -0.77129878813E+02 -0.14482034596E+03  0.16806606075E+03  0.00000000000E+00 0. -1.
        -12    1    4    4    0    0 -0.65029387956E+02 -0.28204187727E+02 -0.47658866490E+02  0.85414665359E+02  0.00000000000E+00 0.  1.
<mgrwt>
<rscale>  2 0.24863795E+03</rscale>
<asrwt>0</asrwt>
<pdfrwt beam="1">  1       21 0.29165505E-01 0.24877160E+03</pdfrwt>
<pdfrwt beam="2">  1       21 0.54769657E-01 0.24877160E+03</pdfrwt>
<totfact> 0.34471605E+04</totfact>
</mgrwt>
</event>
<event>
12    1  0.1019868E-001  0.2565973E+03  0.7546771E-02  0.1109207E+00
         21   -1    0    0  501  502  0.00000000000E+00  0.00000000000E+00  0.62551563661E+03  0.62551563661E+03  0.00000000000E+00 0. -1.
         21   -1    0    0  502  503 -0.00000000000E+00 -0.00000000000E+00 -0.12013430287E+03  0.12013430287E+03  0.00000000000E+00 0.  1.
         -6    2    1    2    0  503  0.18891350710E+03  0.96767140530E+01  0.38390546520E+03  0.46176358094E+03  0.17337891023E+03 0.  0.
        -24    2    3    3    0    0  0.66229633958E+02  0.61729210627E+02  0.15120796771E+03  0.19356400885E+03  0.80039466304E+02 0.  0.
          6    2    1    2  501    0 -0.18891350710E+03 -0.96767140530E+01  0.12147586854E+03  0.28388635855E+03  0.17335837439E+03 0.  0.
         24    2    5    5    0    0 -0.90244376860E+02 -0.20867885464E+02  0.11496663381E+02  0.13563537154E+03  0.98413741652E+02 0.  0.
          5    1    5    5  501    0 -0.98669130243E+02  0.11191171411E+02  0.10997920516E+03  0.14825098700E+03  0.47000000000E+01 0. -1.
        -13    1    6    6    0    0  0.89175083412E+01  0.18856006722E+02  0.19446566997E+02  0.28517361597E+02  0.00000000000E+00 0.  1.
         14    1    6    6    0    0 -0.99161885201E+02 -0.39723892186E+02 -0.79499036156E+01  0.10711800995E+03  0.00000000000E+00 0. -1.
         -5    1    3    3    0  503  0.12268387315E+03 -0.52052496574E+02  0.23269749749E+03  0.26819957209E+03  0.47000000000E+01 0.  1.
         11    1    4    4    0    0 -0.83293489812E+00  0.52989123917E+02  0.72235877621E+02  0.89591088004E+02  0.00000000000E+00 0. -1.
        -12    1    4    4    0    0  0.67062568856E+02  0.87400867104E+01  0.78972090084E+02  0.10397292085E+03  0.00000000000E+00 0.  1.
<mgrwt>
<rscale>  2 0.25659388E+03</rscale>
<asrwt>0</asrwt>
<pdfrwt beam="1">  1       21 0.96233173E-01 0.25659735E+03</pdfrwt>
<pdfrwt beam="2">  1       21 0.18482201E-01 0.25659735E+03</pdfrwt>
<totfact> 0.23215812E+04</totfact>
</mgrwt>
</event>
<event>
12    1  0.1019868E-001  0.2168191E+03  0.7546771E-02  0.1136303E+00
         21   -1    0    0  503  502  0.00000000000E+00  0.00000000000E+00  0.84094451377E+03  0.84094451377E+03  0.00000000000E+00 0. -1.
         21   -1    0    0  501  503 -0.00000000000E+00 -0.00000000000E+00 -0.70369840052E+02  0.70369840052E+02  0.00000000000E+00 0. -1.
          6    2    1    2  501    0 -0.24109154498E+02 -0.12619439910E+03  0.17852512846E+03  0.28085891016E+03  0.17465459693E+03 0.  0.
         24    2    3    3    0    0 -0.35322049180E+02 -0.83941315743E+02  0.28850965337E+02  0.12486052181E+03  0.80398880961E+02 0.  0.
         -6    2    1    2    0  502  0.24109154498E+02  0.12619439910E+03  0.59204954526E+03  0.63045544367E+03  0.17448531373E+03 0.  0.
        -24    2    5    5    0    0  0.56178551986E+02  0.38866562300E+02  0.19106353424E+03  0.21879239168E+03  0.81842514455E+02 0.  0.
          5    1    3    3  501    0  0.11212894682E+02 -0.42253083358E+02  0.14967416312E+03  0.15599838835E+03  0.47000000000E+01 0. -1.
        -13    1    4    4    0    0  0.23379430478E+02 -0.19553334358E+02 -0.59209222767E+01  0.31048155736E+02  0.00000000000E+00 0.  1.
         14    1    4    4    0    0 -0.58701479658E+02 -0.64387981385E+02  0.34771887613E+02  0.93812366077E+02  0.00000000000E+00 0. -1.
         -5    1    5    5    0  502 -0.32069397488E+02  0.87327836800E+02  0.40098601102E+03  0.41166305198E+03  0.47000000000E+01 0.  1.
         13    1    6    6    0    0  0.57318392373E+02  0.52417631569E+02  0.18986792275E+03  0.20514101075E+03  0.00000000000E+00 0. -1.
        -14    1    6    6    0    0 -0.11398403875E+01 -0.13551069268E+02  0.11956114936E+01  0.13651380929E+02  0.00000000000E+00 0.  1.
<mgrwt>
<rscale>  2 0.21678497E+03</rscale>
<asrwt>0</asrwt>
<pdfrwt beam="1">  1       21 0.12937607E+00 0.21681906E+03</pdfrwt>
<pdfrwt beam="2">  1       21 0.10826130E-01 0.21681906E+03</pdfrwt>
<totfact> 0.30413523E+04</totfact>
</mgrwt>
</event>
<event>
12    1  0.1019868E-001  0.2270951E+03  0.7546771E-02  0.1128956E+00
         21   -1    0    0  503  502  0.00000000000E+00  0.00000000000E+00  0.59514875857E+03  0.59514875857E+03  0.00000000000E+00 0.  1.
         21   -1    0    0  501  503 -0.00000000000E+00 -0.00000000000E+00 -0.23136983969E+03  0.23136983969E+03  0.00000000000E+00 0.  1.
          6    2    1    2  501    0 -0.11265063014E+03  0.92257875302E+02 -0.14576537393E+03  0.26865877824E+03  0.17241900957E+03 0.  0.
         24    2    3    3    0    0 -0.13981202083E+03  0.10345647476E+03 -0.14208333973E+03  0.23867883245E+03  0.80803875472E+02 0.  0.
         -6    2    1    2    0  502  0.11265063014E+03 -0.92257875302E+02  0.50954429282E+03  0.55785982002E+03  0.17427137579E+03 0.  0.
        -24    2    5    5    0    0  0.47560942728E+02  0.20720547622E+02  0.24324101204E+03  0.26131249023E+03  0.80166347320E+02 0.  0.
          5    1    3    3  501    0  0.27161390688E+02 -0.11198599458E+02 -0.36820342029E+01  0.29979945794E+02  0.47000000000E+01 0. -1.
        -13    1    4    4    0    0 -0.90139941597E+02  0.41661162518E+02 -0.12120987033E+03  0.15669299346E+03  0.00000000000E+00 0.  1.
         14    1    4    4    0    0 -0.49672079230E+02  0.61795312241E+02 -0.20873469405E+02  0.81985838991E+02  0.00000000000E+00 0. -1.
         -5    1    5    5    0  502  0.65089687410E+02 -0.11297842292E+03  0.26630328078E+03  0.29654732979E+03  0.47000000000E+01 0.  1.
         11    1    6    6    0    0  0.62846950057E+02  0.32122976770E+02  0.22109278404E+03  0.23208542376E+03  0.00000000000E+00 0. -1.
        -12    1    6    6    0    0 -0.15286007329E+02 -0.11402429148E+02  0.22148228000E+02  0.29227066464E+02  0.00000000000E+00 0.  1.
<mgrwt>
<rscale>  2 0.22673969E+03</rscale>
<asrwt>0</asrwt>
<pdfrwt beam="1">  1       21 0.91561347E-01 0.22709512E+03</pdfrwt>
<pdfrwt beam="2">  1       21 0.35595360E-01 0.22709512E+03</pdfrwt>
<totfact> 0.74992632E+03</totfact>
</mgrwt>
</event>
<event>
12    1  0.1019868E-001  0.2793980E+03  0.7546771E-02  0.1097571E+00
         21   -1    0    0  503  502  0.00000000000E+00  0.00000000000E+00  0.77056250740E+03  0.77056250740E+03  0.00000000000E+00 0.  1.
         21   -1    0    0  501  503 -0.00000000000E+00 -0.00000000000E+00 -0.19832934401E+03  0.19832934401E+03  0.00000000000E+00 0. -1.
          6    2    1    2  501    0  0.11591134788E+03  0.16873956765E+03 -0.56726136708E+02  0.28509842777E+03  0.19014409451E+03 0.  0.
         24    2    3    3    0    0  0.95292195571E+01  0.13772179430E+03 -0.69094780148E+02  0.17349944556E+03  0.79182512691E+02 0.  0.
         -6    2    1    2    0  502 -0.11591134788E+03 -0.16873956765E+03  0.62895930010E+03  0.68379342364E+03  0.17342192127E+03 0.  0.
        -24    2    5    5    0    0 -0.49268282941E+02 -0.13816666371E+03  0.55465329462E+03  0.57929714137E+03  0.80171753710E+02 0.  0.
          5    1    3    3  501    0  0.10638212832E+03  0.31017773346E+02  0.12368643441E+02  0.11159898221E+03  0.47000000000E+01 0. -1.
        -13    1    4    4    0    0 -0.25386473776E+01 -0.16862437911E+01 -0.27288782749E+02  0.27458437912E+02  0.00000000000E+00 0.  1.
         14    1    4    4    0    0  0.12067866935E+02  0.13940803809E+03 -0.41805997399E+02  0.14604100765E+03  0.00000000000E+00 0. -1.
         -5    1    5    5    0  502 -0.66643064937E+02 -0.30572903942E+02  0.74306005470E+02  0.10449628227E+03  0.47000000000E+01 0.  1.
         11    1    6    6    0    0  0.86876012868E+01 -0.37031827055E+01  0.54357880526E+01  0.10896594423E+02  0.00000000000E+00 0. -1.
        -12    1    6    6    0    0 -0.57955884228E+02 -0.13446348100E+03  0.54921750657E+03  0.56840054694E+03  0.00000000000E+00 0.  1.
<mgrwt>
<rscale>  2 0.27658061E+03</rscale>
<asrwt>0</asrwt>
<pdfrwt beam="1">  1       21 0.11854808E+00 0.27939803E+03</pdfrwt>
<pdfrwt beam="2">  1       21 0.30512207E-01 0.27939803E+03</pdfrwt>
<totfact> 0.52913352E+03</totfact>
</mgrwt>
</event>
<event>
12    1  0.1019868E-001  0.2395861E+03  0.7546771E-02  0.1120453E+00
         21   -1    0    0  501  502  0.00000000000E+00  0.00000000000E+00  0.61451116908E+03  0.61451116908E+03  0.00000000000E+00 0.  1.
         21   -1    0    0  502  503 -0.00000000000E+00 -0.00000000000E+00 -0.98469311433E+02  0.98469311433E+02  0.00000000000E+00 0. -1.
         -6    2    1    2    0  503  0.15108004445E+03  0.61672879435E+02  0.34681495431E+03  0.42152356691E+03  0.17542172339E+03 0.  0.
        -24    2    3    3    0    0  0.17921000770E+03  0.67263862201E+02  0.28136477701E+03  0.34991093094E+03  0.81430140815E+02 0.  0.
          6    2    1    2  501    0 -0.15108004445E+03 -0.61672879435E+02  0.16922690334E+03  0.29145691361E+03  0.17228077022E+03 0.  0.
         24    2    5    5    0    0 -0.17435504033E+03 -0.48845950727E+02  0.11032122347E+03  0.22666320516E+03  0.80123836873E+02 0.  0.
          5    1    5    5  501    0  0.23274995883E+02 -0.12826928708E+02  0.58905679865E+02  0.64793708443E+02  0.47000000000E+01 0. -1.
        -13    1    6    6    0    0 -0.88956617774E+02 -0.65364591321E+02  0.52670036324E+02  0.12231084323E+03  0.00000000000E+00 0.  1.
         14    1    6    6    0    0 -0.85398422556E+02  0.16518640594E+02  0.57651187151E+02  0.10435236194E+03  0.00000000000E+00 0. -1.
         -5    1    3    3    0  503 -0.28129963256E+02 -0.55909827660E+01  0.65450177300E+02  0.71612635963E+02  0.47000000000E+01 0.  1.
         13    1    4    4    0    0  0.68581278767E+02  0.56461986700E+02  0.17403236453E+03  0.19539347902E+03  0.00000000000E+00 0. -1.
        -14    1    4    4    0    0  0.11062872894E+03  0.10801875501E+02  0.10733241248E+03  0.15451745192E+03  0.00000000000E+00 0.  1.
<mgrwt>
<rscale>  2 0.23901152E+03</rscale>
<asrwt>0</asrwt>
<pdfrwt beam="1">  1       21 0.94540177E-01 0.23958611E+03</pdfrwt>
<pdfrwt beam="2">  1       21 0.15149125E-01 0.23958611E+03</pdfrwt>
<totfact> 0.35240311E+04</totfact>
</mgrwt>
</event>
<event>
12    1  0.1019868E-001  0.1768094E+03  0.7546771E-02  0.1172302E+00
         21   -1    0    0  503  502  0.00000000000E+00  0.00000000000E+00  0.64553303804E+03  0.64553303804E+03  0.00000000000E+00 0.  1.
         21   -1    0    0  501  503 -0.00000000000E+00 -0.00000000000E+00 -0.82302399518E+02  0.82302399518E+02  0.00000000000E+00 0.  1.
          6    2    1    2  501    0 -0.28451659175E+02  0.34792907078E+02  0.52264512849E+03  0.55174223383E+03  0.17100151745E+03 0.  0.
         24    2    3    3    0    0 -0.21807284004E+01  0.97217685064E+01  0.50492799964E+03  0.51106410153E+03  0.78326002670E+02 0.  0.
         -6    2    1    2    0  502  0.28451659175E+02 -0.34792907078E+02  0.40585510037E+02  0.17609320373E+03  0.16535292402E+03 0.  0.
        -24    2    5    5    0    0 -0.10298706061E+02  0.34757831951E+02  0.25468410049E+02  0.94917389489E+02  0.83943437436E+02 0.  0.
          5    1    3    3  501    0 -0.26270930775E+02  0.25071138571E+02  0.17717128849E+02  0.40678132303E+02  0.47000000000E+01 0. -1.
        -11    1    4    4    0    0  0.16577452799E+01  0.36611874504E+02  0.12757958433E+03  0.13273932278E+03  0.00000000000E+00 0.  1.
         12    1    4    4    0    0 -0.38384736802E+01 -0.26890105997E+02  0.37734841531E+03  0.37832477875E+03  0.00000000000E+00 0. -1.
         -5    1    5    5    0  502  0.38750365236E+02 -0.69550739028E+02  0.15117099988E+02  0.81175814239E+02  0.47000000000E+01 0.  1.
         13    1    6    6    0    0  0.92784793440E+01  0.30457112552E+02  0.52418610242E+02  0.61330551797E+02  0.00000000000E+00 0. -1.
        -14    1    6    6    0    0 -0.19577185405E+02  0.43007193984E+01 -0.26950200193E+02  0.33586837692E+02  0.00000000000E+00 0.  1.
<mgrwt>
<rscale>  2 0.17542906E+03</rscale>
<asrwt>0</asrwt>
<pdfrwt beam="1">  1       21 0.99312772E-01 0.17680940E+03</pdfrwt>
<pdfrwt beam="2">  1       21 0.12661908E-01 0.17680940E+03</pdfrwt>
<totfact> 0.44840710E+04</totfact>
</mgrwt>
</event>
<event>
12    1  0.1019868E-001  0.2075530E+03  0.7546771E-02  0.1145209E+00
         21   -1    0    0  501  502  0.00000000000E+00  0.00000000000E+00  0.55024011812E+03  0.55024011812E+03  0.00000000000E+00 0. -1.
         21   -1    0    0  502  503 -0.00000000000E+00 -0.00000000000E+00 -0.20642472502E+03  0.20642472502E+03  0.00000000000E+00 0.  1.
         -6    2    1    2    0  503  0.39829389618E+02  0.91427292280E+02 -0.13096679897E+03  0.23849849568E+03  0.17258012620E+03 0.  0.
        -24    2    3    3    0    0 -0.46139667590E+02  0.33078254173E+02 -0.53047434354E+02  0.10854155502E+03  0.75790494451E+02 0.  0.
          6    2    1    2  501    0 -0.39829389618E+02 -0.91427292280E+02  0.47478219207E+03  0.51816634745E+03  0.18202445902E+03 0.  0.
         24    2    5    5    0    0 -0.19269950861E+01 -0.63715935278E+02  0.45548034126E+03  0.46718436767E+03  0.82069838552E+02 0.  0.
          5    1    5    5  501    0 -0.37902394532E+02 -0.27711357002E+02  0.19301850801E+02  0.50981979782E+02  0.47000000000E+01 0. -1.
        -13    1    6    6    0    0  0.11033019413E+02 -0.20246068216E+02  0.23835564549E+02  0.33162703945E+02  0.00000000000E+00 0.  1.
         14    1    6    6    0    0 -0.12960014499E+02 -0.43469867061E+02  0.43164477672E+03  0.43402166373E+03  0.00000000000E+00 0. -1.
         -5    1    3    3    0  503  0.85969057208E+02  0.58349038106E+02 -0.77919364618E+02  0.12995694067E+03  0.47000000000E+01 0.  1.
         13    1    4    4    0    0 -0.39882630887E+02  0.60713338359E+01  0.83306412831E+01  0.41193263104E+02  0.00000000000E+00 0. -1.
        -14    1    4    4    0    0 -0.62570367037E+01  0.27006920337E+02 -0.61378075637E+02  0.67348291911E+02  0.00000000000E+00 0.  1.
<mgrwt>
<rscale>  2 0.20546388E+03</rscale>
<asrwt>0</asrwt>
<pdfrwt beam="1">  1       21 0.84652325E-01 0.20755297E+03</pdfrwt>
<pdfrwt beam="2">  1       21 0.31757650E-01 0.20755297E+03</pdfrwt>
<totfact> 0.11415745E+04</totfact>
</mgrwt>
</event>
<event>
12    1  0.1019868E-001  0.1949561E+03  0.7546771E-02  0.1154971E+00
         21   -1    0    0  501  502  0.00000000000E+00  0.00000000000E+00  0.29935209080E+03  0.29935209080E+03  0.00000000000E+00 0. -1.
         21   -1    0    0  502  503 -0.00000000000E+00 -0.00000000000E+00 -0.14628709318E+03  0.14628709318E+03  0.00000000000E+00 0.  1.
         -6    2    1    2    0  503 -0.79196376188E+02 -0.38360770704E+02 -0.10522536508E+02  0.19114213790E+03  0.16935459361E+03 0.  0.
        -24    2    3    3    0    0 -0.66213299346E+02 -0.88716890152E+02 -0.19263928486E+02  0.13820065149E+03  0.80457650486E+02 0.  0.
          6    2    1    2  501    0  0.79196376188E+02  0.38360770704E+02  0.16358753413E+03  0.25449704608E+03  0.17396623354E+03 0.  0.
         24    2    5    5    0    0 -0.19654590716E+00 -0.32207966813E+02  0.73451496631E+02  0.11510630733E+03  0.82564810140E+02 0.  0.
          5    1    5    5  501    0  0.79392922095E+02  0.70568737517E+02  0.90136037498E+02  0.13939073875E+03  0.47000000000E+01 0. -1.
        -13    1    6    6    0    0  0.31306016273E+02 -0.11791584621E+02  0.95469332727E+00  0.33466693325E+02  0.00000000000E+00 0.  1.
         14    1    6    6    0    0 -0.31502562180E+02 -0.20416382191E+02  0.72496803304E+02  0.81639614006E+02  0.00000000000E+00 0. -1.
         -5    1    3    3    0  503 -0.12983076843E+02  0.50356119448E+02  0.87413919784E+01  0.52941486416E+02  0.47000000000E+01 0.  1.
         13    1    4    4    0    0 -0.28269857599E+02 -0.90869491151E+02  0.91812025598E+00  0.95169807268E+02  0.00000000000E+00 0. -1.
        -14    1    4    4    0    0 -0.37943441746E+02  0.21526009985E+01 -0.20182048742E+02  0.43030844217E+02  0.00000000000E+00 0.  1.
<mgrwt>
<rscale>  2 0.19392192E+03</rscale>
<asrwt>0</asrwt>
<pdfrwt beam="1">  1       21 0.46054168E-01 0.19495606E+03</pdfrwt>
<pdfrwt beam="2">  1       21 0.22505707E-01 0.19495606E+03</pdfrwt>
<totfact> 0.83477113E+04</totfact>
</mgrwt>
</event>
<event>
12    1  0.1019868E-001  0.2452210E+03  0.7546771E-02  0.1116923E+00
         21   -1    0    0  503  502  0.00000000000E+00  0.00000000000E+00  0.11473994311E+04  0.11473994311E+04  0.00000000000E+00 0. -1.
         21   -1    0    0  501  503 -0.00000000000E+00 -0.00000000000E+00 -0.51726239812E+02  0.51726239812E+02  0.00000000000E+00 0. -1.
          6    2    1    2  501    0  0.11881279021E+03  0.12544552254E+03  0.56247553444E+03  0.61224145574E+03  0.16913844932E+03 0.  0.
         24    2    3    3    0    0  0.10679151916E+03  0.12222390892E+03  0.56943254029E+03  0.59722880500E+03  0.78010993473E+02 0.  0.
         -6    2    1    2    0  502 -0.11881279021E+03 -0.12544552254E+03  0.53319765689E+03  0.58688421521E+03  0.17401230564E+03 0.  0.
        -24    2    5    5    0    0 -0.14251516462E+03 -0.13597845644E+03  0.41263461203E+03  0.46347318234E+03  0.75758530500E+02 0.  0.
          5    1    3    3  501    0  0.12021271054E+02  0.32216136170E+01 -0.69570058461E+01  0.15012650745E+02  0.47000000000E+01 0. -1.
        -11    1    4    4    0    0  0.57682940732E+02  0.46196638494E+02  0.13943034165E+03  0.15780453489E+03  0.00000000000E+00 0.  1.
         12    1    4    4    0    0  0.49108578424E+02  0.76027270425E+02  0.43000219864E+03  0.43942427011E+03  0.00000000000E+00 0. -1.
         -5    1    5    5    0  502  0.23702374408E+02  0.10532933901E+02  0.12056304485E+03  0.12341103287E+03  0.47000000000E+01 0.  1.
         13    1    6    6    0    0 -0.57807558407E+02 -0.88715669837E+02  0.27841619871E+03  0.29787205910E+03  0.00000000000E+00 0. -1.
        -14    1    6    6    0    0 -0.84707606212E+02 -0.47262786600E+02  0.13421841332E+03  0.16560112325E+03  0.00000000000E+00 0.  1.
<mgrwt>
<rscale>  2 0.24435792E+03</rscale>
<asrwt>0</asrwt>
<pdfrwt beam="1">  1       21 0.17652297E+00 0.24522100E+03</pdfrwt>
<pdfrwt beam="2">  1       21 0.79578839E-02 0.24522100E+03</pdfrwt>
<totfact> 0.22505212E+04</totfact>
</mgrwt>
</event>
<event>
12    1  0.1019868E-001  0.1878081E+03  0.7546771E-02  0.1160679E+00
         21   -1    0    0  501  502  0.00000000000E+00  0.00000000000E+00  0.64891273511E+03  0.64891273511E+03  0.00000000000E+00 0. -1.
         21   -1    0    0  502  503 -0.00000000000E+00 -0.00000000000E+00 -0.66164317378E+02  0.66164317378E+02  0.00000000000E+00 0. -1.
         -6    2    1    2    0  503 -0.58773723847E+02  0.45791918979E+02  0.13789764052E+03  0.23220635656E+03  0.17132653708E+03 0.  0.
        -24    2    3    3    0    0 -0.35220747785E+02  0.80782099959E+02  0.14626428163E+03  0.18894960992E+03  0.80885513303E+02 0.  0.
          6    2    1    2  501    0  0.58773723847E+02 -0.45791918979E+02  0.44485077721E+03  0.48287069593E+03  0.17239676488E+03 0.  0.
         24    2    5    5    0    0  0.98985422376E+02 -0.13508291384E+02  0.36889903147E+03  0.39094697217E+03  0.82294907775E+02 0.  0.
          5    1    5    5  501    0 -0.40211698529E+02 -0.32283627595E+02  0.75951745739E+02  0.91923723761E+02  0.47000000000E+01 0. -1.
        -11    1    6    6    0    0  0.21043063615E+02 -0.40837865651E+02  0.15462275321E+03  0.16130324736E+03  0.00000000000E+00 0.  1.
         12    1    6    6    0    0  0.77942358761E+02  0.27329574268E+02  0.21427627826E+03  0.22964372481E+03  0.00000000000E+00 0. -1.
         -5    1    3    3    0  503 -0.23552976063E+02 -0.34990180980E+02 -0.83666411042E+01  0.43256746639E+02  0.47000000000E+01 0.  1.
         13    1    4    4    0    0  0.14498808677E+02 -0.61292042414E+01  0.65231592515E+01  0.17039196117E+02  0.00000000000E+00 0. -1.
        -14    1    4    4    0    0 -0.49719556462E+02  0.86911304201E+02  0.13974112237E+03  0.17191041381E+03  0.00000000000E+00 0.  1.
<mgrwt>
<rscale>  2 0.18756217E+03</rscale>
<asrwt>0</asrwt>
<pdfrwt beam="1">  1       21 0.99832724E-01 0.18780813E+03</pdfrwt>
<pdfrwt beam="2">  1       21 0.10179126E-01 0.18780813E+03</pdfrwt>
<totfact> 0.64961838E+04</totfact>
</mgrwt>
</event>
<event>
12    1  0.1019868E-001  0.2903365E+03  0.7546771E-02  0.1090214E+00
         21   -1    0    0  503  502  0.00000000000E+00  0.00000000000E+00  0.10330654279E+03  0.10330654279E+03  0.00000000000E+00 0. -1.
         21   -1    0    0  501  503 -0.00000000000E+00 -0.00000000000E+00 -0.81532349354E+03  0.81532349354E+03  0.00000000000E+00 0.  1.
          6    2    1    2  501    0 -0.11331081338E+03  0.20384147367E+03 -0.36374557220E+03  0.46540964480E+03  0.17292949244E+03 0.  0.
         24    2    3    3    0    0 -0.14122914483E+03  0.12189382517E+03 -0.24883636530E+03  0.32146150776E+03  0.81327660187E+02 0.  0.
         -6    2    1    2    0  502  0.11331081338E+03 -0.20384147367E+03 -0.34827137854E+03  0.45322039153E+03  0.17240963829E+03 0.  0.
        -24    2    5    5    0    0  0.12319863281E+03 -0.12833070374E+03 -0.17083832152E+03  0.26007737439E+03  0.82509611084E+02 0.  0.
          5    1    3    3  501    0  0.27918331450E+02  0.81947648497E+02 -0.11490920690E+03  0.14394813703E+03  0.47000000000E+01 0. -1.
        -11    1    4    4    0    0 -0.76571999146E+02  0.73927865364E+02 -0.20199105675E+03  0.22831773330E+03  0.00000000000E+00 0.  1.
         12    1    4    4    0    0 -0.64657145688E+02  0.47965959809E+02 -0.46845308553E+02  0.93143774469E+02  0.00000000000E+00 0. -1.
         -5    1    5    5    0  502 -0.98878194246E+01 -0.75510769925E+02 -0.17743305702E+03  0.19314301714E+03  0.47000000000E+01 0.  1.
         11    1    6    6    0    0  0.37382807198E+02 -0.51663869189E+02 -0.13559291022E+02  0.65195736260E+02  0.00000000000E+00 0. -1.
        -12    1    6    6    0    0  0.85815825610E+02 -0.76666834556E+02 -0.15727903050E+03  0.19488163813E+03  0.00000000000E+00 0.  1.
<mgrwt>
<rscale>  2 0.29025916E+03</rscale>
<asrwt>0</asrwt>
<pdfrwt beam="1">  1       21 0.15893314E-01 0.29033652E+03</pdfrwt>
<pdfrwt beam="2">  1       21 0.12543438E+00 0.29033652E+03</pdfrwt>
<totfact> 0.15802139E+04</totfact>
</mgrwt>
</event>
<event>
12    1  0.1019868E-001  0.1814519E+03  0.7546771E-02  0.1166874E+00
         21   -1    0    0  503  502  0.00000000000E+00  0.00000000000E+00  0.71025639573E+02  0.71025639573E+02  0.00000000000E+00 0.  1.
         21   -1    0    0  501  503 -0.00000000000E+00 -0.00000000000E+00 -0.62267861005E+03  0.62267861005E+03  0.00000000000E+00 0.  1.
          6    2    1    2  501    0  0.57516467123E+01 -0.49053467808E+02 -0.45277613492E+03  0.48706100735E+03  0.17257714909E+03 0.  0.
         24    2    3    3    0    0  0.49390448209E+02  0.19020849565E+01 -0.15998554729E+03  0.18664590860E+03  0.82451716502E+02 0.  0.
         -6    2    1    2    0  502 -0.57516467123E+01  0.49053467808E+02 -0.98876835555E+02  0.20664324227E+03  0.17460090728E+03 0.  0.
        -24    2    5    5    0    0 -0.66095012729E+01 -0.35620091497E+02 -0.81121441651E+02  0.11999630595E+03  0.80659461452E+02 0.  0.
          5    1    3    3  501    0 -0.43638801496E+02 -0.50955552765E+02 -0.29279058763E+03  0.30041509876E+03  0.47000000000E+01 0. -1.
        -13    1    4    4    0    0  0.61363944877E+02 -0.80943884355E+01 -0.62650253492E+02  0.88068763575E+02  0.00000000000E+00 0.  1.
         14    1    4    4    0    0 -0.11973496668E+02  0.99964733920E+01 -0.97335293794E+02  0.98577145022E+02  0.00000000000E+00 0. -1.
         -5    1    5    5    0  502  0.85785456059E+00  0.84673559306E+02 -0.17755393904E+02  0.86646936314E+02  0.47000000000E+01 0.  1.
         11    1    6    6    0    0 -0.18882095145E+01 -0.48535485850E+02 -0.12697780231E+02  0.50204505223E+02  0.00000000000E+00 0. -1.
        -12    1    6    6    0    0 -0.47212917584E+01  0.12915394353E+02 -0.68423661420E+02  0.69791800731E+02  0.00000000000E+00 0.  1.
<mgrwt>
<rscale>  2 0.18096333E+03</rscale>
<asrwt>0</asrwt>
<pdfrwt beam="1">  1       21 0.10927021E-01 0.18145192E+03</pdfrwt>
<pdfrwt beam="2">  1       21 0.95796711E-01 0.18145192E+03</pdfrwt>
<totfact> 0.63324829E+04</totfact>
</mgrwt>
</event>
<event>
12    1  0.1019868E-001  0.2476879E+03  0.7546771E-02  0.1114930E+00
         21   -1    0    0  503  502  0.00000000000E+00  0.00000000000E+00  0.68791142193E+03  0.68791142193E+03  0.00000000000E+00 0. -1.
         21   -1    0    0  501  503 -0.00000000000E+00 -0.00000000000E+00 -0.94287596564E+02  0.94287596564E+02  0.00000000000E+00 0.  1.
          6    2    1    2  501    0 -0.15760870071E+03  0.82854140727E+02  0.20220849289E+03  0.31899790247E+03  0.17078078350E+03 0.  0.
         24    2    3    3    0    0 -0.11598601121E+03  0.12194533994E+03  0.18035474445E+03  0.25767705400E+03  0.74472878163E+02 0.  0.
         -6    2    1    2    0  502  0.15760870071E+03 -0.82854140727E+02  0.39141533248E+03  0.46320111602E+03  0.17217433086E+03 0.  0.
        -24    2    5    5    0    0  0.11944057393E+03 -0.13378364522E+02  0.14694735897E+03  0.20615954457E+03  0.80394030694E+02 0.  0.
          5    1    3    3  501    0 -0.41622689495E+02 -0.39091199214E+02  0.21853748433E+02  0.61320848472E+02  0.47000000000E+01 0. -1.
        -11    1    4    4    0    0 -0.11490143169E+03  0.12085254296E+03  0.14124110434E+03  0.21853312266E+03  0.00000000000E+00 0.  1.
         12    1    4    4    0    0 -0.10845795243E+01  0.10927969777E+01  0.39113640111E+02  0.39143931340E+02  0.00000000000E+00 0. -1.
         -5    1    5    5    0  502  0.38168126775E+02 -0.69475776206E+02  0.24446797351E+03  0.25704157145E+03  0.47000000000E+01 0.  1.
         13    1    6    6    0    0  0.43227850607E+02  0.23723678245E+02  0.19344195941E+02  0.52968461315E+02  0.00000000000E+00 0. -1.
        -14    1    6    6    0    0  0.76212723326E+02 -0.37102042767E+02  0.12760316303E+03  0.15319108326E+03  0.00000000000E+00 0.  1.
<mgrwt>
<rscale>  2 0.24744591E+03</rscale>
<asrwt>0</asrwt>
<pdfrwt beam="1">  1       21 0.10583252E+00 0.24768793E+03</pdfrwt>
<pdfrwt beam="2">  1       21 0.14505785E-01 0.24768793E+03</pdfrwt>
<totfact> 0.29026905E+04</totfact>
</mgrwt>
</event>
<event>
12    1  0.1019868E-001  0.2112206E+03  0.7546771E-02  0.1140850E+00
         21   -1    0    0  501  502  0.00000000000E+00  0.00000000000E+00  0.46704783908E+03  0.46704783908E+03  0.00000000000E+00 0.  1.
         21   -1    0    0  502  503 -0.00000000000E+00 -0.00000000000E+00 -0.95473065516E+02  0.95473065516E+02  0.00000000000E+00 0. -1.
         -6    2    1    2    0  503  0.37479319270E+02  0.11589735856E+03  0.16569118147E+03  0.26845429791E+03  0.17256084537E+03 0.  0.
        -24    2    3    3    0    0  0.21335651979E+02  0.14703690519E+03  0.11157957137E+03  0.20379793159E+03  0.83716991337E+02 0.  0.
          6    2    1    2  501    0 -0.37479319270E+02 -0.11589735856E+03  0.20588359209E+03  0.29406660669E+03  0.17102695279E+03 0.  0.
         24    2    5    5    0    0 -0.76592694637E+02 -0.29416178093E+02  0.13539305275E+03  0.17574561597E+03  0.76311797208E+02 0.  0.
          5    1    5    5  501    0  0.39113375367E+02 -0.86481180469E+02  0.70490539345E+02  0.11832099072E+03  0.47000000000E+01 0. -1.
        -11    1    6    6    0    0  0.12886415482E+02 -0.46993139944E+00  0.38996000610E+02  0.41072723346E+02  0.00000000000E+00 0.  1.
         12    1    6    6    0    0 -0.89479110120E+02 -0.28946246693E+02  0.96397052139E+02  0.13467289262E+03  0.00000000000E+00 0. -1.
         -5    1    3    3    0  503  0.16143667290E+02 -0.31139546633E+02  0.54111610106E+02  0.64656366325E+02  0.47000000000E+01 0.  1.
         13    1    4    4    0    0  0.27383907977E+02  0.69747959099E+01  0.76261612950E+01  0.29269173718E+02  0.00000000000E+00 0. -1.
        -14    1    4    4    0    0 -0.60482559973E+01  0.14006210928E+03  0.10395341007E+03  0.17452875787E+03  0.00000000000E+00 0.  1.
<mgrwt>
<rscale>  2 0.21090708E+03</rscale>
<asrwt>0</asrwt>
<pdfrwt beam="1">  1       21 0.71853512E-01 0.21122060E+03</pdfrwt>
<pdfrwt beam="2">  1       21 0.14688164E-01 0.21122060E+03</pdfrwt>
<totfact> 0.70687658E+04</totfact>
</mgrwt>
</event>
<event>
12    1  0.1019868E-001  0.1999101E+03  0.7546771E-02  0.1150028E+00
         21   -1    0    0  503  502  0.00000000000E+00  0.00000000000E+00  0.20479450041E+03  0.20479450041E+03  0.00000000000E+00 0.  1.
         21   -1    0    0  501  503 -0.00000000000E+00 -0.00000000000E+00 -0.24094679764E+03  0.24094679764E+03  0.00000000000E+00 0.  1.
          6    2    1    2  501    0  0.26518099121E+02 -0.95164591882E+02 -0.11624997159E+03  0.23038188936E+03  0.17263328162E+03 0.  0.
         24    2    3    3    0    0  0.62129513557E+02 -0.10998678926E+03 -0.58142048626E+02  0.16047844822E+03  0.80097841780E+02 0.  0.
         -6    2    1    2    0  502 -0.26518099121E+02  0.95164591882E+02  0.80097674357E+02  0.21535940869E+03  0.17379450033E+03 0.  0.
        -24    2    5    5    0    0  0.46932675420E+02  0.73043497781E+02  0.26099740698E+02  0.12143270362E+03  0.80787848433E+02 0.  0.
          5    1    3    3  501    0 -0.35611414436E+02  0.14822197377E+02 -0.58107922960E+02  0.69903441145E+02  0.47000000000E+01 0. -1.
        -13    1    4    4    0    0  0.60257769929E+02 -0.69576044111E+02 -0.30036666909E+01  0.92091512989E+02  0.00000000000E+00 0.  1.
         14    1    4    4    0    0  0.18717436272E+01 -0.40410745148E+02 -0.55138381936E+02  0.68386935230E+02  0.00000000000E+00 0. -1.
         -5    1    5    5    0  502 -0.73450774541E+02  0.22121094102E+02  0.53997933659E+02  0.93926705065E+02  0.47000000000E+01 0.  1.
         11    1    6    6    0    0  0.14220413641E+02  0.96869453619E+01  0.44570121479E+02  0.47776069358E+02  0.00000000000E+00 0. -1.
        -12    1    6    6    0    0  0.32712261778E+02  0.63356552419E+02 -0.18470380781E+02  0.73656634265E+02  0.00000000000E+00 0.  1.
<mgrwt>
<rscale>  2 0.19965742E+03</rscale>
<asrwt>0</asrwt>
<pdfrwt beam="1">  1       21 0.31506846E-01 0.19991007E+03</pdfrwt>
<pdfrwt beam="2">  1       21 0.37068738E-01 0.19991007E+03</pdfrwt>
<totfact> 0.67740324E+04</totfact>
</mgrwt>
</event>
<event>
12    1  0.1019868E-001  0.2027271E+03  0.7546771E-02  0.1147477E+00
         21   -1    0    0  501  502  0.00000000000E+00  0.00000000000E+00  0.48231051278E+02  0.48231051278E+02  0.00000000000E+00 0.  1.
         21   -1    0    0  502  503 -0.00000000000E+00 -0.00000000000E+00 -0.89027070801E+03  0.89027070801E+03  0.00000000000E+00 0. -1.
         -6    2    1    2    0  503  0.10484759981E+03  0.34620014880E+01 -0.32331609331E+03  0.38157052716E+03  0.17337175767E+03 0.  0.
        -24    2    3    3    0    0  0.49288130112E+02  0.54272980317E+02 -0.26552593089E+03  0.28654209396E+03  0.78914355308E+02 0.  0.
          6    2    1    2  501    0 -0.10484759981E+03 -0.34620014880E+01 -0.51872356342E+03  0.55693123214E+03  0.17347408289E+03 0.  0.
         24    2    5    5    0    0 -0.10341404388E+03 -0.42940300416E+02 -0.24296510359E+03  0.27831786322E+03  0.76749316302E+02 0.  0.
          5    1    5    5  501    0 -0.14335559333E+01  0.39478298928E+02 -0.27575845984E+03  0.27861336892E+03  0.47000000000E+01 0. -1.
        -13    1    6    6    0    0 -0.93452798994E+02 -0.24159927218E+02 -0.23750338953E+03  0.25636885099E+03  0.00000000000E+00 0.  1.
         14    1    6    6    0    0 -0.99612448851E+01 -0.18780373198E+02 -0.54617140620E+01  0.21949012224E+02  0.00000000000E+00 0. -1.
         -5    1    3    3    0  503  0.55559469701E+02 -0.50810978829E+02 -0.57790162425E+02  0.95028433198E+02  0.47000000000E+01 0.  1.
         13    1    4    4    0    0  0.44907060695E+02  0.24275786960E+02 -0.24419592073E+03  0.24947465930E+03  0.00000000000E+00 0. -1.
        -14    1    4    4    0    0  0.43810694165E+01  0.29997193358E+02 -0.21330010155E+02  0.37067434653E+02  0.00000000000E+00 0.  1.
<mgrwt>
<rscale>  2 0.20270517E+03</rscale>
<asrwt>0</asrwt>
<pdfrwt beam="1">  1       21 0.74201622E-02 0.20272706E+03</pdfrwt>
<pdfrwt beam="2">  1       21 0.13696472E+00 0.20272706E+03</pdfrwt>
<totfact> 0.51493819E+04</totfact>
</mgrwt>
</event>
<event>
12    1  0.1019868E-001  0.1922635E+03  0.7546771E-02  0.1156606E+00
         21   -1    0    0  503  502  0.00000000000E+00  0.00000000000E+00  0.48297664250E+03  0.48297664250E+03  0.00000000000E+00 0.  1.
         21   -1    0    0  501  503 -0.00000000000E+00 -0.00000000000E+00 -0.81649080516E+02  0.81649080516E+02  0.00000000000E+00 0.  1.
          6    2    1    2  501    0 -0.86978084123E+02 -0.50579696617E+01  0.12757153610E+03  0.23009975007E+03  0.17053043126E+03 0.  0.
         24    2    3    3    0    0 -0.31959792717E+01  0.29717392174E+02  0.17679248038E+02  0.87526358938E+02  0.80342828035E+02 0.  0.
         -6    2    1    2    0  502  0.86978084123E+02  0.50579696617E+01  0.27375602589E+03  0.33452597294E+03  0.17138989087E+03 0.  0.
        -24    2    5    5    0    0  0.77356496343E+02 -0.25735287600E+02  0.27918146547E+03  0.30147563196E+03  0.79365820418E+02 0.  0.
          5    1    3    3  501    0 -0.83782104851E+02 -0.34775361836E+02  0.10989228806E+03  0.14257339113E+03  0.47000000000E+01 0. -1.
        -13    1    4    4    0    0 -0.39048193987E+02  0.93590797144E+01  0.22480224269E+02  0.46018630032E+02  0.00000000000E+00 0.  1.
         14    1    4    4    0    0  0.35852214716E+02  0.20358312460E+02 -0.48009762310E+01  0.41507728907E+02  0.00000000000E+00 0. -1.
         -5    1    5    5    0  502  0.96215877799E+01  0.30793257261E+02 -0.54254395874E+01  0.33050340980E+02  0.47000000000E+01 0.  1.
         11    1    6    6    0    0 -0.92429665708E+01  0.12644467509E+02  0.71754499924E+02  0.73444014385E+02  0.00000000000E+00 0. -1.
        -12    1    6    6    0    0  0.86599462914E+02 -0.38379755109E+02  0.20742696555E+03  0.22803161758E+03  0.00000000000E+00 0.  1.
<mgrwt>
<rscale>  2 0.19207180E+03</rscale>
<asrwt>0</asrwt>
<pdfrwt beam="1">  1       21 0.74304097E-01 0.19226353E+03</pdfrwt>
<pdfrwt beam="2">  1       21 0.12561397E-01 0.19226353E+03</pdfrwt>
<totfact> 0.87785008E+04</totfact>
</mgrwt>
</event>
<event>
12    1  0.1019868E-001  0.1899785E+03  0.7546771E-02  0.1159038E+00
         21   -1    0    0  503  502  0.00000000000E+00  0.00000000000E+00  0.36307702906E+02  0.36307702906E+02  0.00000000000E+00 0.  1.
         21   -1    0    0  501  503 -0.00000000000E+00 -0.00000000000E+00 -0.12048573047E+04  0.12048573047E+04  0.00000000000E+00 0.  1.
          6    2    1    2  501    0 -0.72817717576E+02  0.23722414041E+02 -0.84851630456E+03  0.86899149251E+03  0.17117570516E+03 0.  0.
         24    2    3    3    0    0 -0.99348830387E+02 -0.14812061924E+02 -0.45590264187E+03  0.47357224169E+03  0.79585563803E+02 0.  0.
         -6    2    1    2    0  502  0.72817717576E+02 -0.23722414041E+02 -0.32003329720E+03  0.37217351506E+03  0.17385810614E+03 0.  0.
        -24    2    5    5    0    0 -0.14659075637E+02 -0.31514425374E+02 -0.22946889772E+03  0.24593205893E+03  0.81354502544E+02 0.  0.
          5    1    3    3  501    0  0.26531112811E+02  0.38534475965E+02 -0.39261366269E+03  0.39541925082E+03  0.47000000000E+01 0. -1.
        -13    1    4    4    0    0 -0.82406784026E+02 -0.39782582166E+02 -0.39676830663E+03  0.40718376815E+03  0.00000000000E+00 0.  1.
         14    1    4    4    0    0 -0.16942046361E+02  0.24970520242E+02 -0.59134335234E+02  0.66388473545E+02  0.00000000000E+00 0. -1.
         -5    1    5    5    0  502  0.87476793213E+02  0.77920113329E+01 -0.90564399481E+02  0.12624145613E+03  0.47000000000E+01 0.  1.
         11    1    6    6    0    0 -0.44104915569E+02 -0.92918306445E+01 -0.78485639339E+02  0.90507332723E+02  0.00000000000E+00 0. -1.
        -12    1    6    6    0    0  0.29445839932E+02 -0.22222594730E+02 -0.15098325838E+03  0.15542472621E+03  0.00000000000E+00 0.  1.
<mgrwt>
<rscale>  2 0.18936255E+03</rscale>
<asrwt>0</asrwt>
<pdfrwt beam="1">  1       21 0.55858012E-02 0.18997846E+03</pdfrwt>
<pdfrwt beam="2">  1       21 0.18536264E+00 0.18997846E+03</pdfrwt>
<totfact> 0.37368453E+04</totfact>
</mgrwt>
</event>
<event>
12    1  0.1019868E-001  0.2061662E+03  0.7546771E-02  0.1145826E+00
         21   -1    0    0  501  502  0.00000000000E+00  0.00000000000E+00  0.92370127692E+03  0.92370127692E+03  0.00000000000E+00 0.  1.
         21   -1    0    0  502  503 -0.00000000000E+00 -0.00000000000E+00 -0.45502510913E+02  0.45502510913E+02  0.00000000000E+00 0.  1.
         -6    2    1    2    0  503 -0.10182715710E+03  0.55450634324E+02  0.38238222198E+03  0.43441992067E+03  0.17047275741E+03 0.  0.
        -24    2    3    3    0    0 -0.91052777222E+02  0.16532168182E+02  0.37304253245E+03  0.39270596534E+03  0.80581160164E+02 0.  0.
          6    2    1    2  501    0  0.10182715710E+03 -0.55450634324E+02  0.49581654403E+03  0.53478386716E+03  0.16345089928E+03 0.  0.
         24    2    5    5    0    0  0.38174098218E+02 -0.36456342566E+02  0.12734954152E+03  0.16034760161E+03  0.81897014161E+02 0.  0.
          5    1    5    5  501    0  0.63653058885E+02 -0.18994291759E+02  0.36846700251E+03  0.37443626555E+03  0.47000000000E+01 0. -1.
        -11    1    6    6    0    0  0.18583167709E+02 -0.99478990978E+01  0.12558141685E+03  0.12733808180E+03  0.00000000000E+00 0.  1.
         12    1    6    6    0    0  0.19590930509E+02 -0.26508443468E+02  0.17681246731E+01  0.33009519811E+02  0.00000000000E+00 0. -1.
         -5    1    3    3    0  503 -0.10774379881E+02  0.38918466142E+02  0.93396895280E+01  0.41713955329E+02  0.47000000000E+01 0.  1.
         13    1    4    4    0    0 -0.61679902310E+02  0.44308948968E+02  0.17811033433E+03  0.19362588800E+03  0.00000000000E+00 0. -1.
        -14    1    4    4    0    0 -0.29372874912E+02 -0.27776780786E+02  0.19493219812E+03  0.19908007734E+03  0.00000000000E+00 0.  1.
<mgrwt>
<rscale>  2 0.20470901E+03</rscale>
<asrwt>0</asrwt>
<pdfrwt beam="1">  1       21 0.14210787E+00 0.20616620E+03</pdfrwt>
<pdfrwt beam="2">  1       21 0.70003870E-02 0.20616620E+03</pdfrwt>
<totfact> 0.51681219E+04</totfact>
</mgrwt>
</event>
<event>
12    1  0.1019868E-001  0.1884728E+03  0.7546771E-02  0.1159902E+00
         21   -1    0    0  503  502  0.00000000000E+00  0.00000000000E+00  0.27429485935E+03  0.27429485935E+03  0.00000000000E+00 0. -1.
         21   -1    0    0  501  503 -0.00000000000E+00 -0.00000000000E+00 -0.24939352873E+03  0.24939352873E+03  0.00000000000E+00 0. -1.
          6    2    1    2  501    0 -0.64039980558E+02 -0.44769590536E+02 -0.16922091118E+03  0.25329375165E+03  0.17151260158E+03 0.  0.
         24    2    3    3    0    0 -0.38534608172E+02  0.26934597924E+02 -0.36022244684E+02  0.99814145780E+02  0.80342224225E+02 0.  0.
         -6    2    1    2    0  502  0.64039980558E+02  0.44769590536E+02  0.19412224180E+03  0.27039463642E+03  0.17124362557E+03 0.  0.
        -24    2    5    5    0    0  0.10405243239E+02  0.10959694247E+02  0.19115376957E+03  0.20674955836E+03  0.77312562217E+02 0.  0.
          5    1    3    3  501    0 -0.25505372385E+02 -0.71704188461E+02 -0.13319866649E+03  0.15347960587E+03  0.47000000000E+01 0. -1.
        -13    1    4    4    0    0  0.60419786425E+01  0.31199556520E+02 -0.44053305275E+02  0.54319531834E+02  0.00000000000E+00 0.  1.
         14    1    4    4    0    0 -0.44576586815E+02 -0.42649585959E+01  0.80310605911E+01  0.45494613946E+02  0.00000000000E+00 0. -1.
         -5    1    5    5    0  502  0.53634737319E+02  0.33809896289E+02  0.29684722278E+01  0.63645078064E+02  0.47000000000E+01 0.  1.
         13    1    6    6    0    0  0.38082047481E+02  0.17646310823E+02  0.15580624959E+03  0.16136053432E+03  0.00000000000E+00 0. -1.
        -14    1    6    6    0    0 -0.27676804242E+02 -0.66866165758E+01  0.35347519983E+02  0.45389024039E+02  0.00000000000E+00 0.  1.
<mgrwt>
<rscale>  2 0.18841162E+03</rscale>
<asrwt>0</asrwt>
<pdfrwt beam="1">  1       21 0.42199209E-01 0.18847283E+03</pdfrwt>
<pdfrwt beam="2">  1       21 0.38368235E-01 0.18847283E+03</pdfrwt>
<totfact> 0.35475471E+04</totfact>
</mgrwt>
</event>
<event>
12    1  0.1019868E-001  0.1870042E+03  0.7546771E-02  0.1162615E+00
         21   -1    0    0  503  502  0.00000000000E+00  0.00000000000E+00  0.22952063419E+03  0.22952063419E+03  0.00000000000E+00 0. -1.
         21   -1    0    0  501  503 -0.00000000000E+00 -0.00000000000E+00 -0.22931512093E+03  0.22931512093E+03  0.00000000000E+00 0. -1.
          6    2    1    2  501    0 -0.58607699522E+01  0.42667601471E+02 -0.13695796761E+03  0.23179310345E+03  0.18197715537E+03 0.  0.
         24    2    3    3    0    0 -0.57237283579E+01  0.66956541134E+01  0.70487274042E+01  0.83287150757E+02  0.82519525404E+02 0.  0.
         -6    2    1    2    0  502  0.58607699522E+01 -0.42667601471E+02  0.13716348087E+03  0.22704265166E+03  0.17572612881E+03 0.  0.
        -24    2    5    5    0    0 -0.11234211934E+02 -0.30564739699E+01  0.15778197917E+03  0.17899587966E+03  0.83718710162E+02 0.  0.
          5    1    3    3  501    0 -0.13704159426E+00  0.35971947357E+02 -0.14400669502E+03  0.14850595270E+03  0.47000000000E+01 0. -1.
        -11    1    4    4    0    0  0.22455118747E+02  0.24120109376E+02 -0.21670484477E+02  0.39441373350E+02  0.00000000000E+00 0.  1.
         12    1    4    4    0    0 -0.28178847105E+02 -0.17424455262E+02  0.28719211881E+02  0.43845777407E+02  0.00000000000E+00 0. -1.
         -5    1    5    5    0  502  0.17094981886E+02 -0.39611127501E+02 -0.20618498303E+02  0.48046772002E+02  0.47000000000E+01 0.  1.
         11    1    6    6    0    0  0.36162786871E+02  0.47327873872E+01  0.66153267833E+02  0.75540725942E+02  0.00000000000E+00 0. -1.
        -12    1    6    6    0    0 -0.47396998806E+02 -0.77892613572E+01  0.91628711341E+02  0.10345515372E+03  0.00000000000E+00 0.  1.
<mgrwt>
<rscale>  2 0.18546598E+03</rscale>
<asrwt>0</asrwt>
<pdfrwt beam="1">  1       21 0.35310867E-01 0.18700417E+03</pdfrwt>
<pdfrwt beam="2">  1       21 0.35279249E-01 0.18700417E+03</pdfrwt>
<totfact> 0.60046487E+04</totfact>
</mgrwt>
</event>
<event>
12    1  0.1019868E-001  0.2201466E+03  0.7546771E-02  0.1134039E+00
         21   -1    0    0  501  502  0.00000000000E+00  0.00000000000E+00  0.52661416375E+02  0.52661416375E+02  0.00000000000E+00 0. -1.
         21   -1    0    0  502  503 -0.00000000000E+00 -0.00000000000E+00 -0.14353048641E+04  0.14353048641E+04  0.00000000000E+00 0. -1.
         -6    2    1    2    0  503  0.40650209705E+02  0.12850433995E+03 -0.11381025899E+04  0.11589301648E+04  0.17226670294E+03 0.  0.
        -24    2    3    3    0    0  0.48273413781E+02  0.12732599934E+02 -0.37591751704E+03  0.38795066816E+03  0.81849250052E+02 0.  0.
          6    2    1    2  501    0 -0.40650209705E+02 -0.12850433995E+03 -0.24454085784E+03  0.32903611563E+03  0.17406530183E+03 0.  0.
         24    2    5    5    0    0  0.43225365478E+01 -0.52974181721E+02 -0.21584736879E+03  0.23644692068E+03  0.80573639813E+02 0.  0.
          5    1    5    5  501    0 -0.44972746253E+02 -0.75530158232E+02 -0.28693489046E+02  0.92589194951E+02  0.47000000000E+01 0. -1.
        -13    1    6    6    0    0 -0.12614424436E+02 -0.61318698649E+02 -0.20569285104E+03  0.21500850094E+03  0.00000000000E+00 0.  1.
         14    1    6    6    0    0  0.16936960984E+02  0.83445169284E+01 -0.10154517756E+02  0.21438419741E+02  0.00000000000E+00 0. -1.
         -5    1    3    3    0  503 -0.76232040752E+01  0.11577174002E+03 -0.76218507283E+03  0.77097949666E+03  0.47000000000E+01 0.  1.
         11    1    4    4    0    0  0.91210837325E+01 -0.14474512538E+02 -0.28298506940E+03  0.28350177281E+03  0.00000000000E+00 0. -1.
        -12    1    4    4    0    0  0.39152330048E+02  0.27207112472E+02 -0.92932447636E+02  0.10444889535E+03  0.00000000000E+00 0.  1.
<mgrwt>
<rscale>  2 0.21979092E+03</rscale>
<asrwt>0</asrwt>
<pdfrwt beam="1">  1       21 0.81017577E-02 0.22014662E+03</pdfrwt>
<pdfrwt beam="2">  1       21 0.22081610E+00 0.22014662E+03</pdfrwt>
<totfact> 0.11408919E+04</totfact>
</mgrwt>
</event>
<event>
12    1  0.1019868E-001  0.1881391E+03  0.7546771E-02  0.1160314E+00
         21   -1    0    0  503  502  0.00000000000E+00  0.00000000000E+00  0.14619591455E+03  0.14619591455E+03  0.00000000000E+00 0. -1.
         21   -1    0    0  501  503 -0.00000000000E+00 -0.00000000000E+00 -0.28150167265E+03  0.28150167265E+03  0.00000000000E+00 0.  1.
          6    2    1    2  501    0  0.64512056905E+02  0.33368703401E+02  0.13153888108E+02  0.18859839302E+03  0.17355417951E+03 0.  0.
         24    2    3    3    0    0  0.10926074026E+03  0.21388951805E+02 -0.81648199448E+01  0.13738768688E+03  0.80083179249E+02 0.  0.
         -6    2    1    2    0  502 -0.64512056905E+02 -0.33368703401E+02 -0.14845964620E+03  0.23909919418E+03  0.17277986646E+03 0.  0.
        -24    2    5    5    0    0 -0.49209969599E+02  0.19544911147E+02 -0.18988108878E+02  0.98319318282E+02  0.80638175878E+02 0.  0.
          5    1    3    3  501    0 -0.44748683358E+02  0.11979751595E+02  0.21318708053E+02  0.51210706143E+02  0.47000000000E+01 0. -1.
        -11    1    4    4    0    0  0.22790185329E+02  0.16637996974E+02 -0.36621216636E+02  0.46231255645E+02  0.00000000000E+00 0.  1.
         12    1    4    4    0    0  0.86470554935E+02  0.47509548318E+01  0.28456396691E+02  0.91156431233E+02  0.00000000000E+00 0. -1.
         -5    1    5    5    0  502 -0.15302087307E+02 -0.52913614548E+02 -0.12947153732E+03  0.14077987590E+03  0.47000000000E+01 0.  1.
         13    1    6    6    0    0  0.21584277222E+02 -0.31696174868E-01 -0.11582929618E+02  0.24495842226E+02  0.00000000000E+00 0. -1.
        -14    1    6    6    0    0 -0.70794246820E+02  0.19576607322E+02 -0.74051792595E+01  0.73823476056E+02  0.00000000000E+00 0.  1.
<mgrwt>
<rscale>  2 0.18796035E+03</rscale>
<asrwt>0</asrwt>
<pdfrwt beam="1">  1       21 0.22491679E-01 0.18813912E+03</pdfrwt>
<pdfrwt beam="2">  1       21 0.43307950E-01 0.18813912E+03</pdfrwt>
<totfact> 0.95063588E+04</totfact>
</mgrwt>
</event>
<event>
12    1  0.1019868E-001  0.1905101E+03  0.7546771E-02  0.1158379E+00
         21   -1    0    0  501  502  0.00000000000E+00  0.00000000000E+00  0.27021912852E+04  0.27021912852E+04  0.00000000000E+00 0. -1.
         21   -1    0    0  502  503 -0.00000000000E+00 -0.00000000000E+00 -0.21319838771E+02  0.21319838771E+02  0.00000000000E+00 0.  1.
         -6    2    1    2    0  503  0.76506912747E+02 -0.25237085420E+02  0.50965298034E+03  0.54409581841E+03  0.17263800586E+03 0.  0.
        -24    2    3    3    0    0  0.84139385874E+01  0.44849460788E+02  0.22849267014E+03  0.24640136579E+03  0.80140278650E+02 0.  0.
          6    2    1    2  501    0 -0.76506912747E+02  0.25237085420E+02  0.21712184660E+04  0.21794153055E+04  0.17079586770E+03 0.  0.
         24    2    5    5    0    0  0.60358815540E+01  0.31028872508E+02  0.30902446609E+03  0.31537790214E+03  0.54478231637E+02 0.  0.
          5    1    5    5  501    0 -0.82542794301E+02 -0.57917870883E+01  0.18621940000E+04  0.18640374034E+04  0.47000000000E+01 0. -1.
        -11    1    6    6    0    0  0.11222884132E+02  0.38987545089E+02  0.29831946193E+03  0.30106557951E+03  0.00000000000E+00 0.  1.
         12    1    6    6    0    0 -0.51870025784E+01 -0.79586725808E+01  0.10705004155E+02  0.14312322626E+02  0.00000000000E+00 0. -1.
         -5    1    3    3    0  503  0.68092974159E+02 -0.70086546208E+02  0.28116031020E+03  0.29769445262E+03  0.47000000000E+01 0.  1.
         11    1    4    4    0    0 -0.33727337623E+02  0.84690347613E+01  0.11228005177E+03  0.11754177078E+03  0.00000000000E+00 0. -1.
        -12    1    4    4    0    0  0.42141276210E+02  0.36380426027E+02  0.11621261837E+03  0.12885959501E+03  0.00000000000E+00 0.  1.
<mgrwt>
<rscale>  2 0.19009180E+03</rscale>
<asrwt>0</asrwt>
<pdfrwt beam="1">  1       21 0.41572147E+00 0.19051010E+03</pdfrwt>
<pdfrwt beam="2">  1       21 0.32799773E-02 0.19051010E+03</pdfrwt>
<totfact> 0.37989834E+03</totfact>
</mgrwt>
</event>
<event>
12    1  0.1019868E-001  0.1742644E+03  0.7546771E-02  0.1173762E+00
         21   -1    0    0  501  502  0.00000000000E+00  0.00000000000E+00  0.54882270445E+02  0.54882270445E+02  0.00000000000E+00 0. -1.
         21   -1    0    0  502  503 -0.00000000000E+00 -0.00000000000E+00 -0.83153606729E+03  0.83153606729E+03  0.00000000000E+00 0. -1.
         -6    2    1    2    0  503  0.14825850113E+02 -0.12161057783E+02 -0.64720052257E+03  0.67025115460E+03  0.17320622586E+03 0.  0.
        -24    2    3    3    0    0  0.75716780462E+02 -0.83962330540E+01 -0.37243109327E+03  0.38875122817E+03  0.81357670803E+02 0.  0.
          6    2    1    2  501    0 -0.14825850113E+02  0.12161057783E+02 -0.12945327428E+03  0.21616718314E+03  0.17205349077E+03 0.  0.
         24    2    5    5    0    0 -0.69196292270E+02  0.29662165113E+02 -0.11162584576E+03  0.15614767843E+03  0.79080953032E+02 0.  0.
          5    1    5    5  501    0  0.54370442157E+02 -0.17501107329E+02 -0.17827428519E+02  0.60019504710E+02  0.47000000000E+01 0. -1.
        -11    1    6    6    0    0 -0.52283286688E+02  0.31581698806E+01 -0.11313408944E+03  0.12467092001E+03  0.00000000000E+00 0.  1.
         12    1    6    6    0    0 -0.16913005582E+02  0.26503995232E+02  0.15082436775E+01  0.31476758411E+02  0.00000000000E+00 0. -1.
         -5    1    3    3    0  503 -0.60890930349E+02 -0.37648247290E+01 -0.27476942930E+03  0.28149992643E+03  0.47000000000E+01 0.  1.
         13    1    4    4    0    0  0.74745084295E+02  0.23656548420E+02 -0.28644522368E+03  0.29698034629E+03  0.00000000000E+00 0. -1.
        -14    1    4    4    0    0  0.97169616760E+00 -0.32052781474E+02 -0.85985869586E+02  0.91770881886E+02  0.00000000000E+00 0.  1.
<mgrwt>
<rscale>  2 0.17397731E+03</rscale>
<asrwt>0</asrwt>
<pdfrwt beam="1">  1       21 0.84434259E-02 0.17426444E+03</pdfrwt>
<pdfrwt beam="2">  1       21 0.12792863E+00 0.17426444E+03</pdfrwt>
<totfact> 0.49651882E+04</totfact>
</mgrwt>
</event>
<event>
12    1  0.1019868E-001  0.2601990E+03  0.7546771E-02  0.1108859E+00
         21   -1    0    0  503  502  0.00000000000E+00  0.00000000000E+00  0.18378545023E+04  0.18378545023E+04  0.00000000000E+00 0. -1.
         21   -1    0    0  501  503 -0.00000000000E+00 -0.00000000000E+00 -0.65000061163E+02  0.65000061163E+02  0.00000000000E+00 0. -1.
          6    2    1    2  501    0  0.36813387364E+02 -0.18964131223E+03  0.25322768548E+03  0.36308097063E+03  0.17431143895E+03 0.  0.
         24    2    3    3    0    0 -0.87005991075E+01 -0.20423238266E+02  0.11146526696E+03  0.13763706891E+03  0.77631487892E+02 0.  0.
         -6    2    1    2    0  502 -0.36813387364E+02  0.18964131223E+03  0.15196267557E+04  0.15397735929E+04  0.15594289943E+03 0.  0.
        -24    2    5    5    0    0  0.18287494333E+02  0.80916724245E+02  0.96490007288E+03  0.97179390501E+03  0.80431924362E+02 0.  0.
          5    1    3    3  501    0  0.45513986472E+02 -0.16921807396E+03  0.14176241852E+03  0.22544390172E+03  0.47000000000E+01 0. -1.
        -13    1    4    4    0    0  0.19167153632E+01  0.39819773524E+01 -0.11240552953E+02  0.12078078162E+02  0.00000000000E+00 0.  1.
         14    1    4    4    0    0 -0.10617314471E+02 -0.24405215619E+02  0.12270581991E+03  0.12555899074E+03  0.00000000000E+00 0. -1.
         -5    1    5    5    0  502 -0.55100881697E+02  0.10872458798E+03  0.55472668282E+03  0.56797968786E+03  0.47000000000E+01 0.  1.
         13    1    6    6    0    0  0.27969381453E+02  0.93664297110E+02  0.75827724457E+03  0.76455193839E+03  0.00000000000E+00 0. -1.
        -14    1    6    6    0    0 -0.96818871199E+01 -0.12747572866E+02  0.20662282831E+03  0.20724196662E+03  0.00000000000E+00 0.  1.
<mgrwt>
<rscale>  2 0.25716369E+03</rscale>
<asrwt>0</asrwt>
<pdfrwt beam="1">  1       21 0.28274681E+00 0.26019902E+03</pdfrwt>
<pdfrwt beam="2">  1       21 0.10000011E-01 0.26019902E+03</pdfrwt>
<totfact> 0.32526613E+03</totfact>
</mgrwt>
</event>
<event>
12    1  0.1019868E-001  0.3164529E+03  0.7546771E-02  0.1077516E+00
         21   -1    0    0  501  502  0.00000000000E+00  0.00000000000E+00  0.42329982551E+03  0.42329982551E+03  0.00000000000E+00 0. -1.
         21   -1    0    0  502  503 -0.00000000000E+00 -0.00000000000E+00 -0.26773944585E+03  0.26773944585E+03  0.00000000000E+00 0. -1.
         -6    2    1    2    0  503  0.26764774684E+03 -0.21775865804E+02 -0.42544682755E+02  0.31929998925E+03  0.16743036876E+03 0.  0.
        -24    2    3    3    0    0  0.15164757667E+03 -0.30777613448E+02 -0.87435530330E+02  0.19450275716E+03  0.79006971726E+02 0.  0.
          6    2    1    2  501    0 -0.26764774684E+03  0.21775865804E+02  0.19810506242E+03  0.37173928211E+03  0.16381383759E+03 0.  0.
         24    2    5    5    0    0 -0.17226250941E+03 -0.29782112541E+01  0.19579130831E+03  0.27305518355E+03  0.80880498052E+02 0.  0.
          5    1    5    5  501    0 -0.95385237425E+02  0.24754077058E+02  0.23137541170E+01  0.98684098555E+02  0.47000000000E+01 0. -1.
        -11    1    6    6    0    0 -0.21848841841E+02  0.20766709371E+01  0.80593769048E+02  0.83528678078E+02  0.00000000000E+00 0.  1.
         12    1    6    6    0    0 -0.15041366757E+03 -0.50548821911E+01  0.11519753926E+03  0.18952650548E+03  0.00000000000E+00 0. -1.
         -5    1    3    3    0  503  0.11600017017E+03  0.90017476446E+01  0.44890847575E+02  0.12479723209E+03  0.47000000000E+01 0.  1.
         11    1    4    4    0    0  0.12453018853E+03  0.71563591220E+01 -0.48782532625E+02  0.13393549500E+03  0.00000000000E+00 0. -1.
        -12    1    4    4    0    0  0.27117388134E+02 -0.37933972570E+02 -0.38652997704E+02  0.60567262161E+02  0.00000000000E+00 0.  1.
<mgrwt>
<rscale>  2 0.31597720E+03</rscale>
<asrwt>0</asrwt>
<pdfrwt beam="1">  1       21 0.65123050E-01 0.31645289E+03</pdfrwt>
<pdfrwt beam="2">  1       21 0.41190684E-01 0.31645289E+03</pdfrwt>
<totfact> 0.11534961E+04</totfact>
</mgrwt>
</event>
<event>
12    1  0.1019868E-001  0.2011268E+03  0.7546771E-02  0.1149163E+00
         21   -1    0    0  501  502  0.00000000000E+00  0.00000000000E+00  0.62986682868E+03  0.62986682868E+03  0.00000000000E+00 0.  1.
         21   -1    0    0  502  503 -0.00000000000E+00 -0.00000000000E+00 -0.13076605095E+03  0.13076605095E+03  0.00000000000E+00 0.  1.
         -6    2    1    2    0  503 -0.69308405557E+02 -0.78542689912E+02 -0.23427533691E+02  0.20073304312E+03  0.16962398429E+03 0.  0.
        -24    2    3    3    0    0 -0.61022880913E+02 -0.30068694991E+02  0.45938927771E+02  0.11557334562E+03  0.81356589901E+02 0.  0.
          6    2    1    2  501    0  0.69308405557E+02  0.78542689912E+02  0.52252831142E+03  0.55989983651E+03  0.17169560702E+03 0.  0.
         24    2    5    5    0    0 -0.28274914208E+01  0.95038081708E+02  0.29349269050E+03  0.31916119974E+03  0.81766009810E+02 0.  0.
          5    1    5    5  501    0  0.72135896978E+02 -0.16495391796E+02  0.22903562092E+03  0.24073863677E+03  0.47000000000E+01 0. -1.
        -11    1    6    6    0    0  0.84225081308E+01 -0.99628924867E+01  0.79134078558E+02  0.80202245973E+02  0.00000000000E+00 0.  1.
         12    1    6    6    0    0 -0.11249999552E+02  0.10500097419E+03  0.21435861194E+03  0.23895895377E+03  0.00000000000E+00 0. -1.
         -5    1    3    3    0  503 -0.82855246440E+01 -0.48473994921E+02 -0.69366461462E+02  0.85159697498E+02  0.47000000000E+01 0.  1.
         11    1    4    4    0    0  0.91198626414E+01 -0.33541436645E+02  0.76722599912E+01  0.35595834591E+02  0.00000000000E+00 0. -1.
        -12    1    4    4    0    0 -0.70142743555E+02  0.34727416543E+01  0.38266667780E+02  0.79977511033E+02  0.00000000000E+00 0.  1.
<mgrwt>
<rscale>  2 0.20068395E+03</rscale>
<asrwt>0</asrwt>
<pdfrwt beam="1">  1       21 0.96902587E-01 0.20112680E+03</pdfrwt>
<pdfrwt beam="2">  1       21 0.20117854E-01 0.20112680E+03</pdfrwt>
<totfact> 0.20082314E+04</totfact>
</mgrwt>
</event>
<event>
12    1  0.1019868E-001  0.1753581E+03  0.7546771E-02  0.1172542E+00
         21   -1    0    0  501  502  0.00000000000E+00  0.00000000000E+00  0.33917679535E+03  0.33917679535E+03  0.00000000000E+00 0. -1.
         21   -1    0    0  502  503 -0.00000000000E+00 -0.00000000000E+00 -0.98450097168E+02  0.98450097168E+02  0.00000000000E+00 0. -1.
         -6    2    1    2    0  503 -0.10399793490E+02  0.21904797956E+02  0.57671794502E+02  0.18459821915E+03  0.17367351771E+03 0.  0.
        -24    2    3    3    0    0  0.59968763413E+02  0.11955824117E+02  0.26404915407E+02  0.10681375020E+03  0.83503073952E+02 0.  0.
          6    2    1    2  501    0  0.10399793490E+02 -0.21904797956E+02  0.18305490368E+03  0.25302867337E+03  0.17299258917E+03 0.  0.
         24    2    5    5    0    0 -0.20454977746E+02  0.45798478599E+02  0.12620538717E+03  0.15927523027E+03  0.83215938809E+02 0.  0.
          5    1    5    5  501    0  0.30854771236E+02 -0.67703276554E+02  0.56849516515E+02  0.93753443095E+02  0.47000000000E+01 0. -1.
        -11    1    6    6    0    0  0.13252800676E+02  0.57546018653E+02  0.95022696591E+02  0.11187713733E+03  0.00000000000E+00 0.  1.
         12    1    6    6    0    0 -0.33707778423E+02 -0.11747540054E+02  0.31182690576E+02  0.47398092947E+02  0.00000000000E+00 0. -1.
         -5    1    3    3    0  503 -0.70368556903E+02  0.99489738388E+01  0.31266879095E+02  0.77784468947E+02  0.47000000000E+01 0.  1.
         11    1    4    4    0    0  0.88905309439E+01  0.12254156744E+02 -0.28221918291E+02  0.32026279366E+02  0.00000000000E+00 0. -1.
        -12    1    4    4    0    0  0.51078232469E+02 -0.29833262663E+00  0.54626833698E+02  0.74787470838E+02  0.00000000000E+00 0.  1.
<mgrwt>
<rscale>  2 0.17518928E+03</rscale>
<asrwt>0</asrwt>
<pdfrwt beam="1">  1       21 0.52181045E-01 0.17535811E+03</pdfrwt>
<pdfrwt beam="2">  1       21 0.15146169E-01 0.17535811E+03</pdfrwt>
<totfact> 0.13511099E+05</totfact>
</mgrwt>
</event>
<event>
12    1  0.1019868E-001  0.1854175E+03  0.7546771E-02  0.1164396E+00
         21   -1    0    0  503  502  0.00000000000E+00  0.00000000000E+00  0.13278602959E+03  0.13278602959E+03  0.00000000000E+00 0.  1.
         21   -1    0    0  501  503 -0.00000000000E+00 -0.00000000000E+00 -0.92945314485E+03  0.92945314485E+03  0.00000000000E+00 0.  1.
          6    2    1    2  501    0  0.51222996674E+02  0.31655083949E+02 -0.85494908413E+03  0.87482432031E+03  0.17536765727E+03 0.  0.
         24    2    3    3    0    0  0.85908094555E+02  0.31156913506E+02 -0.80385218672E+03  0.81288655224E+03  0.79090168420E+02 0.  0.
         -6    2    1    2    0  502 -0.51222996674E+02 -0.31655083949E+02  0.58281968873E+02  0.18741485413E+03  0.16763561652E+03 0.  0.
        -24    2    5    5    0    0 -0.22757578787E+02  0.39757314947E+02  0.18674721021E+01  0.91943936163E+02  0.79697229946E+02 0.  0.
          5    1    3    3  501    0 -0.34685097880E+02  0.49817044255E+00 -0.51096897415E+02  0.61937768075E+02  0.47000000000E+01 0. -1.
        -11    1    4    4    0    0  0.77046207989E+02  0.47056942836E+02 -0.47328698100E+03  0.48182054794E+03  0.00000000000E+00 0.  1.
         12    1    4    4    0    0  0.88618865657E+01 -0.15900029330E+02 -0.33056520572E+03  0.33106600429E+03  0.00000000000E+00 0. -1.
         -5    1    5    5    0  502 -0.28465417887E+02 -0.71412398896E+02  0.56414496771E+02  0.95470917967E+02  0.47000000000E+01 0.  1.
         13    1    6    6    0    0 -0.28872287091E+02  0.15551523046E+02 -0.34649681232E+02  0.47708062635E+02  0.00000000000E+00 0. -1.
        -14    1    6    6    0    0  0.61147083037E+01  0.24205791901E+02  0.36517153334E+02  0.44235873528E+02  0.00000000000E+00 0.  1.
<mgrwt>
<rscale>  2 0.18356616E+03</rscale>
<asrwt>0</asrwt>
<pdfrwt beam="1">  1       21 0.20428620E-01 0.18541752E+03</pdfrwt>
<pdfrwt beam="2">  1       21 0.14299279E+00 0.18541752E+03</pdfrwt>
<totfact> 0.75581715E+03</totfact>
</mgrwt>
</event>
<event>
12    1  0.1019868E-001  0.1893907E+03  0.7546771E-02  0.1159241E+00
         21   -1    0    0  501  502  0.00000000000E+00  0.00000000000E+00  0.87908962266E+02  0.87908962266E+02  0.00000000000E+00 0. -1.
         21   -1    0    0  502  503 -0.00000000000E+00 -0.00000000000E+00 -0.54302345760E+03  0.54302345760E+03  0.00000000000E+00 0. -1.
         -6    2    1    2    0  503  0.19406028812E+02  0.72689897559E+02 -0.38656619594E+03  0.43046750473E+03  0.17380573531E+03 0.  0.
        -24    2    3    3    0    0  0.58424830879E+02  0.81845808683E+02 -0.35774930033E+03  0.38088120526E+03  0.83508881984E+02 0.  0.
          6    2    1    2  501    0 -0.19406028812E+02 -0.72689897559E+02 -0.68548299397E+02  0.20046491513E+03  0.17270465451E+03 0.  0.
         24    2    5    5    0    0 -0.92109712131E+01 -0.14301696136E+02  0.27170637671E+02  0.87782502227E+02  0.81719909708E+02 0.  0.
          5    1    5    5  501    0 -0.10195057599E+02 -0.58388201423E+02 -0.95718937068E+02  0.11268241291E+03  0.47000000000E+01 0. -1.
        -13    1    6    6    0    0  0.62909720937E+01  0.32190767177E+02  0.24476508227E+01  0.32890923001E+02  0.00000000000E+00 0.  1.
         14    1    6    6    0    0 -0.15501943307E+02 -0.46492463313E+02  0.24722986849E+02  0.54891579226E+02  0.00000000000E+00 0. -1.
         -5    1    3    3    0  503 -0.39018802067E+02 -0.91559111238E+01 -0.28816895610E+02  0.49586299477E+02  0.47000000000E+01 0.  1.
         13    1    4    4    0    0  0.57579970437E+02  0.71817629034E+02 -0.17392762322E+03  0.19678425484E+03  0.00000000000E+00 0. -1.
        -14    1    4    4    0    0  0.84486044144E+00  0.10028179648E+02 -0.18382167711E+03  0.18409695041E+03  0.00000000000E+00 0.  1.
<mgrwt>
<rscale>  2 0.18913773E+03</rscale>
<asrwt>0</asrwt>
<pdfrwt beam="1">  1       21 0.13524455E-01 0.18939073E+03</pdfrwt>
<pdfrwt beam="2">  1       21 0.83542072E-01 0.18939073E+03</pdfrwt>
<totfact> 0.59091180E+04</totfact>
</mgrwt>
</event>
<event>
12    1  0.1019868E-001  0.3450219E+03  0.7546771E-02  0.1064739E+00
         21   -1    0    0  503  502  0.00000000000E+00  0.00000000000E+00  0.12145739324E+04  0.12145739324E+04  0.00000000000E+00 0. -1.
         21   -1    0    0  501  503 -0.00000000000E+00 -0.00000000000E+00 -0.97864314414E+02  0.97864314414E+02  0.00000000000E+00 0.  1.
          6    2    1    2  501    0  0.19584859123E+03  0.22503862109E+03  0.56911533680E+03  0.66553166724E+03  0.17332363328E+03 0.  0.
         24    2    3    3    0    0  0.16058785968E+03  0.24038700507E+03  0.45421262969E+03  0.54427320699E+03  0.79685870751E+02 0.  0.
         -6    2    1    2    0  502 -0.19584859123E+03 -0.22503862109E+03  0.54759428114E+03  0.64690657953E+03  0.17213243224E+03 0.  0.
        -24    2    5    5    0    0 -0.14803042415E+03 -0.22210871179E+03  0.37264551256E+03  0.46545597165E+03  0.80865921037E+02 0.  0.
          5    1    3    3  501    0  0.35260731547E+02 -0.15348383987E+02  0.11490270711E+03  0.12125846025E+03  0.47000000000E+01 0. -1.
        -13    1    4    4    0    0  0.53286812430E+01  0.52285502695E+02  0.52304813275E+02  0.74148244265E+02  0.00000000000E+00 0.  1.
         14    1    4    4    0    0  0.15525917844E+03  0.18810150238E+03  0.40190781641E+03  0.47012496273E+03  0.00000000000E+00 0. -1.
         -5    1    5    5    0  502 -0.47818167077E+02 -0.29299092974E+01  0.17494876859E+03  0.18145060788E+03  0.47000000000E+01 0.  1.
         11    1    6    6    0    0 -0.90337187265E+02 -0.78145787733E+02  0.20353018988E+03  0.23599175777E+03  0.00000000000E+00 0. -1.
        -12    1    6    6    0    0 -0.57693236887E+02 -0.14396292406E+03  0.16911532268E+03  0.22946421388E+03  0.00000000000E+00 0.  1.
<mgrwt>
<rscale>  2 0.34487262E+03</rscale>
<asrwt>0</asrwt>
<pdfrwt beam="1">  1       21 0.18685752E+00 0.34502193E+03</pdfrwt>
<pdfrwt beam="2">  1       21 0.15056049E-01 0.34502193E+03</pdfrwt>
<totfact> 0.57660594E+03</totfact>
</mgrwt>
</event>
<event>
12    1  0.1019868E-001  0.1946590E+03  0.7546771E-02  0.1156147E+00
         21   -1    0    0  501  502  0.00000000000E+00  0.00000000000E+00  0.11877102639E+03  0.11877102639E+03  0.00000000000E+00 0. -1.
         21   -1    0    0  502  503 -0.00000000000E+00 -0.00000000000E+00 -0.49334620852E+03  0.49334620852E+03  0.00000000000E+00 0. -1.
         -6    2    1    2    0  503 -0.51193241043E+02 -0.71698059474E+02 -0.37347497297E+03  0.41745514155E+03  0.16438941605E+03 0.  0.
        -24    2    3    3    0    0 -0.18927746589E+02 -0.10841663514E+03 -0.33104004120E+03  0.35255422195E+03  0.50936668207E+02 0.  0.
          6    2    1    2  501    0  0.51193241043E+02  0.71698059474E+02 -0.11002091596E+01  0.19466209335E+03  0.17358214328E+03 0.  0.
         24    2    5    5    0    0  0.32363478532E+00  0.10107010571E+03  0.12179004394E+01  0.13568839097E+03  0.90523947961E+02 0.  0.
          5    1    5    5  501    0  0.50869606257E+02 -0.29372046235E+02 -0.23181095990E+01  0.58973702384E+02  0.47000000000E+01 0. -1.
        -11    1    6    6    0    0  0.17742702510E+02  0.33775201820E+02 -0.39672512868E+02  0.55040676119E+02  0.00000000000E+00 0.  1.
         12    1    6    6    0    0 -0.17419067725E+02  0.67294903890E+02  0.40890413308E+02  0.80647714849E+02  0.00000000000E+00 0. -1.
         -5    1    3    3    0  503 -0.32265494454E+02  0.36718575662E+02 -0.42434931766E+02  0.64900919600E+02  0.47000000000E+01 0.  1.
         11    1    4    4    0    0  0.11277733906E+02 -0.56962125829E+02 -0.12113097118E+03  0.13433012782E+03  0.00000000000E+00 0. -1.
        -12    1    4    4    0    0 -0.30205480495E+02 -0.51454509307E+02 -0.20990907002E+03  0.21822409413E+03  0.00000000000E+00 0.  1.
<mgrwt>
<rscale>  2 0.19258844E+03</rscale>
<asrwt>0</asrwt>
<pdfrwt beam="1">  1       21 0.18272466E-01 0.19465898E+03</pdfrwt>
<pdfrwt beam="2">  1       21 0.75899417E-01 0.19465898E+03</pdfrwt>
<totfact> 0.42231127E+04</totfact>
</mgrwt>
</event>
<event>
12    1  0.1019868E-001  0.2758770E+03  0.7546771E-02  0.1098028E+00
         21   -1    0    0  503  502  0.00000000000E+00  0.00000000000E+00  0.38846459529E+03  0.38846459529E+03  0.00000000000E+00 0. -1.
         21   -1    0    0  501  503 -0.00000000000E+00 -0.00000000000E+00 -0.35806089657E+03  0.35806089657E+03  0.00000000000E+00 0.  1.
          6    2    1    2  501    0 -0.21528864564E+03  0.39535229722E+01 -0.23622964228E+03  0.36319771364E+03  0.17246247133E+03 0.  0.
         24    2    3    3    0    0 -0.19409700805E+03 -0.47334266971E+02 -0.21462730834E+03  0.30346268428E+03  0.78169929666E+02 0.  0.
         -6    2    1    2    0  502  0.21528864564E+03 -0.39535229722E+01  0.26663334100E+03  0.38332777822E+03  0.17170327818E+03 0.  0.
        -24    2    5    5    0    0  0.13879048767E+03  0.69135521924E+02  0.14127559213E+03  0.21922222725E+03  0.63695149969E+02 0.  0.
          5    1    3    3  501    0 -0.21191637591E+02  0.51287789943E+02 -0.21602333941E+02  0.59735029361E+02  0.47000000000E+01 0. -1.
        -13    1    4    4    0    0 -0.10394522588E+02 -0.12652600974E+02 -0.55808448104E+02  0.58161132133E+02  0.00000000000E+00 0.  1.
         14    1    4    4    0    0 -0.18370248546E+03 -0.34681665997E+02 -0.15881886023E+03  0.24530155214E+03  0.00000000000E+00 0. -1.
         -5    1    5    5    0  502  0.76498157963E+02 -0.73089044896E+02  0.12535774887E+03  0.16410555096E+03  0.47000000000E+01 0.  1.
         13    1    6    6    0    0  0.10660777699E+03  0.33867203772E+02  0.12732445154E+03  0.16948074099E+03  0.00000000000E+00 0. -1.
        -14    1    6    6    0    0  0.32182710681E+02  0.35268318152E+02  0.13951140594E+02  0.49741486265E+02  0.00000000000E+00 0.  1.
<mgrwt>
<rscale>  2 0.27575846E+03</rscale>
<asrwt>0</asrwt>
<pdfrwt beam="1">  1       21 0.59763784E-01 0.27587703E+03</pdfrwt>
<pdfrwt beam="2">  1       21 0.55086292E-01 0.27587703E+03</pdfrwt>
<totfact> 0.77172096E+03</totfact>
</mgrwt>
</event>
<event>
12    1  0.1019868E-001  0.2394869E+03  0.7546771E-02  0.1120227E+00
         21   -1    0    0  501  502  0.00000000000E+00  0.00000000000E+00  0.69351886550E+02  0.69351886550E+02  0.00000000000E+00 0.  1.
         21   -1    0    0  502  503 -0.00000000000E+00 -0.00000000000E+00 -0.85895391343E+03  0.85895391343E+03  0.00000000000E+00 0. -1.
         -6    2    1    2    0  503 -0.15875112712E+03 -0.45635057315E+02 -0.30221090866E+03  0.38525508027E+03  0.17264288212E+03 0.  0.
        -24    2    3    3    0    0 -0.85963840515E+02 -0.77186976390E+02 -0.11659622921E+03  0.18334318880E+03  0.81684961993E+02 0.  0.
          6    2    1    2  501    0  0.15875112712E+03  0.45635057315E+02 -0.48739111823E+03  0.54305071971E+03  0.17340560324E+03 0.  0.
         24    2    5    5    0    0  0.13673091777E+03  0.77796343355E+02 -0.27326325405E+03  0.32535352140E+03  0.80215291274E+02 0.  0.
          5    1    5    5  501    0  0.22020209349E+02 -0.32161286040E+02 -0.21412786417E+03  0.21769719831E+03  0.47000000000E+01 0. -1.
        -11    1    6    6    0    0  0.99317524411E+02  0.76843856336E+02 -0.14537262924E+03  0.19209932390E+03  0.00000000000E+00 0.  1.
         12    1    6    6    0    0  0.37413393360E+02  0.95248701913E+00 -0.12789062481E+03  0.13325419749E+03  0.00000000000E+00 0. -1.
         -5    1    3    3    0  503 -0.72787286604E+02  0.31551919075E+02 -0.18561467945E+03  0.20191189147E+03  0.47000000000E+01 0.  1.
         11    1    4    4    0    0  0.14142402694E+02 -0.18329941063E+02 -0.84131981242E+01  0.24632827609E+02  0.00000000000E+00 0. -1.
        -12    1    4    4    0    0 -0.10010624321E+03 -0.58857035328E+02 -0.10818303108E+03  0.15871036120E+03  0.00000000000E+00 0.  1.
<mgrwt>
<rscale>  2 0.23934887E+03</rscale>
<asrwt>0</asrwt>
<pdfrwt beam="1">  1       21 0.10669521E-01 0.23948691E+03</pdfrwt>
<pdfrwt beam="2">  1       21 0.13214676E+00 0.23948691E+03</pdfrwt>
<totfact> 0.29221538E+04</totfact>
</mgrwt>
</event>
<event>
12    1  0.1019868E-001  0.2535972E+03  0.7546771E-02  0.1111179E+00
         21   -1    0    0  501  502  0.00000000000E+00  0.00000000000E+00  0.98100147067E+02  0.98100147067E+02  0.00000000000E+00 0. -1.
         21   -1    0    0  502  503 -0.00000000000E+00 -0.00000000000E+00 -0.70764216291E+03  0.70764216291E+03  0.00000000000E+00 0.  1.
         -6    2    1    2    0  503 -0.57819762288E+01  0.18424303192E+03 -0.41579367810E+03  0.48660287560E+03  0.17297123964E+03 0.  0.
        -24    2    3    3    0    0 -0.31118102901E+02  0.31292961362E+02 -0.10504688701E+03  0.13929710029E+03  0.80132689453E+02 0.  0.
          6    2    1    2  501    0  0.57819762288E+01 -0.18424303192E+03 -0.19374833774E+03  0.31913943437E+03  0.17416266573E+03 0.  0.
         24    2    5    5    0    0  0.14115453619E+02 -0.13429507192E+03 -0.21278628759E+03  0.26483677249E+03  0.81400856884E+02 0.  0.
          5    1    5    5  501    0 -0.83334773899E+01 -0.49947959997E+02  0.19037949849E+02  0.54302661884E+02  0.47000000000E+01 0. -1.
        -11    1    6    6    0    0 -0.28201615781E+02 -0.57373210150E+02 -0.12651313659E+03  0.14174833369E+03  0.00000000000E+00 0.  1.
         12    1    6    6    0    0  0.42317069399E+02 -0.76921861768E+02 -0.86273151008E+02  0.12308843880E+03  0.00000000000E+00 0. -1.
         -5    1    3    3    0  503  0.25336126672E+02  0.15295007055E+03 -0.31074679108E+03  0.34730577531E+03  0.47000000000E+01 0.  1.
         13    1    4    4    0    0  0.21518001794E+02  0.21290357948E+02 -0.13325740082E+02  0.33073843010E+02  0.00000000000E+00 0. -1.
        -14    1    4    4    0    0 -0.52636104695E+02  0.10002603414E+02 -0.91721146931E+02  0.10622325728E+03  0.00000000000E+00 0.  1.
<mgrwt>
<rscale>  2 0.25339281E+03</rscale>
<asrwt>0</asrwt>
<pdfrwt beam="1">  1       21 0.15092330E-01 0.25359724E+03</pdfrwt>
<pdfrwt beam="2">  1       21 0.10886803E+00 0.25359724E+03</pdfrwt>
<totfact> 0.25132990E+04</totfact>
</mgrwt>
</event>
<event>
12    1  0.1019868E-001  0.2391330E+03  0.7546771E-02  0.1121014E+00
         21   -1    0    0  501  502  0.00000000000E+00  0.00000000000E+00  0.13489261248E+04  0.13489261248E+04  0.00000000000E+00 0.  1.
         21   -1    0    0  502  503 -0.00000000000E+00 -0.00000000000E+00 -0.50091019980E+02  0.50091019980E+02  0.00000000000E+00 0.  1.
         -6    2    1    2    0  503 -0.14878097228E+03  0.71355743376E+02  0.36781925116E+03  0.43872041008E+03  0.17308141688E+03 0.  0.
        -24    2    3    3    0    0 -0.71641085918E+02  0.32031730514E+01  0.29168695094E+03  0.31060502440E+03  0.79066417187E+02 0.  0.
          6    2    1    2  501    0  0.14878097228E+03 -0.71355743376E+02  0.93101585368E+03  0.96029673472E+03  0.16778521714E+03 0.  0.
         24    2    5    5    0    0  0.17482844572E+03 -0.50188596363E+02  0.83936077944E+03  0.86257641125E+03  0.80172729483E+02 0.  0.
          5    1    5    5  501    0 -0.26047473435E+02 -0.21167147013E+02  0.91655074239E+02  0.97720323468E+02  0.47000000000E+01 0. -1.
        -13    1    6    6    0    0  0.16706634068E+03 -0.25828600338E+02  0.77701213036E+03  0.79518936707E+03  0.00000000000E+00 0.  1.
         14    1    6    6    0    0  0.77621050347E+01 -0.24359996025E+02  0.62348649082E+02  0.67387044180E+02  0.00000000000E+00 0. -1.
         -5    1    3    3    0  503 -0.77139886364E+02  0.68152570325E+02  0.76132300225E+02  0.12811538568E+03  0.47000000000E+01 0.  1.
         11    1    4    4    0    0  0.11672543963E+02 -0.77213976468E+01  0.11575741924E+02  0.18162215319E+02  0.00000000000E+00 0. -1.
        -12    1    4    4    0    0 -0.83313629881E+02  0.10924570698E+02  0.28011120901E+03  0.29244280908E+03  0.00000000000E+00 0.  1.
<mgrwt>
<rscale>  2 0.23817605E+03</rscale>
<asrwt>0</asrwt>
<pdfrwt beam="1">  1       21 0.20752707E+00 0.23913301E+03</pdfrwt>
<pdfrwt beam="2">  1       21 0.77063118E-02 0.23913301E+03</pdfrwt>
<totfact> 0.14875076E+04</totfact>
</mgrwt>
</event>
<event>
12    1  0.1019868E-001  0.1834294E+03  0.7546771E-02  0.1164580E+00
         21   -1    0    0  503  502  0.00000000000E+00  0.00000000000E+00  0.36458810119E+03  0.36458810119E+03  0.00000000000E+00 0. -1.
         21   -1    0    0  501  503 -0.00000000000E+00 -0.00000000000E+00 -0.50173304200E+03  0.50173304200E+03  0.00000000000E+00 0. -1.
          6    2    1    2  501    0  0.17155377378E+02 -0.54216494861E+02 -0.45993800469E+03  0.49516593440E+03  0.17439208454E+03 0.  0.
         24    2    3    3    0    0  0.27706643667E+02  0.15361713899E+02 -0.12442530531E+03  0.15232002471E+03  0.81951772201E+02 0.  0.
         -6    2    1    2    0  502 -0.17155377378E+02  0.54216494861E+02  0.32279306388E+03  0.37115520878E+03  0.17414675314E+03 0.  0.
        -24    2    5    5    0    0  0.37883738317E+02  0.65210183473E+02  0.13882489919E+03  0.17875837652E+03  0.83634077284E+02 0.  0.
          5    1    3    3  501    0 -0.10551266289E+02 -0.69578208760E+02 -0.33551269937E+03  0.34284590970E+03  0.47000000000E+01 0. -1.
        -13    1    4    4    0    0  0.14295970414E+02 -0.32643586903E+02 -0.35044429730E+02  0.49980902263E+02  0.00000000000E+00 0.  1.
         14    1    4    4    0    0  0.13410673253E+02  0.48005300802E+02 -0.89380875585E+02  0.10233912244E+03  0.00000000000E+00 0. -1.
         -5    1    5    5    0  502 -0.55039115695E+02 -0.10993688612E+02  0.18396816469E+03  0.19239683226E+03  0.47000000000E+01 0.  1.
         11    1    6    6    0    0  0.55507886883E+02  0.46843205335E+02  0.13461235368E+03  0.15295717426E+03  0.00000000000E+00 0. -1.
        -12    1    6    6    0    0 -0.17624148566E+02  0.18366978138E+02  0.42125455076E+01  0.25801202264E+02  0.00000000000E+00 0.  1.
<mgrwt>
<rscale>  2 0.18337104E+03</rscale>
<asrwt>0</asrwt>
<pdfrwt beam="1">  1       21 0.56090477E-01 0.18342937E+03</pdfrwt>
<pdfrwt beam="2">  1       21 0.77189699E-01 0.18342937E+03</pdfrwt>
<totfact> 0.44935718E+03</totfact>
</mgrwt>
</event>
<event>
12    1  0.1019868E-001  0.2017391E+03  0.7546771E-02  0.1148516E+00
         21   -1    0    0  503  502  0.00000000000E+00  0.00000000000E+00  0.11235878886E+03  0.11235878886E+03  0.00000000000E+00 0.  1.
         21   -1    0    0  501  503 -0.00000000000E+00 -0.00000000000E+00 -0.51842006538E+03  0.51842006538E+03  0.00000000000E+00 0.  1.
          6    2    1    2  501    0 -0.53583068796E+02  0.87560820364E+02 -0.37687236510E+03  0.42693905952E+03  0.17235468791E+03 0.  0.
         24    2    3    3    0    0 -0.22611139707E+02  0.68839715154E+01 -0.29461885436E+03  0.30754163760E+03  0.84987862740E+02 0.  0.
         -6    2    1    2    0  502  0.53583068796E+02 -0.87560820364E+02 -0.29188911419E+02  0.20383979471E+03  0.17366815147E+03 0.  0.
        -24    2    5    5    0    0  0.77524782614E+02 -0.56663052100E+02  0.26656655666E+02  0.13551194456E+03  0.91826556255E+02 0.  0.
          5    1    3    3  501    0 -0.30971929090E+02  0.80676848849E+02 -0.82253510740E+02  0.11939742192E+03  0.47000000000E+01 0. -1.
        -13    1    4    4    0    0  0.63148759873E+01  0.40264013219E+02 -0.18337996308E+03  0.18785440979E+03  0.00000000000E+00 0.  1.
         14    1    4    4    0    0 -0.28926015694E+02 -0.33380041704E+02 -0.11123889128E+03  0.11968722781E+03  0.00000000000E+00 0. -1.
         -5    1    5    5    0  502 -0.23941713817E+02 -0.30897768264E+02 -0.55845567085E+02  0.68327850158E+02  0.47000000000E+01 0.  1.
         11    1    6    6    0    0  0.61919733815E+02 -0.28035824377E+02 -0.26663194796E+02  0.73013607232E+02  0.00000000000E+00 0. -1.
        -12    1    6    6    0    0  0.15605048798E+02 -0.28627227723E+02  0.53319850462E+02  0.62498337325E+02  0.00000000000E+00 0.  1.
<mgrwt>
<rscale>  2 0.20145612E+03</rscale>
<asrwt>0</asrwt>
<pdfrwt beam="1">  1       21 0.17285967E-01 0.20173911E+03</pdfrwt>
<pdfrwt beam="2">  1       21 0.79756935E-01 0.20173911E+03</pdfrwt>
<totfact> 0.41698131E+04</totfact>
</mgrwt>
</event>
<event>
12    1  0.1019868E-001  0.4650466E+03  0.7546771E-02  0.1023362E+00
         21   -1    0    0  503  502  0.00000000000E+00  0.00000000000E+00  0.21736804830E+03  0.21736804830E+03  0.00000000000E+00 0.  1.
         21   -1    0    0  501  503 -0.00000000000E+00 -0.00000000000E+00 -0.99709030954E+03  0.99709030954E+03  0.00000000000E+00 0.  1.
          6    2    1    2  501    0  0.89793670066E+02  0.42229916968E+03 -0.42392798273E+03  0.62891768729E+03  0.17153142845E+03 0.  0.
         24    2    3    3    0    0  0.12363916754E+03  0.38006635945E+03 -0.35298695297E+03  0.53956530812E+03  0.82424822851E+02 0.  0.
         -6    2    1    2    0  502 -0.89793670066E+02 -0.42229916968E+03 -0.35579427851E+03  0.58554067056E+03  0.17282597133E+03 0.  0.
        -24    2    5    5    0    0 -0.54474287331E+02 -0.38856836246E+03 -0.25904865219E+03  0.47706471763E+03  0.80819059155E+02 0.  0.
          5    1    3    3  501    0 -0.33845497478E+02  0.42232810228E+02 -0.70941029761E+02  0.89352379167E+02  0.47000000000E+01 0. -1.
        -11    1    4    4    0    0  0.31189795430E+02  0.14522688753E+03 -0.18103573313E+03  0.23417427030E+03  0.00000000000E+00 0.  1.
         12    1    4    4    0    0  0.92449372114E+02  0.23483947192E+03 -0.17195121984E+03  0.30539103782E+03  0.00000000000E+00 0. -1.
         -5    1    5    5    0  502 -0.35319382736E+02 -0.33730807220E+02 -0.96745626319E+02  0.10847595293E+03  0.47000000000E+01 0.  1.
         13    1    6    6    0    0 -0.52547448567E+02 -0.12486702135E+03 -0.10724456063E+03  0.17278426768E+03  0.00000000000E+00 0. -1.
        -14    1    6    6    0    0 -0.19268387637E+01 -0.26370134110E+03 -0.15180409156E+03  0.30428044995E+03  0.00000000000E+00 0.  1.
<mgrwt>
<rscale>  2 0.46492663E+03</rscale>
<asrwt>0</asrwt>
<pdfrwt beam="1">  1       21 0.33441238E-01 0.46504657E+03</pdfrwt>
<pdfrwt beam="2">  1       21 0.15339851E+00 0.46504657E+03</pdfrwt>
<totfact> 0.20651359E+03</totfact>
</mgrwt>
</event>
<event>
12    1  0.1019868E-001  0.2340679E+03  0.7546771E-02  0.1123872E+00
         21   -1    0    0  501  502  0.00000000000E+00  0.00000000000E+00  0.47311388656E+03  0.47311388656E+03  0.00000000000E+00 0.  1.
         21   -1    0    0  502  503 -0.00000000000E+00 -0.00000000000E+00 -0.28541130972E+03  0.28541130972E+03  0.00000000000E+00 0. -1.
         -6    2    1    2    0  503 -0.68165636628E+02  0.14177176983E+03 -0.19870296599E+03  0.30675418649E+03  0.17282787246E+03 0.  0.
        -24    2    3    3    0    0 -0.10685905950E+03  0.13987154886E+03 -0.17927614221E+03  0.26316194756E+03  0.78303043992E+02 0.  0.
          6    2    1    2  501    0  0.68165636628E+02 -0.14177176983E+03  0.38640554282E+03  0.45177100979E+03  0.17332631948E+03 0.  0.
         24    2    5    5    0    0  0.10092528454E+02 -0.83581240327E+02  0.33402848460E+03  0.35417966875E+03  0.82343951625E+02 0.  0.
          5    1    5    5  501    0  0.58073108175E+02 -0.58190529505E+02  0.52377058224E+02  0.97591341037E+02  0.47000000000E+01 0. -1.
        -13    1    6    6    0    0 -0.26830906391E+02 -0.17629030304E+02  0.17722866812E+03  0.18011296747E+03  0.00000000000E+00 0.  1.
         14    1    6    6    0    0  0.36923434844E+02 -0.65952210023E+02  0.15679981648E+03  0.17406670128E+03  0.00000000000E+00 0. -1.
         -5    1    3    3    0  503  0.38693422873E+02  0.19002209735E+01 -0.19426823777E+02  0.43592238936E+02  0.47000000000E+01 0.  1.
         11    1    4    4    0    0 -0.41964632357E+02  0.27807425628E+02 -0.98272290766E+02  0.11041615109E+03  0.00000000000E+00 0. -1.
        -12    1    4    4    0    0 -0.64894427145E+02  0.11206412323E+03 -0.81003851446E+02  0.15274579647E+03  0.00000000000E+00 0.  1.
<mgrwt>
<rscale>  2 0.23397567E+03</rscale>
<asrwt>0</asrwt>
<pdfrwt beam="1">  1       21 0.72786752E-01 0.23406794E+03</pdfrwt>
<pdfrwt beam="2">  1       21 0.43909432E-01 0.23406794E+03</pdfrwt>
<totfact> 0.82367893E+03</totfact>
</mgrwt>
</event>
<event>
12    1  0.1019868E-001  0.2051348E+03  0.7546771E-02  0.1146898E+00
         21   -1    0    0  503  502  0.00000000000E+00  0.00000000000E+00  0.31488626044E+03  0.31488626044E+03  0.00000000000E+00 0. -1.
         21   -1    0    0  501  503 -0.00000000000E+00 -0.00000000000E+00 -0.19809329905E+03  0.19809329905E+03  0.00000000000E+00 0. -1.
          6    2    1    2  501    0  0.84934743704E+02  0.44688786904E+02  0.20897267899E+03  0.28808540931E+03  0.17352989406E+03 0.  0.
         24    2    3    3    0    0  0.48086355310E+02  0.95751944330E+02  0.13437811189E+03  0.19035266549E+03  0.81828649598E+02 0.  0.
         -6    2    1    2    0  502 -0.84934743704E+02 -0.44688786904E+02 -0.92179717595E+02  0.22489415019E+03  0.18129886952E+03 0.  0.
        -24    2    5    5    0    0 -0.50341141479E+02 -0.10003885889E+03 -0.57715509911E+02  0.15093321864E+03  0.83112890642E+02 0.  0.
          5    1    3    3  501    0  0.36848388394E+02 -0.51063157427E+02  0.74594567102E+02  0.97732743821E+02  0.47000000000E+01 0. -1.
        -11    1    4    4    0    0 -0.16951974712E+02  0.25439394433E+02  0.76712313508E+01  0.31517931820E+02  0.00000000000E+00 0.  1.
         12    1    4    4    0    0  0.65038330022E+02  0.70312549897E+02  0.12670688053E+03  0.15883473367E+03  0.00000000000E+00 0. -1.
         -5    1    5    5    0  502 -0.34593602224E+02  0.55350071988E+02 -0.34464207684E+02  0.73960931547E+02  0.47000000000E+01 0.  1.
         11    1    6    6    0    0  0.39594369086E+01 -0.67537382713E+02 -0.55673990743E+02  0.87616028497E+02  0.00000000000E+00 0. -1.
        -12    1    6    6    0    0 -0.54300578388E+02 -0.32501476179E+02 -0.20415191679E+01  0.63317190143E+02  0.00000000000E+00 0.  1.
<mgrwt>
<rscale>  2 0.20340479E+03</rscale>
<asrwt>0</asrwt>
<pdfrwt beam="1">  1       21 0.48444040E-01 0.20513478E+03</pdfrwt>
<pdfrwt beam="2">  1       21 0.30475892E-01 0.20513478E+03</pdfrwt>
<totfact> 0.41787198E+04</totfact>
</mgrwt>
</event>
<event>
12    1  0.1019868E-001  0.1972722E+03  0.7546771E-02  0.1153530E+00
         21   -1    0    0  501  502  0.00000000000E+00  0.00000000000E+00  0.43415712809E+02  0.43415712809E+02  0.00000000000E+00 0. -1.
         21   -1    0    0  502  503 -0.00000000000E+00 -0.00000000000E+00 -0.17847933822E+04  0.17847933822E+04  0.00000000000E+00 0. -1.
         -6    2    1    2    0  503 -0.87736412132E+02  0.31509443865E+02 -0.15337725187E+04  0.15464069490E+04  0.17385565804E+03 0.  0.
        -24    2    3    3    0    0 -0.10981858006E+03 -0.23136999373E+02 -0.10564780605E+04  0.10654641814E+04  0.80452397651E+02 0.  0.
          6    2    1    2  501    0  0.87736412132E+02 -0.31509443865E+02 -0.20760515066E+03  0.28180214594E+03  0.16619875996E+03 0.  0.
         24    2    5    5    0    0 -0.58771131612E+01 -0.22994684830E+02 -0.14887619551E+03  0.17086444535E+03  0.80419158832E+02 0.  0.
          5    1    5    5  501    0  0.93613525293E+02 -0.85147590351E+01 -0.58728955150E+02  0.11093770059E+03  0.47000000000E+01 0. -1.
        -13    1    6    6    0    0 -0.42351760685E+02 -0.89198896520E+01 -0.62173531385E+02  0.75754762684E+02  0.00000000000E+00 0.  1.
         14    1    6    6    0    0  0.36474647523E+02 -0.14074795178E+02 -0.86702664121E+02  0.95109682667E+02  0.00000000000E+00 0. -1.
         -5    1    3    3    0  503  0.22082167929E+02  0.54646443238E+02 -0.47729445819E+03  0.48094276761E+03  0.47000000000E+01 0.  1.
         11    1    4    4    0    0 -0.31935438052E+02 -0.46396033392E+02 -0.47676598666E+03  0.48008152449E+03  0.00000000000E+00 0. -1.
        -12    1    4    4    0    0 -0.77883142009E+02  0.23259034019E+02 -0.57971207384E+03  0.58538265693E+03  0.00000000000E+00 0.  1.
<mgrwt>
<rscale>  2 0.19557191E+03</rscale>
<asrwt>0</asrwt>
<pdfrwt beam="1">  1       21 0.66793396E-02 0.19727218E+03</pdfrwt>
<pdfrwt beam="2">  1       21 0.27458363E+00 0.19727218E+03</pdfrwt>
<totfact> 0.78058478E+03</totfact>
</mgrwt>
</event>
<event>
12    1  0.1019868E-001  0.1975454E+03  0.7546771E-02  0.1151835E+00
         21   -1    0    0  503  502  0.00000000000E+00  0.00000000000E+00  0.15445610578E+04  0.15445610578E+04  0.00000000000E+00 0.  1.
         21   -1    0    0  501  503 -0.00000000000E+00 -0.00000000000E+00 -0.35846081979E+02  0.35846081979E+02  0.00000000000E+00 0.  1.
          6    2    1    2  501    0 -0.61193297889E+02 -0.73825038422E+02  0.32499932186E+03  0.38032715059E+03  0.17271197487E+03 0.  0.
         24    2    3    3    0    0 -0.25422676634E+02 -0.16720034224E+02  0.55078545954E+02  0.10208295188E+03  0.80382901223E+02 0.  0.
         -6    2    1    2    0  502  0.61193297889E+02  0.73825038422E+02  0.11837156539E+04  0.12000799892E+04  0.17266868567E+03 0.  0.
        -24    2    5    5    0    0  0.17337832862E+02  0.18780889451E+02  0.99333350761E+03  0.99705139071E+03  0.82138274422E+02 0.  0.
          5    1    3    3  501    0 -0.35770621255E+02 -0.57105004198E+02  0.26992077590E+03  0.27824419871E+03  0.47000000000E+01 0. -1.
        -13    1    4    4    0    0 -0.11292607730E+02 -0.46612134558E+01  0.74331901304E+02  0.75329154062E+02  0.00000000000E+00 0.  1.
         14    1    4    4    0    0 -0.14130068904E+02 -0.12058820769E+02 -0.19253355351E+02  0.26753797820E+02  0.00000000000E+00 0. -1.
         -5    1    5    5    0  502  0.43855465027E+02  0.55044148971E+02  0.19038214633E+03  0.20302859845E+03  0.47000000000E+01 0.  1.
         13    1    6    6    0    0 -0.70122269480E+01 -0.30067263062E+02  0.30569891043E+03  0.30725402434E+03  0.00000000000E+00 0. -1.
        -14    1    6    6    0    0  0.24350059810E+02  0.48848152513E+02  0.68763459718E+03  0.68979736637E+03  0.00000000000E+00 0.  1.
<mgrwt>
<rscale>  2 0.19753593E+03</rscale>
<asrwt>0</asrwt>
<pdfrwt beam="1">  1       21 0.23762473E+00 0.19754539E+03</pdfrwt>
<pdfrwt beam="2">  1       21 0.55147830E-02 0.19754539E+03</pdfrwt>
<totfact> 0.17849016E+04</totfact>
</mgrwt>
</event>
<event>
12    1  0.1019868E-001  0.2084686E+03  0.7546771E-02  0.1143524E+00
         21   -1    0    0  501  502  0.00000000000E+00  0.00000000000E+00  0.25373804156E+04  0.25373804156E+04  0.00000000000E+00 0. -1.
         21   -1    0    0  502  503 -0.00000000000E+00 -0.00000000000E+00 -0.28738715725E+02  0.28738715725E+02  0.00000000000E+00 0. -1.
         -6    2    1    2    0  503  0.10565797491E+03  0.33098421643E+02  0.43484237836E+03  0.48223133578E+03  0.17663537023E+03 0.  0.
        -24    2    3    3    0    0  0.11226811932E+03 -0.58339002647E+01  0.41511398488E+03  0.43783855250E+03  0.82126808075E+02 0.  0.
          6    2    1    2  501    0 -0.10565797491E+03 -0.33098421643E+02  0.20737993215E+04  0.20838877955E+04  0.17229511111E+03 0.  0.
         24    2    5    5    0    0 -0.11931068798E+03 -0.64857876114E+02  0.19280309633E+04  0.19340026269E+04  0.67979269259E+02 0.  0.
          5    1    5    5  501    0  0.13652713068E+02  0.31759454471E+02  0.14576835825E+03  0.14988516868E+03  0.47000000000E+01 0. -1.
        -13    1    6    6    0    0 -0.48505762546E+02 -0.72348834497E+01  0.36115916225E+03  0.36447372061E+03  0.00000000000E+00 0.  1.
         14    1    6    6    0    0 -0.70804925432E+02 -0.57622992664E+02  0.15668718010E+04  0.15695289063E+04  0.00000000000E+00 0. -1.
         -5    1    3    3    0  503 -0.66101444094E+01  0.38932321908E+02  0.19728393476E+02  0.44392783280E+02  0.47000000000E+01 0.  1.
         13    1    4    4    0    0 -0.27152760200E+01  0.40363143412E+01 -0.18453000492E+01  0.52028539858E+01  0.00000000000E+00 0. -1.
        -14    1    4    4    0    0  0.11498339534E+03 -0.98702146059E+01  0.41695928493E+03  0.43263569852E+03  0.00000000000E+00 0.  1.
<mgrwt>
<rscale>  2 0.20754639E+03</rscale>
<asrwt>0</asrwt>
<pdfrwt beam="1">  1       21 0.39036604E+00 0.20846862E+03</pdfrwt>
<pdfrwt beam="2">  1       21 0.44213429E-02 0.20846862E+03</pdfrwt>
<totfact> 0.32400117E+03</totfact>
</mgrwt>
</event>
<event>
11    1  0.1019868E-001  0.2090833E+03  0.7546771E-02  0.1142414E+00
         21   -1    0    0  501  502  0.00000000000E+00  0.00000000000E+00  0.42785449969E+03  0.42785449969E+03  0.00000000000E+00 0. -1.
         21   -1    0    0  502  503 -0.00000000000E+00 -0.00000000000E+00 -0.10330431695E+03  0.10330431695E+03  0.00000000000E+00 0. -1.
         -6    2    1    2    0  503 -0.11767918688E+03  0.55545112428E+01  0.19368527141E+03  0.28500840412E+03  0.17273263282E+03 0.  0.
        -24    2    3    3    0    0 -0.14467394411E+03 -0.21559817854E+02  0.13440077234E+03  0.21429316114E+03  0.80390394035E+02 0.  0.
          6    2    1    2  501    0  0.11767918688E+03 -0.55545112428E+01  0.13086491133E+03  0.24615041252E+03  0.17200336318E+03 0.  0.
          5    1    5    5  501    0  0.48345222660E+02  0.46356409415E+02  0.48762296328E+02  0.82982099221E+02  0.47000000000E+01 0. -1.
        -11    1    5    5    0    0 -0.24767460051E+02  0.10363058143E+02  0.74304553740E+01  0.27857345862E+02  0.00000000000E+00 0.  1.
         12    1    5    5    0    0  0.94101424269E+02 -0.62273978801E+02  0.74672159628E+02  0.13531096744E+03  0.00000000000E+00 0. -1.
         -5    1    3    3    0  503  0.26994757236E+02  0.27114329097E+02  0.59284499068E+02  0.70715242984E+02  0.47000000000E+01 0.  1.
         11    1    4    4    0    0 -0.70442020984E+02 -0.35916323783E+02  0.10874228503E+03  0.13445053064E+03  0.00000000000E+00 0. -1.
        -12    1    4    4    0    0 -0.74231923130E+02  0.14356505929E+02  0.25658487304E+02  0.79842630498E+02  0.00000000000E+00 0.  1.
<mgrwt>
<rscale>  2 0.20893257E+03</rscale>
<asrwt>0</asrwt>
<pdfrwt beam="1">  1       21 0.65823768E-01 0.20908325E+03</pdfrwt>
<pdfrwt beam="2">  1       21 0.15892972E-01 0.20908325E+03</pdfrwt>
<totfact> 0.74309061E+04</totfact>
</mgrwt>
</event>
<event>
12    1  0.1019868E-001  0.2617476E+03  0.7546771E-02  0.1106517E+00
         21   -1    0    0  501  502  0.00000000000E+00  0.00000000000E+00  0.69971656796E+03  0.69971656796E+03  0.00000000000E+00 0.  1.
         21   -1    0    0  502  503 -0.00000000000E+00 -0.00000000000E+00 -0.14994342661E+03  0.14994342661E+03  0.00000000000E+00 0. -1.
         -6    2    1    2    0  503 -0.17563392204E+03 -0.80442485851E+02  0.23094482554E+02  0.26276442626E+03  0.17661687485E+03 0.  0.
        -24    2    3    3    0    0 -0.19979495397E+03 -0.79233363372E+02  0.55826660482E+00  0.22936998855E+03  0.80089515435E+02 0.  0.
          6    2    1    2  501    0  0.17563392204E+03  0.80442485851E+02  0.52667865879E+03  0.58689556831E+03  0.17244631156E+03 0.  0.
         24    2    5    5    0    0  0.18060443192E+03  0.59807514469E+02  0.33236375122E+03  0.39136838013E+03  0.80676181259E+02 0.  0.
          5    1    5    5  501    0 -0.49705098793E+01  0.20634971383E+02  0.19431490758E+03  0.19552718818E+03  0.47000000000E+01 0. -1.
        -11    1    6    6    0    0  0.47720756206E+02  0.23211767984E+02  0.17155100689E+03  0.17957116893E+03  0.00000000000E+00 0.  1.
         12    1    6    6    0    0  0.13288367572E+03  0.36595746485E+02  0.16081274433E+03  0.21179721120E+03  0.00000000000E+00 0. -1.
         -5    1    3    3    0  503  0.24161031925E+02 -0.12091224790E+01  0.22536215949E+02  0.33394437713E+02  0.47000000000E+01 0.  1.
         11    1    4    4    0    0 -0.17960717638E+03 -0.87068494825E+02 -0.18591056231E+02  0.20046268473E+03  0.00000000000E+00 0. -1.
        -12    1    4    4    0    0 -0.20187777588E+02  0.78351314528E+01  0.19149322836E+02  0.28907303816E+02  0.00000000000E+00 0.  1.
<mgrwt>
<rscale>  2 0.26104579E+03</rscale>
<asrwt>0</asrwt>
<pdfrwt beam="1">  1       21 0.10764870E+00 0.26174757E+03</pdfrwt>
<pdfrwt beam="2">  1       21 0.23068220E-01 0.26174757E+03</pdfrwt>
<totfact> 0.11642176E+04</totfact>
</mgrwt>
</event>
<event>
12    1  0.1019868E-001  0.2166231E+03  0.7546771E-02  0.1136588E+00
         21   -1    0    0  503  502  0.00000000000E+00  0.00000000000E+00  0.10197497261E+03  0.10197497261E+03  0.00000000000E+00 0. -1.
         21   -1    0    0  501  503 -0.00000000000E+00 -0.00000000000E+00 -0.71875851224E+03  0.71875851224E+03  0.00000000000E+00 0. -1.
          6    2    1    2  501    0 -0.78581394670E+02 -0.10268537382E+03 -0.55500390811E+03  0.59547296563E+03  0.17274082663E+03 0.  0.
         24    2    3    3    0    0  0.32081338365E+01 -0.10769222953E+03 -0.33902351026E+03  0.36442271604E+03  0.79114265665E+02 0.  0.
         -6    2    1    2    0  502  0.78581394670E+02  0.10268537382E+03 -0.61779631509E+02  0.22526051922E+03  0.17379947372E+03 0.  0.
        -24    2    5    5    0    0 -0.36203088926E+01  0.35745959787E+01 -0.32736767159E+01  0.83750437960E+02  0.83531637876E+02 0.  0.
          5    1    3    3  501    0 -0.81789528507E+02  0.50068557104E+01 -0.21598039785E+03  0.23105024959E+03  0.47000000000E+01 0. -1.
        -11    1    4    4    0    0 -0.29752582379E+02 -0.23449870444E+02 -0.58682878453E+02  0.69848355783E+02  0.00000000000E+00 0.  1.
         12    1    4    4    0    0  0.32960716215E+02 -0.84242359087E+02 -0.28034063181E+03  0.29457436026E+03  0.00000000000E+00 0. -1.
         -5    1    5    5    0  502  0.82201703563E+02  0.99110777843E+02 -0.58505954794E+02  0.14151008126E+03  0.47000000000E+01 0.  1.
         11    1    6    6    0    0  0.36564864863E+02 -0.75705565231E+01  0.12180671307E+02  0.39276856061E+02  0.00000000000E+00 0. -1.
        -12    1    6    6    0    0 -0.40185173756E+02  0.11145152502E+02 -0.15454348023E+02  0.44473581899E+02  0.00000000000E+00 0.  1.
<mgrwt>
<rscale>  2 0.21641070E+03</rscale>
<asrwt>0</asrwt>
<pdfrwt beam="1">  1       21 0.15688458E-01 0.21662313E+03</pdfrwt>
<pdfrwt beam="2">  1       21 0.11057823E+00 0.21662313E+03</pdfrwt>
<totfact> 0.22976457E+04</totfact>
</mgrwt>
</event>
<event>
12    1  0.1019868E-001  0.1868577E+03  0.7546771E-02  0.1166071E+00
         21   -1    0    0  503  502  0.00000000000E+00  0.00000000000E+00  0.24764524756E+03  0.24764524756E+03  0.00000000000E+00 0.  1.
         21   -1    0    0  501  503 -0.00000000000E+00 -0.00000000000E+00 -0.26842165258E+03  0.26842165258E+03  0.00000000000E+00 0.  1.
          6    2    1    2  501    0 -0.57989385283E+02  0.40159774688E+02 -0.19800439676E+03  0.27225271910E+03  0.17303244092E+03 0.  0.
         24    2    3    3    0    0 -0.10043975162E+03  0.54114367367E+02 -0.13140242895E+03  0.19191171852E+03  0.80913539707E+02 0.  0.
         -6    2    1    2    0  502  0.57989385283E+02 -0.40159774688E+02  0.17722799174E+03  0.24381418105E+03  0.15185525186E+03 0.  0.
        -24    2    5    5    0    0  0.90880114497E+02 -0.33827832460E+02  0.16596047895E+03  0.20816392993E+03  0.79911348942E+02 0.  0.
          5    1    3    3  501    0  0.42450366337E+02 -0.13954592679E+02 -0.66601967807E+02  0.80341000583E+02  0.47000000000E+01 0. -1.
        -13    1    4    4    0    0 -0.17708769695E+02 -0.20030038164E+02 -0.39678583951E+02  0.47845511569E+02  0.00000000000E+00 0.  1.
         14    1    4    4    0    0 -0.82730981925E+02  0.74144405532E+02 -0.91723845003E+02  0.14406620695E+03  0.00000000000E+00 0. -1.
         -5    1    5    5    0  502 -0.32890729214E+02 -0.63319422279E+01  0.11267512792E+02  0.35650251123E+02  0.47000000000E+01 0.  1.
         11    1    6    6    0    0  0.12864360403E+02  0.23531206393E+02  0.52860532742E+02  0.59274322979E+02  0.00000000000E+00 0. -1.
        -12    1    6    6    0    0  0.78015754094E+02 -0.57359038853E+02  0.11309994620E+03  0.14888960695E+03  0.00000000000E+00 0.  1.
<mgrwt>
<rscale>  2 0.18180130E+03</rscale>
<asrwt>0</asrwt>
<pdfrwt beam="1">  1       21 0.38099269E-01 0.18685771E+03</pdfrwt>
<pdfrwt beam="2">  1       21 0.41295639E-01 0.18685771E+03</pdfrwt>
<totfact> 0.37627093E+04</totfact>
</mgrwt>
</event>
<event>
12    1  0.1019868E-001  0.1861346E+03  0.7546771E-02  0.1162098E+00
         21   -1    0    0  503  502  0.00000000000E+00  0.00000000000E+00  0.32977440120E+03  0.32977440120E+03  0.00000000000E+00 0. -1.
         21   -1    0    0  501  503 -0.00000000000E+00 -0.00000000000E+00 -0.10746996539E+03  0.10746996539E+03  0.00000000000E+00 0.  1.
          6    2    1    2  501    0  0.42002263927E+02  0.52656839979E+02  0.76882244618E+02  0.20138761753E+03  0.17351991236E+03 0.  0.
         24    2    3    3    0    0  0.88394636979E+02  0.31881578801E+01  0.40708748872E+02  0.12438102962E+03  0.77392907287E+02 0.  0.
         -6    2    1    2    0  502 -0.42002263927E+02 -0.52656839979E+02  0.14542219119E+03  0.23585674906E+03  0.17304294095E+03 0.  0.
        -24    2    5    5    0    0  0.26891362346E+01  0.15705334740E+02  0.12857739394E+03  0.15233103221E+03  0.80116840605E+02 0.  0.
          5    1    3    3  501    0 -0.46392373052E+02  0.49468682099E+02  0.36173495746E+02  0.77006587903E+02  0.47000000000E+01 0. -1.
        -11    1    4    4    0    0  0.35720170122E+02 -0.33569594754E+02  0.34305638493E+02  0.59830803754E+02  0.00000000000E+00 0.  1.
         12    1    4    4    0    0  0.52674466857E+02  0.36757752634E+02  0.64031103792E+01  0.64550225870E+02  0.00000000000E+00 0. -1.
         -5    1    5    5    0  502 -0.44691400162E+02 -0.68362174720E+02  0.16844797258E+02  0.83525716851E+02  0.47000000000E+01 0.  1.
         11    1    6    6    0    0  0.14128292242E+02 -0.22825114287E+02  0.98604013400E+02  0.10219269026E+03  0.00000000000E+00 0. -1.
        -12    1    6    6    0    0 -0.11439156008E+02  0.38530449027E+02  0.29973380536E+02  0.50138341947E+02  0.00000000000E+00 0.  1.
<mgrwt>
<rscale>  2 0.18602337E+03</rscale>
<asrwt>0</asrwt>
<pdfrwt beam="1">  1       21 0.50734523E-01 0.18613461E+03</pdfrwt>
<pdfrwt beam="2">  1       21 0.16533841E-01 0.18613461E+03</pdfrwt>
<totfact> 0.12163326E+05</totfact>
</mgrwt>
</event>
<event>
12    1  0.1019868E-001  0.2237619E+03  0.7546771E-02  0.1131189E+00
         21   -1    0    0  501  502  0.00000000000E+00  0.00000000000E+00  0.29282918059E+03  0.29282918059E+03  0.00000000000E+00 0.  1.
         21   -1    0    0  502  503 -0.00000000000E+00 -0.00000000000E+00 -0.22330809437E+03  0.22330809437E+03  0.00000000000E+00 0. -1.
         -6    2    1    2    0  503  0.13489268970E+03  0.41802892877E+02 -0.90530164432E+02  0.24138168454E+03  0.17356810587E+03 0.  0.
        -24    2    3    3    0    0  0.15344425898E+03  0.40923113294E+02 -0.11383949373E+03  0.21120968482E+03  0.80188894567E+02 0.  0.
          6    2    1    2  501    0 -0.13489268970E+03 -0.41802892877E+02  0.16005125065E+03  0.27475559042E+03  0.17300494803E+03 0.  0.
         24    2    5    5    0    0 -0.12539807378E+02 -0.56720754345E+02  0.59918742018E+02  0.11588023144E+03  0.80395781308E+02 0.  0.
          5    1    5    5  501    0 -0.12235288232E+03  0.14917861468E+02  0.10013250863E+03  0.15887535897E+03  0.47000000000E+01 0. -1.
        -11    1    6    6    0    0 -0.45532503300E+02 -0.20263950704E+02  0.33642109705E+02  0.60130093134E+02  0.00000000000E+00 0.  1.
         12    1    6    6    0    0  0.32992695922E+02 -0.36456803642E+02  0.26276632314E+02  0.55750138311E+02  0.00000000000E+00 0. -1.
         -5    1    3    3    0  503 -0.18551569283E+02  0.87977958355E+00  0.23309329299E+02  0.30171999724E+02  0.47000000000E+01 0.  1.
         13    1    4    4    0    0  0.13085792025E+03  0.33662392229E+02 -0.51658931444E+02  0.14465682542E+03  0.00000000000E+00 0. -1.
        -14    1    4    4    0    0  0.22586338732E+02  0.72607210652E+01 -0.62180562287E+02  0.66552859398E+02  0.00000000000E+00 0.  1.
<mgrwt>
<rscale>  2 0.22365273E+03</rscale>
<asrwt>0</asrwt>
<pdfrwt beam="1">  1       21 0.45050643E-01 0.22376194E+03</pdfrwt>
<pdfrwt beam="2">  1       21 0.34355091E-01 0.22376194E+03</pdfrwt>
<totfact> 0.38003683E+04</totfact>
</mgrwt>
</event>
<event>
12    1  0.1019868E-001  0.1831589E+03  0.7546771E-02  0.1165139E+00
         21   -1    0    0  503  502  0.00000000000E+00  0.00000000000E+00  0.37910102676E+03  0.37910102676E+03  0.00000000000E+00 0. -1.
         21   -1    0    0  501  503 -0.00000000000E+00 -0.00000000000E+00 -0.23760769800E+03  0.23760769800E+03  0.00000000000E+00 0. -1.
          6    2    1    2  501    0  0.50291069829E+02  0.25429496459E+02 -0.17401667814E+03  0.25264402152E+03  0.17427376837E+03 0.  0.
         24    2    3    3    0    0 -0.30033761452E+02 -0.23540337550E+02 -0.81224988855E+02  0.12042257558E+03  0.80298963736E+02 0.  0.
         -6    2    1    2    0  502 -0.50291069829E+02 -0.25429496459E+02  0.31551000691E+03  0.36406470324E+03  0.17268668939E+03 0.  0.
        -24    2    5    5    0    0 -0.44303213111E+02 -0.35463262558E+02  0.33015452159E+03  0.34474935442E+03  0.81422917913E+02 0.  0.
          5    1    3    3  501    0  0.80324831281E+02  0.48969834008E+02 -0.92791689289E+02  0.13222144593E+03  0.47000000000E+01 0. -1.
        -11    1    4    4    0    0 -0.74717784824E+01 -0.44425229445E+02 -0.15121641527E+02  0.47519391067E+02  0.00000000000E+00 0.  1.
         12    1    4    4    0    0 -0.22561982970E+02  0.20884891895E+02 -0.66103347327E+02  0.72903184518E+02  0.00000000000E+00 0. -1.
         -5    1    5    5    0  502 -0.59878567181E+01  0.10033766099E+02 -0.14644514676E+02  0.19315348827E+02  0.47000000000E+01 0.  1.
         13    1    6    6    0    0 -0.49115771807E+02 -0.73739670486E+01  0.89029068470E+02  0.10194562013E+03  0.00000000000E+00 0. -1.
        -14    1    6    6    0    0  0.48125586959E+01 -0.28089295509E+02  0.24112545312E+03  0.24280373429E+03  0.00000000000E+00 0.  1.
<mgrwt>
<rscale>  2 0.18278041E+03</rscale>
<asrwt>0</asrwt>
<pdfrwt beam="1">  1       21 0.58323235E-01 0.18315894E+03</pdfrwt>
<pdfrwt beam="2">  1       21 0.36555030E-01 0.18315894E+03</pdfrwt>
<totfact> 0.19984280E+04</totfact>
</mgrwt>
</event>
<event>
12    1  0.1019868E-001  0.2285380E+03  0.7546771E-02  0.1127840E+00
         21   -1    0    0  503  502  0.00000000000E+00  0.00000000000E+00  0.35437641313E+03  0.35437641313E+03  0.00000000000E+00 0. -1.
         21   -1    0    0  501  503 -0.00000000000E+00 -0.00000000000E+00 -0.15515099918E+03  0.15515099918E+03  0.00000000000E+00 0. -1.
          6    2    1    2  501    0 -0.14745917564E+03  0.14925804297E+02  0.40629890584E+02  0.23212154380E+03  0.17396159051E+03 0.  0.
         24    2    3    3    0    0 -0.42368555590E+02 -0.43813585158E+02 -0.93034123002E+01  0.10170000021E+03  0.80880231298E+02 0.  0.
         -6    2    1    2    0  502  0.14745917564E+03 -0.14925804297E+02  0.15859552337E+03  0.27740586851E+03  0.17272662718E+03 0.  0.
        -24    2    5    5    0    0  0.12996179202E+03  0.40470888998E+02  0.11481850786E+03  0.20451232182E+03  0.10056858252E+03 0.  0.
          5    1    3    3  501    0 -0.10509062005E+03  0.58739389455E+02  0.49933302884E+02  0.13042154359E+03  0.47000000000E+01 0. -1.
        -11    1    4    4    0    0 -0.46933609951E+02 -0.59685767452E+02  0.96739135249E+01  0.76542401206E+02  0.00000000000E+00 0.  1.
         12    1    4    4    0    0  0.45650543617E+01  0.15872182294E+02 -0.18977325825E+02  0.25157599003E+02  0.00000000000E+00 0. -1.
         -5    1    5    5    0  502  0.17497383621E+02 -0.55396693295E+02  0.43777015514E+02  0.72893546689E+02  0.47000000000E+01 0.  1.
         13    1    6    6    0    0  0.31005578128E+02 -0.31589067325E+02  0.15574384856E+02  0.46923091471E+02  0.00000000000E+00 0. -1.
        -14    1    6    6    0    0  0.98956213888E+02  0.72059956323E+02  0.99244123004E+02  0.15758923035E+03  0.00000000000E+00 0.  1.
<mgrwt>
<rscale>  2 0.22830299E+03</rscale>
<asrwt>0</asrwt>
<pdfrwt beam="1">  1       21 0.54519448E-01 0.22853801E+03</pdfrwt>
<pdfrwt beam="2">  1       21 0.23869385E-01 0.22853801E+03</pdfrwt>
<totfact> 0.51698469E+04</totfact>
</mgrwt>
</event>
<event>
12    1  0.1019868E-001  0.2451920E+03  0.7546771E-02  0.1116872E+00
         21   -1    0    0  501  502  0.00000000000E+00  0.00000000000E+00  0.12132375737E+04  0.12132375737E+04  0.00000000000E+00 0.  1.
         21   -1    0    0  502  503 -0.00000000000E+00 -0.00000000000E+00 -0.49056380218E+02  0.49056380218E+02  0.00000000000E+00 0.  1.
         -6    2    1    2    0  503  0.63180445865E+02  0.16107441296E+03  0.54862172036E+03  0.59969862750E+03  0.16945771311E+03 0.  0.
        -24    2    3    3    0    0  0.51888126007E+02  0.19205824810E+02  0.26958353778E+03  0.28642780197E+03  0.79400003622E+02 0.  0.
          6    2    1    2  501    0 -0.63180445865E+02 -0.16107441296E+03  0.61555947313E+03  0.66259532642E+03  0.17373072952E+03 0.  0.
         24    2    5    5    0    0  0.12775965660E+02 -0.72927591807E+02  0.16909237783E+03  0.20119073638E+03  0.80023879036E+02 0.  0.
          5    1    5    5  501    0 -0.75956411526E+02 -0.88146821154E+02  0.44646709530E+03  0.46140459004E+03  0.47000000000E+01 0. -1.
        -13    1    6    6    0    0  0.19676072310E+02 -0.37367091747E+02  0.15764152371E+03  0.16320017575E+03  0.00000000000E+00 0.  1.
         14    1    6    6    0    0 -0.69001066503E+01 -0.35560500060E+02  0.11450854123E+02  0.37990560623E+02  0.00000000000E+00 0. -1.
         -5    1    3    3    0  503  0.11292319858E+02  0.14186858815E+03  0.27903818258E+03  0.31327082553E+03  0.47000000000E+01 0.  1.
         13    1    4    4    0    0  0.73104921326E+02  0.11161819745E+02  0.19971507685E+03  0.21296719857E+03  0.00000000000E+00 0. -1.
        -14    1    4    4    0    0 -0.21216795319E+02  0.80440050652E+01  0.69868460922E+02  0.73460603405E+02  0.00000000000E+00 0.  1.
<mgrwt>
<rscale>  2 0.24443626E+03</rscale>
<asrwt>0</asrwt>
<pdfrwt beam="1">  1       21 0.18665191E+00 0.24519197E+03</pdfrwt>
<pdfrwt beam="2">  1       21 0.75471363E-02 0.24519197E+03</pdfrwt>
<totfact> 0.21046717E+04</totfact>
</mgrwt>
</event>
<event>
12    1  0.1019868E-001  0.2083389E+03  0.7546771E-02  0.1143736E+00
         21   -1    0    0  501  502  0.00000000000E+00  0.00000000000E+00  0.25777437882E+03  0.25777437882E+03  0.00000000000E+00 0. -1.
         21   -1    0    0  502  503 -0.00000000000E+00 -0.00000000000E+00 -0.16852464824E+03  0.16852464824E+03  0.00000000000E+00 0.  1.
         -6    2    1    2    0  503  0.11369157853E+03 -0.90001145020E+01  0.14301880480E+02  0.20882916828E+03  0.17435108446E+03 0.  0.
        -24    2    3    3    0    0  0.45261399256E+02 -0.11042520288E+02  0.73143229339E+02  0.11843417289E+03  0.80660955814E+02 0.  0.
          6    2    1    2  501    0 -0.11369157853E+03  0.90001145020E+01  0.74947850096E+02  0.21746985878E+03  0.16931976304E+03 0.  0.
         24    2    5    5    0    0 -0.83165946973E+02 -0.14335137423E+01  0.11687188367E+03  0.16436252057E+03  0.80233230507E+02 0.  0.
          5    1    5    5  501    0 -0.30525631555E+02  0.10433628244E+02 -0.41924033578E+02  0.53107338209E+02  0.47000000000E+01 0. -1.
        -13    1    6    6    0    0 -0.74166282994E+02 -0.25145449530E+02  0.50179191047E+02  0.93010119769E+02  0.00000000000E+00 0.  1.
         14    1    6    6    0    0 -0.89996639784E+01  0.23711935788E+02  0.66692692627E+02  0.71352400803E+02  0.00000000000E+00 0. -1.
         -5    1    3    3    0  503  0.68430179272E+02  0.20424057860E+01 -0.58841348858E+02  0.90394995393E+02  0.47000000000E+01 0.  1.
         13    1    4    4    0    0 -0.19984754896E+02  0.79621589763E+01  0.33340048756E+02  0.39678019795E+02  0.00000000000E+00 0. -1.
        -14    1    4    4    0    0  0.65246154153E+02 -0.19004679264E+02  0.39803180583E+02  0.78756153094E+02  0.00000000000E+00 0.  1.
<mgrwt>
<rscale>  2 0.20728286E+03</rscale>
<asrwt>0</asrwt>
<pdfrwt beam="1">  1       21 0.39657597E-01 0.20833885E+03</pdfrwt>
<pdfrwt beam="2">  1       21 0.25926869E-01 0.20833885E+03</pdfrwt>
<totfact> 0.86023572E+04</totfact>
</mgrwt>
</event>
<event>
12    1  0.1019868E-001  0.2158212E+03  0.7546771E-02  0.1137343E+00
         21   -1    0    0  503  502  0.00000000000E+00  0.00000000000E+00  0.94240829850E+03  0.94240829850E+03  0.00000000000E+00 0.  1.
         21   -1    0    0  501  503 -0.00000000000E+00 -0.00000000000E+00 -0.49821290361E+02  0.49821290361E+02  0.00000000000E+00 0.  1.
          6    2    1    2  501    0  0.11880888491E+03  0.38987347233E+02  0.38663216234E+03  0.44279027130E+03  0.17590688169E+03 0.  0.
         24    2    3    3    0    0  0.11327962394E+03  0.15112765121E+02  0.39302807773E+03  0.41703049391E+03  0.79891764899E+02 0.  0.
         -6    2    1    2    0  502 -0.11880888491E+03 -0.38987347233E+02  0.50595484579E+03  0.54943931756E+03  0.17394738664E+03 0.  0.
        -24    2    5    5    0    0 -0.40939542839E+02 -0.71629931417E+02  0.38369009332E+03  0.40077885733E+03  0.81232453677E+02 0.  0.
          5    1    3    3  501    0  0.55292609655E+01  0.23874582112E+02 -0.63959153822E+01  0.25759777394E+02  0.47000000000E+01 0. -1.
        -11    1    4    4    0    0  0.37608415574E+02 -0.24489509189E+02  0.72053248040E+02  0.84886980954E+02  0.00000000000E+00 0.  1.
         12    1    4    4    0    0  0.75671208369E+02  0.39602274310E+02  0.32097482969E+03  0.33214351296E+03  0.00000000000E+00 0. -1.
         -5    1    5    5    0  502 -0.77869342069E+02  0.32642584184E+02  0.12226475247E+03  0.14866046022E+03  0.47000000000E+01 0.  1.
         11    1    6    6    0    0 -0.64078612250E+02 -0.64975999706E+02  0.28838233752E+03  0.30247697710E+03  0.00000000000E+00 0. -1.
        -12    1    6    6    0    0  0.23139069411E+02 -0.66539317104E+01  0.95307755806E+02  0.98301880233E+02  0.00000000000E+00 0.  1.
<mgrwt>
<rscale>  2 0.21542158E+03</rscale>
<asrwt>0</asrwt>
<pdfrwt beam="1">  1       21 0.14498588E+00 0.21582121E+03</pdfrwt>
<pdfrwt beam="2">  1       21 0.76648146E-02 0.21582121E+03</pdfrwt>
<totfact> 0.41685887E+04</totfact>
</mgrwt>
</event>
<event>
12    1  0.1019868E-001  0.1985649E+03  0.7546771E-02  0.1151270E+00
         21   -1    0    0  501  502  0.00000000000E+00  0.00000000000E+00  0.27505681653E+03  0.27505681653E+03  0.00000000000E+00 0. -1.
         21   -1    0    0  502  503 -0.00000000000E+00 -0.00000000000E+00 -0.14857074035E+03  0.14857074035E+03  0.00000000000E+00 0. -1.
         -6    2    1    2    0  503 -0.92148960032E+02 -0.74499139700E+01  0.19454490291E+02  0.19805320243E+03  0.17406798024E+03 0.  0.
        -24    2    3    3    0    0 -0.29980037892E+02  0.40131867924E+02  0.57238982223E+02  0.11099713613E+03  0.80837452017E+02 0.  0.
          6    2    1    2  501    0  0.92148960032E+02  0.74499139700E+01  0.10703158589E+03  0.22557435445E+03  0.17573018225E+03 0.  0.
         24    2    5    5    0    0  0.57783648093E+02  0.68973763795E+02  0.94368048919E+02  0.15382051183E+03  0.81603254370E+02 0.  0.
          5    1    5    5  501    0  0.34365311939E+02 -0.61523849825E+02  0.12663536971E+02  0.71753842619E+02  0.47000000000E+01 0. -1.
        -13    1    6    6    0    0  0.60504832315E+02  0.69163721203E+02  0.41411385778E+02  0.10079364036E+03  0.00000000000E+00 0.  1.
         14    1    6    6    0    0 -0.27211842214E+01 -0.18995740752E+00  0.52956663141E+02  0.53026871474E+02  0.00000000000E+00 0. -1.
         -5    1    3    3    0  503 -0.62168922140E+02 -0.47581781894E+02 -0.37784491932E+02  0.87056066295E+02  0.47000000000E+01 0.  1.
         11    1    4    4    0    0 -0.20679902247E+02  0.41509337770E+02 -0.62687915375E+01  0.46797235243E+02  0.00000000000E+00 0. -1.
        -12    1    4    4    0    0 -0.93001356455E+01 -0.13774698464E+01  0.63507773760E+02  0.64199900889E+02  0.00000000000E+00 0.  1.
<mgrwt>
<rscale>  2 0.19819652E+03</rscale>
<asrwt>0</asrwt>
<pdfrwt beam="1">  1       21 0.42316433E-01 0.19856492E+03</pdfrwt>
<pdfrwt beam="2">  1       21 0.22857037E-01 0.19856492E+03</pdfrwt>
<totfact> 0.96272233E+04</totfact>
</mgrwt>
</event>
<event>
12    1  0.1019868E-001  0.1808615E+03  0.7546771E-02  0.1167629E+00
         21   -1    0    0  501  502  0.00000000000E+00  0.00000000000E+00  0.32170186464E+03  0.32170186464E+03  0.00000000000E+00 0. -1.
         21   -1    0    0  502  503 -0.00000000000E+00 -0.00000000000E+00 -0.28887344437E+03  0.28887344437E+03  0.00000000000E+00 0. -1.
         -6    2    1    2    0  503 -0.50955172290E+02  0.51001244858E+01 -0.23037397935E+03  0.29122225967E+03  0.17063350584E+03 0.  0.
        -24    2    3    3    0    0  0.11355505746E+02 -0.12617869122E+02 -0.20666522701E+03  0.22207934368E+03  0.79501954061E+02 0.  0.
          6    2    1    2  501    0  0.50955172290E+02 -0.51001244858E+01  0.26320239962E+03  0.31935304933E+03  0.17346015709E+03 0.  0.
         24    2    5    5    0    0 -0.14765320522E+02  0.10022245493E+02  0.22944922432E+03  0.24379356223E+03  0.80435653456E+02 0.  0.
          5    1    5    5  501    0  0.65720492812E+02 -0.15122369979E+02  0.33753175304E+02  0.75559487109E+02  0.47000000000E+01 0. -1.
        -13    1    6    6    0    0 -0.46682196925E+02  0.74610691220E+01  0.10263194497E+03  0.11299650964E+03  0.00000000000E+00 0.  1.
         14    1    6    6    0    0  0.31916876403E+02  0.25611763707E+01  0.12681727935E+03  0.13079705259E+03  0.00000000000E+00 0. -1.
         -5    1    3    3    0  503 -0.62310678036E+02  0.17717993608E+02 -0.23708752337E+02  0.69142915994E+02  0.47000000000E+01 0.  1.
         11    1    4    4    0    0 -0.31537110751E+02  0.95707940587E+01 -0.87466447248E+02  0.93469614569E+02  0.00000000000E+00 0. -1.
        -12    1    4    4    0    0  0.42892616497E+02 -0.22188663181E+02 -0.11919877977E+03  0.12860972911E+03  0.00000000000E+00 0.  1.
<mgrwt>
<rscale>  2 0.18018032E+03</rscale>
<asrwt>0</asrwt>
<pdfrwt beam="1">  1       21 0.49492595E-01 0.18086146E+03</pdfrwt>
<pdfrwt beam="2">  1       21 0.44442068E-01 0.18086146E+03</pdfrwt>
<totfact> 0.19057111E+04</totfact>
</mgrwt>
</event>
<event>
12    1  0.1019868E-001  0.1933522E+03  0.7546771E-02  0.1155655E+00
         21   -1    0    0  503  502  0.00000000000E+00  0.00000000000E+00  0.50726566860E+03  0.50726566860E+03  0.00000000000E+00 0. -1.
         21   -1    0    0  501  503 -0.00000000000E+00 -0.00000000000E+00 -0.11714191843E+03  0.11714191843E+03  0.00000000000E+00 0. -1.
          6    2    1    2  501    0 -0.54003274329E+02 -0.65284616816E+02  0.39847761510E+01  0.19256457431E+03  0.17287799746E+03 0.  0.
         24    2    3    3    0    0  0.25120977608E+02 -0.68211124607E+02  0.23157544433E+02  0.11096251100E+03  0.80576584361E+02 0.  0.
         -6    2    1    2    0  502  0.54003274329E+02  0.65284616816E+02  0.38613897402E+03  0.43184301272E+03  0.17380059134E+03 0.  0.
        -24    2    5    5    0    0 -0.16907212697E+02 -0.95087025479E+01  0.18672070990E+03  0.20731668497E+03  0.87973377192E+02 0.  0.
          5    1    3    3  501    0 -0.79124251937E+02  0.29265077911E+01 -0.19172768282E+02  0.81602063308E+02  0.47000000000E+01 0. -1.
        -13    1    4    4    0    0  0.10361685141E+02 -0.49593321176E+02 -0.25570304739E+02  0.56751233543E+02  0.00000000000E+00 0.  1.
         14    1    4    4    0    0  0.14759292467E+02 -0.18617803431E+02  0.48727849171E+02  0.54211277458E+02  0.00000000000E+00 0. -1.
         -5    1    5    5    0  502  0.70910487027E+02  0.74793319364E+02  0.19941826411E+03  0.22452632775E+03  0.47000000000E+01 0.  1.
         11    1    6    6    0    0  0.34214188237E+02  0.26785252008E+01  0.48264982056E+02  0.59222408486E+02  0.00000000000E+00 0. -1.
        -12    1    6    6    0    0 -0.51121400934E+02 -0.12187227749E+02  0.13845572785E+03  0.14809427648E+03  0.00000000000E+00 0.  1.
<mgrwt>
<rscale>  2 0.19314467E+03</rscale>
<asrwt>0</asrwt>
<pdfrwt beam="1">  1       21 0.78040871E-01 0.19335222E+03</pdfrwt>
<pdfrwt beam="2">  1       21 0.18021834E-01 0.19335222E+03</pdfrwt>
<totfact> 0.40730781E+04</totfact>
</mgrwt>
</event>
<event>
12    1  0.1019868E-001  0.1837983E+03  0.7546771E-02  0.1164223E+00
         21   -1    0    0  501  502  0.00000000000E+00  0.00000000000E+00  0.79441933510E+03  0.79441933510E+03  0.00000000000E+00 0.  1.
         21   -1    0    0  502  503 -0.00000000000E+00 -0.00000000000E+00 -0.12106508559E+03  0.12106508559E+03  0.00000000000E+00 0. -1.
         -6    2    1    2    0  503 -0.39720414361E+02 -0.47094046115E+02 -0.32055547265E+02  0.18657272494E+03  0.17316542116E+03 0.  0.
        -24    2    3    3    0    0  0.36385448308E+02 -0.25474676227E+02  0.19093816871E+02  0.92244325512E+02  0.78559415534E+02 0.  0.
          6    2    1    2  501    0  0.39720414361E+02  0.47094046115E+02  0.70540979677E+03  0.72891169575E+03  0.17295582768E+03 0.  0.
         24    2    5    5    0    0  0.72278269248E+02 -0.18978013138E+02  0.39380279258E+03  0.40868279951E+03  0.79728777637E+02 0.  0.
          5    1    5    5  501    0 -0.32557854887E+02  0.66072059252E+02  0.31160700418E+03  0.32022889624E+03  0.47000000000E+01 0. -1.
        -13    1    6    6    0    0  0.27272213243E+02 -0.10480261954E+02  0.32324628329E+03  0.32456396776E+03  0.00000000000E+00 0.  1.
         14    1    6    6    0    0  0.45006056005E+02 -0.84977511836E+01  0.70556509295E+02  0.84118831757E+02  0.00000000000E+00 0. -1.
         -5    1    3    3    0  503 -0.76105862669E+02 -0.21619369888E+02 -0.51149364136E+02  0.94328399427E+02  0.47000000000E+01 0.  1.
         13    1    4    4    0    0 -0.64450089033E+01 -0.19952244033E+02 -0.23564842081E+02  0.31542542129E+02  0.00000000000E+00 0. -1.
        -14    1    4    4    0    0  0.42830457212E+02 -0.55224321939E+01  0.42658658952E+02  0.60701783383E+02  0.00000000000E+00 0.  1.
<mgrwt>
<rscale>  2 0.18374894E+03</rscale>
<asrwt>0</asrwt>
<pdfrwt beam="1">  1       21 0.12221836E+00 0.18379832E+03</pdfrwt>
<pdfrwt beam="2">  1       21 0.18625398E-01 0.18379832E+03</pdfrwt>
<totfact> 0.13379962E+04</totfact>
</mgrwt>
</event>
<event>
12    1  0.1019868E-001  0.1954744E+03  0.7546771E-02  0.1154982E+00
         21   -1    0    0  503  502  0.00000000000E+00  0.00000000000E+00  0.43126821008E+03  0.43126821008E+03  0.00000000000E+00 0. -1.
         21   -1    0    0  501  503 -0.00000000000E+00 -0.00000000000E+00 -0.99322220316E+02  0.99322220316E+02  0.00000000000E+00 0. -1.
          6    2    1    2  501    0  0.73854809896E+02 -0.51042769139E+02  0.70468998269E+02  0.20778861816E+03  0.17363851212E+03 0.  0.
         24    2    3    3    0    0 -0.22072942828E+02  0.58674115990E+01  0.41668341816E+02  0.92495642542E+02  0.79357115973E+02 0.  0.
         -6    2    1    2    0  502 -0.73854809896E+02  0.51042769139E+02  0.26147699149E+03  0.32280181223E+03  0.16664601908E+03 0.  0.
        -24    2    5    5    0    0 -0.33693274463E+02 -0.31170287633E+02  0.10155934765E+03  0.13849858805E+03  0.82223684069E+02 0.  0.
          5    1    3    3  501    0  0.95927752724E+02 -0.56910180738E+02  0.28800656453E+02  0.11529297562E+03  0.47000000000E+01 0. -1.
        -11    1    4    4    0    0 -0.30291162890E+02 -0.24172442969E+02 -0.20621663204E+01  0.38808685603E+02  0.00000000000E+00 0.  1.
         12    1    4    4    0    0  0.82182200618E+01  0.30039854568E+02  0.43730508136E+02  0.53686956938E+02  0.00000000000E+00 0. -1.
         -5    1    5    5    0  502 -0.40161535433E+02  0.82213056772E+02  0.15991764384E+03  0.18430322419E+03  0.47000000000E+01 0.  1.
         11    1    6    6    0    0 -0.23410492528E+02  0.26631299622E+02  0.38460231660E+02  0.52311248306E+02  0.00000000000E+00 0. -1.
        -12    1    6    6    0    0 -0.10282781935E+02 -0.57801587256E+02  0.63099115986E+02  0.86187339742E+02  0.00000000000E+00 0.  1.
<mgrwt>
<rscale>  2 0.19390965E+03</rscale>
<asrwt>0</asrwt>
<pdfrwt beam="1">  1       21 0.66348955E-01 0.19547437E+03</pdfrwt>
<pdfrwt beam="2">  1       21 0.15280342E-01 0.19547437E+03</pdfrwt>
<totfact> 0.78945969E+04</totfact>
</mgrwt>
</event>
<event>
12    1  0.1019868E-001  0.2052608E+03  0.7546771E-02  0.1145534E+00
         21   -1    0    0  501  502  0.00000000000E+00  0.00000000000E+00  0.97962486956E+02  0.97962486956E+02  0.00000000000E+00 0.  1.
         21   -1    0    0  502  503 -0.00000000000E+00 -0.00000000000E+00 -0.16073845413E+04  0.16073845413E+04  0.00000000000E+00 0.  1.
         -6    2    1    2    0  503  0.10569285015E+03 -0.25195391580E+02 -0.14845708947E+04  0.14985873396E+04  0.17322669132E+03 0.  0.
        -24    2    3    3    0    0 -0.24022300305E+02  0.22568798356E+02 -0.43464198967E+03  0.43958770136E+03  0.56896980882E+02 0.  0.
          6    2    1    2  501    0 -0.10569285015E+03  0.25195391580E+02 -0.24851159638E+02  0.20675968868E+03  0.17414420002E+03 0.  0.
         24    2    5    5    0    0 -0.23024744083E+02  0.46317224101E+02 -0.60898554948E+02  0.11401459567E+03  0.81334309748E+02 0.  0.
          5    1    5    5  501    0 -0.82668106067E+02 -0.21121832521E+02  0.36047395309E+02  0.92745093015E+02  0.47000000000E+01 0. -1.
        -11    1    6    6    0    0 -0.27075168304E+02 -0.13067879544E+02 -0.17717571953E+01  0.30115998042E+02  0.00000000000E+00 0.  1.
         12    1    6    6    0    0  0.40504242210E+01  0.59385103645E+02 -0.59126797753E+02  0.83898597627E+02  0.00000000000E+00 0. -1.
         -5    1    3    3    0  503  0.12971515046E+03 -0.47764189936E+02 -0.10499289050E+04  0.10589996382E+04  0.47000000000E+01 0.  1.
         13    1    4    4    0    0  0.90742053799E+01 -0.37969180269E+01 -0.15787016689E+02  0.18600744225E+02  0.00000000000E+00 0. -1.
        -14    1    4    4    0    0 -0.33096505685E+02  0.26365716383E+02 -0.41885497298E+03  0.42098695714E+03  0.00000000000E+00 0.  1.
<mgrwt>
<rscale>  2 0.20506604E+03</rscale>
<asrwt>0</asrwt>
<pdfrwt beam="1">  1       21 0.15071154E-01 0.20526078E+03</pdfrwt>
<pdfrwt beam="2">  1       21 0.24728990E+00 0.20526078E+03</pdfrwt>
<totfact> 0.26464573E+03</totfact>
</mgrwt>
</event>
<event>
12    1  0.1019868E-001  0.2075391E+03  0.7546771E-02  0.1143653E+00
         21   -1    0    0  501  502  0.00000000000E+00  0.00000000000E+00  0.19081290711E+03  0.19081290711E+03  0.00000000000E+00 0.  1.
         21   -1    0    0  502  503 -0.00000000000E+00 -0.00000000000E+00 -0.22626241127E+03  0.22626241127E+03  0.00000000000E+00 0.  1.
         -6    2    1    2    0  503 -0.11369847897E+03 -0.52682278530E+01 -0.32851376864E+02  0.20951993357E+03  0.17281287931E+03 0.  0.
        -24    2    3    3    0    0 -0.13312715787E+03  0.12599089777E+02  0.12297620379E+02  0.15701053865E+03  0.81360313127E+02 0.  0.
          6    2    1    2  501    0  0.11369847897E+03  0.52682278530E+01 -0.25981272913E+01  0.20755538482E+03  0.17354362321E+03 0.  0.
         24    2    5    5    0    0  0.88545895329E+02 -0.36914667359E+02  0.51448793513E+02  0.13437609293E+03  0.78783803865E+02 0.  0.
          5    1    5    5  501    0  0.25152583643E+02  0.42182895212E+02 -0.54046920804E+02  0.73179291885E+02  0.47000000000E+01 0. -1.
        -13    1    6    6    0    0  0.91847469946E+02 -0.37210710310E+02  0.17947261243E+02  0.10071096705E+03  0.00000000000E+00 0.  1.
         14    1    6    6    0    0 -0.33015746169E+01  0.29604295115E+00  0.33501532270E+02  0.33665125884E+02  0.00000000000E+00 0. -1.
         -5    1    3    3    0  503  0.19428678901E+02 -0.17867317630E+02 -0.45148997243E+02  0.52509394923E+02  0.47000000000E+01 0.  1.
         11    1    4    4    0    0 -0.55690184646E+02 -0.34854473739E+02  0.60326108087E+01  0.65974414728E+02  0.00000000000E+00 0. -1.
        -12    1    4    4    0    0 -0.77436973228E+02  0.47453563516E+02  0.62650095703E+01  0.91036123918E+02  0.00000000000E+00 0.  1.
<mgrwt>
<rscale>  2 0.20738629E+03</rscale>
<asrwt>0</asrwt>
<pdfrwt beam="1">  1       21 0.29355832E-01 0.20753912E+03</pdfrwt>
<pdfrwt beam="2">  1       21 0.34809601E-01 0.20753912E+03</pdfrwt>
<totfact> 0.87882594E+04</totfact>
</mgrwt>
</event>
<event>
12    1  0.1019868E-001  0.2197702E+03  0.7546771E-02  0.1134106E+00
         21   -1    0    0  501  502  0.00000000000E+00  0.00000000000E+00  0.88675540614E+03  0.88675540614E+03  0.00000000000E+00 0. -1.
         21   -1    0    0  502  503 -0.00000000000E+00 -0.00000000000E+00 -0.70542562837E+02  0.70542562837E+02  0.00000000000E+00 0.  1.
         -6    2    1    2    0  503  0.91102731576E+02 -0.99809918405E+02  0.63688881110E+03  0.67365022263E+03  0.17296108588E+03 0.  0.
        -24    2    3    3    0    0  0.63590431551E+02  0.15736440893E+02  0.25909744903E+03  0.27759935335E+03  0.75090174658E+02 0.  0.
          6    2    1    2  501    0 -0.91102731576E+02  0.99809918405E+02  0.17932403220E+03  0.28364774635E+03  0.17331245763E+03 0.  0.
         24    2    5    5    0    0 -0.37994696898E+02  0.18370615566E+02  0.16047698658E+03  0.18450076191E+03  0.80663445339E+02 0.  0.
          5    1    5    5  501    0 -0.53108034678E+02  0.81439302839E+02  0.18847045616E+02  0.99146984436E+02  0.47000000000E+01 0. -1.
        -11    1    6    6    0    0 -0.30342571933E+02 -0.29622761118E+02  0.72336634685E+02  0.83849677193E+02  0.00000000000E+00 0.  1.
         12    1    6    6    0    0 -0.76521249652E+01  0.47993376684E+02  0.88140351900E+02  0.10065108472E+03  0.00000000000E+00 0. -1.
         -5    1    3    3    0  503  0.27512300025E+02 -0.11554635930E+03  0.37779136207E+03  0.39605086927E+03  0.47000000000E+01 0.  1.
         13    1    4    4    0    0  0.54145097429E+02 -0.21089365101E+02  0.19057631169E+03  0.19923800710E+03  0.00000000000E+00 0. -1.
        -14    1    4    4    0    0  0.94453341219E+01  0.36825805995E+02  0.68521137340E+02  0.78361346251E+02  0.00000000000E+00 0.  1.
<mgrwt>
<rscale>  2 0.21970091E+03</rscale>
<asrwt>0</asrwt>
<pdfrwt beam="1">  1       21 0.13642390E+00 0.21977019E+03</pdfrwt>
<pdfrwt beam="2">  1       21 0.10852703E-01 0.21977019E+03</pdfrwt>
<totfact> 0.26411013E+04</totfact>
</mgrwt>
</event>
<event>
12    1  0.1019868E-001  0.2053753E+03  0.7546771E-02  0.1145292E+00
         21   -1    0    0  501  502  0.00000000000E+00  0.00000000000E+00  0.48676477235E+03  0.48676477235E+03  0.00000000000E+00 0. -1.
         21   -1    0    0  502  503 -0.00000000000E+00 -0.00000000000E+00 -0.10193513350E+03  0.10193513350E+03  0.00000000000E+00 0. -1.
         -6    2    1    2    0  503  0.10967664845E+03  0.20969056646E+02  0.78376364695E+02  0.21982238641E+03  0.17236692975E+03 0.  0.
        -24    2    3    3    0    0  0.50182181966E+02  0.63302841877E+01 -0.26207983558E+02  0.98521681133E+02  0.80382456832E+02 0.  0.
          6    2    1    2  501    0 -0.10967664845E+03 -0.20969056646E+02  0.30645327416E+03  0.36887751944E+03  0.17230306599E+03 0.  0.
         24    2    5    5    0    0 -0.90168772833E+02  0.28828439000E+02  0.14284847775E+03  0.19668876489E+03  0.96536501642E+02 0.  0.
          5    1    5    5  501    0 -0.19507875616E+02 -0.49797495647E+02  0.16360479641E+03  0.17218875454E+03  0.47000000000E+01 0. -1.
        -13    1    6    6    0    0 -0.56747556461E+02 -0.32036226038E+02  0.59900869750E+02  0.88513948843E+02  0.00000000000E+00 0.  1.
         14    1    6    6    0    0 -0.33421216372E+02  0.60864665038E+02  0.82947608002E+02  0.10817481605E+03  0.00000000000E+00 0. -1.
         -5    1    3    3    0  503  0.59494466483E+02  0.14638772459E+02  0.10458434825E+03  0.12130070528E+03  0.47000000000E+01 0.  1.
         11    1    4    4    0    0  0.64571798425E+02 -0.12780560633E+02 -0.41066247194E+01  0.65952439291E+02  0.00000000000E+00 0. -1.
        -12    1    4    4    0    0 -0.14389616459E+02  0.19110844821E+02 -0.22101358838E+02  0.32569241841E+02  0.00000000000E+00 0.  1.
<mgrwt>
<rscale>  2 0.20536193E+03</rscale>
<asrwt>0</asrwt>
<pdfrwt beam="1">  1       21 0.74886887E-01 0.20537533E+03</pdfrwt>
<pdfrwt beam="2">  1       21 0.15682328E-01 0.20537533E+03</pdfrwt>
<totfact> 0.57351709E+04</totfact>
</mgrwt>
</event>
<event>
12    1  0.1019868E-001  0.1878550E+03  0.7546771E-02  0.1160455E+00
         21   -1    0    0  503  502  0.00000000000E+00  0.00000000000E+00  0.66145588174E+02  0.66145588174E+02  0.00000000000E+00 0.  1.
         21   -1    0    0  501  503 -0.00000000000E+00 -0.00000000000E+00 -0.54703361657E+03  0.54703361657E+03  0.00000000000E+00 0.  1.
          6    2    1    2  501    0  0.27545520030E+01  0.72220557909E+02 -0.19138257908E+03  0.26817306478E+03  0.17339580318E+03 0.  0.
         24    2    3    3    0    0 -0.14707291536E+02  0.11154587499E+02 -0.18680899079E+03  0.20432185938E+03  0.80678955943E+02 0.  0.
         -6    2    1    2    0  502 -0.27545520030E+01 -0.72220557909E+02 -0.28950544932E+03  0.34500613996E+03  0.17318324077E+03 0.  0.
        -24    2    5    5    0    0 -0.55882094863E+02 -0.87663229630E+02 -0.19229225497E+03  0.23305299318E+03  0.80806781588E+02 0.  0.
          5    1    3    3  501    0  0.17461843539E+02  0.61065970410E+02 -0.45735882859E+01  0.63851205405E+02  0.47000000000E+01 0. -1.
        -13    1    4    4    0    0 -0.19930995614E+02  0.17199039464E+02 -0.11328878393E+02  0.28659990061E+02  0.00000000000E+00 0.  1.
         14    1    4    4    0    0  0.52237040785E+01 -0.60444519655E+01 -0.17548011240E+03  0.17566186932E+03  0.00000000000E+00 0. -1.
         -5    1    5    5    0  502  0.53127542860E+02  0.15442671722E+02 -0.97213194347E+02  0.11195314679E+03  0.47000000000E+01 0.  1.
         13    1    6    6    0    0  0.69081267612E+01 -0.11204919407E+02  0.35543436536E+01  0.13634727466E+02  0.00000000000E+00 0. -1.
        -14    1    6    6    0    0 -0.62790221625E+02 -0.76458310223E+02 -0.19584659863E+03  0.21941826571E+03  0.00000000000E+00 0.  1.
<mgrwt>
<rscale>  2 0.18780594E+03</rscale>
<asrwt>0</asrwt>
<pdfrwt beam="1">  1       21 0.10176244E-01 0.18785500E+03</pdfrwt>
<pdfrwt beam="2">  1       21 0.84159020E-01 0.18785500E+03</pdfrwt>
<totfact> 0.96628228E+04</totfact>
</mgrwt>
</event>
<event>
12    1  0.1019868E-001  0.2261101E+03  0.7546771E-02  0.1129411E+00
         21   -1    0    0  503  502  0.00000000000E+00  0.00000000000E+00  0.17835461757E+03  0.17835461757E+03  0.00000000000E+00 0. -1.
         21   -1    0    0  501  503 -0.00000000000E+00 -0.00000000000E+00 -0.49723175534E+03  0.49723175534E+03  0.00000000000E+00 0. -1.
          6    2    1    2  501    0 -0.14461424280E+03  0.30190273511E+02  0.60394564563E+02  0.23403690246E+03  0.17117545517E+03 0.  0.
         24    2    3    3    0    0 -0.15234389327E+03 -0.15973045636E+02  0.25358612596E+02  0.17538191580E+03  0.81559531343E+02 0.  0.
         -6    2    1    2    0  502  0.14461424280E+03 -0.30190273511E+02 -0.37927170233E+03  0.44154947044E+03  0.17115542302E+03 0.  0.
        -24    2    5    5    0    0  0.15869479941E+03 -0.11779147232E+02 -0.37803325699E+03  0.41786708475E+03  0.79880970563E+02 0.  0.
          5    1    3    3  501    0  0.77296504678E+01  0.46163319146E+02  0.35035951966E+02  0.58654986669E+02  0.47000000000E+01 0. -1.
        -11    1    4    4    0    0 -0.44049564153E+02  0.16743454615E+02 -0.22895760975E+02  0.52392015090E+02  0.00000000000E+00 0.  1.
         12    1    4    4    0    0 -0.10829432911E+03 -0.32716500251E+02  0.48254373572E+02  0.12298990071E+03  0.00000000000E+00 0. -1.
         -5    1    5    5    0  502 -0.14080556615E+02 -0.18411126279E+02 -0.12384453434E+01  0.23682385697E+02  0.47000000000E+01 0.  1.
         13    1    6    6    0    0  0.91747877536E+02 -0.44634943538E+02 -0.19161770251E+03  0.21708821970E+03  0.00000000000E+00 0. -1.
        -14    1    6    6    0    0  0.66946921878E+02  0.32855796306E+02 -0.18641555447E+03  0.20077886505E+03  0.00000000000E+00 0.  1.
<mgrwt>
<rscale>  2 0.22610629E+03</rscale>
<asrwt>0</asrwt>
<pdfrwt beam="1">  1       21 0.27439172E-01 0.22611008E+03</pdfrwt>
<pdfrwt beam="2">  1       21 0.76497193E-01 0.22611008E+03</pdfrwt>
<totfact> 0.18896380E+04</totfact>
</mgrwt>
</event>
<event>
12    1  0.1019868E-001  0.2305766E+03  0.7546771E-02  0.1126800E+00
         21   -1    0    0  503  502  0.00000000000E+00  0.00000000000E+00  0.85636973518E+03  0.85636973518E+03  0.00000000000E+00 0. -1.
         21   -1    0    0  501  503 -0.00000000000E+00 -0.00000000000E+00 -0.61738378003E+02  0.61738378003E+02  0.00000000000E+00 0. -1.
          6    2    1    2  501    0  0.96512704976E+02  0.11473948567E+03  0.35268538662E+03  0.41962859567E+03  0.17094245984E+03 0.  0.
         24    2    3    3    0    0  0.24348852807E+02  0.12302690394E+03  0.20052638346E+03  0.25095507936E+03  0.83899557015E+02 0.  0.
         -6    2    1    2    0  502 -0.96512704976E+02 -0.11473948567E+03  0.44194597055E+03  0.49847951751E+03  0.17517344746E+03 0.  0.
        -24    2    5    5    0    0 -0.11667523508E+02 -0.55639668698E+02  0.33947172802E+03  0.35282735114E+03  0.77551155710E+02 0.  0.
          5    1    3    3  501    0  0.72163852169E+02 -0.82874182681E+01  0.15215900316E+03  0.16867351631E+03  0.47000000000E+01 0. -1.
        -13    1    4    4    0    0  0.45282146268E+02  0.11725448008E+03  0.14834524554E+03  0.19443610195E+03  0.00000000000E+00 0.  1.
         14    1    4    4    0    0 -0.20933293461E+02  0.57724238627E+01  0.52181137925E+02  0.56518977410E+02  0.00000000000E+00 0. -1.
         -5    1    5    5    0  502 -0.84845181468E+02 -0.59099816973E+02  0.10247424253E+03  0.14565216637E+03  0.47000000000E+01 0.  1.
         11    1    6    6    0    0 -0.27778688277E+02  0.92533290713E+01  0.10061656466E+03  0.10479013649E+03  0.00000000000E+00 0. -1.
        -12    1    6    6    0    0  0.16111164770E+02 -0.64892997770E+02  0.23885516336E+03  0.24803721465E+03  0.00000000000E+00 0.  1.
<mgrwt>
<rscale>  2 0.22977302E+03</rscale>
<asrwt>0</asrwt>
<pdfrwt beam="1">  1       21 0.13174918E+00 0.23057664E+03</pdfrwt>
<pdfrwt beam="2">  1       21 0.94982127E-02 0.23057664E+03</pdfrwt>
<totfact> 0.36363433E+04</totfact>
</mgrwt>
</event>
<event>
12    1  0.1019868E-001  0.2163753E+03  0.7546771E-02  0.1137133E+00
         21   -1    0    0  501  502  0.00000000000E+00  0.00000000000E+00  0.16256574975E+03  0.16256574975E+03  0.00000000000E+00 0. -1.
         21   -1    0    0  502  503 -0.00000000000E+00 -0.00000000000E+00 -0.46908680221E+03  0.46908680221E+03  0.00000000000E+00 0. -1.
         -6    2    1    2    0  503  0.34596871669E+01  0.12979938510E+03 -0.35201013923E+03  0.41319417175E+03  0.17308505319E+03 0.  0.
        -24    2    3    3    0    0 -0.11928394286E+02  0.90686028437E+02 -0.99771847328E+02  0.15743472691E+03  0.80405406377E+02 0.  0.
          6    2    1    2  501    0 -0.34596871669E+01 -0.12979938510E+03  0.45489086777E+02  0.21845838021E+03  0.16969076893E+03 0.  0.
         24    2    5    5    0    0  0.28008536375E+02 -0.13803608407E+02 -0.60254013945E+01  0.87610752050E+02  0.81635290763E+02 0.  0.
          5    1    5    5  501    0 -0.31468223542E+02 -0.11599577669E+03  0.51514488172E+02  0.13084762816E+03  0.47000000000E+01 0. -1.
        -11    1    6    6    0    0 -0.15558338938E+02  0.23157292915E+02 -0.11584363287E+02  0.30207939328E+02  0.00000000000E+00 0.  1.
         12    1    6    6    0    0  0.43566875313E+02 -0.36960901322E+02  0.55589618929E+01  0.57402812722E+02  0.00000000000E+00 0. -1.
         -5    1    3    3    0  503  0.15388081453E+02  0.39113356661E+02 -0.25223829190E+03  0.25575944484E+03  0.47000000000E+01 0.  1.
         13    1    4    4    0    0 -0.20836018665E+01  0.13532869950E+02  0.14022681177E+02  0.19598866121E+02  0.00000000000E+00 0. -1.
        -14    1    4    4    0    0 -0.98447924193E+01  0.77153158487E+02 -0.11379452851E+03  0.13783586079E+03  0.00000000000E+00 0.  1.
<mgrwt>
<rscale>  2 0.21569577E+03</rscale>
<asrwt>0</asrwt>
<pdfrwt beam="1">  1       21 0.25010116E-01 0.21637533E+03</pdfrwt>
<pdfrwt beam="2">  1       21 0.72167198E-01 0.21637533E+03</pdfrwt>
<totfact> 0.25868833E+04</totfact>
</mgrwt>
</event>
<event>
12    1  0.1019868E-001  0.1872863E+03  0.7546771E-02  0.1161076E+00
         21   -1    0    0  501  502  0.00000000000E+00  0.00000000000E+00  0.40578161920E+03  0.40578161920E+03  0.00000000000E+00 0. -1.
         21   -1    0    0  502  503 -0.00000000000E+00 -0.00000000000E+00 -0.87723289905E+02  0.87723289905E+02  0.00000000000E+00 0.  1.
         -6    2    1    2    0  503  0.31785371776E+02  0.72173002250E+02  0.12626758572E+03  0.22587532740E+03  0.16987321217E+03 0.  0.
        -24    2    3    3    0    0  0.11981875078E+02  0.10674655238E+03  0.12599522447E+03  0.18575459672E+03  0.84211530321E+02 0.  0.
          6    2    1    2  501    0 -0.31785371776E+02 -0.72173002250E+02  0.19179074358E+03  0.26762958171E+03  0.16918230277E+03 0.  0.
         24    2    5    5    0    0 -0.73121373003E+02 -0.21014608928E+02  0.74647339744E+02  0.13320297249E+03  0.79890284581E+02 0.  0.
          5    1    5    5  501    0  0.41336001226E+02 -0.51158393323E+02  0.11714340383E+03  0.13442660922E+03  0.47000000000E+01 0. -1.
        -13    1    6    6    0    0 -0.88231708696E+01 -0.40143769689E+02  0.16028278773E+02  0.44116621692E+02  0.00000000000E+00 0.  1.
         14    1    6    6    0    0 -0.64298202133E+02  0.19129160762E+02  0.58619060971E+02  0.89086350796E+02  0.00000000000E+00 0. -1.
         -5    1    3    3    0  503  0.19803496698E+02 -0.34573550126E+02  0.27236125489E+00  0.40120730682E+02  0.47000000000E+01 0.  1.
         11    1    4    4    0    0 -0.22903997392E+02  0.78597665765E+02  0.45607733586E+02  0.93713667750E+02  0.00000000000E+00 0. -1.
        -12    1    4    4    0    0  0.34885872469E+02  0.28148886611E+02  0.80387490880E+02  0.92040928968E+02  0.00000000000E+00 0.  1.
<mgrwt>
<rscale>  2 0.18712950E+03</rscale>
<asrwt>0</asrwt>
<pdfrwt beam="1">  1       21 0.62427940E-01 0.18728631E+03</pdfrwt>
<pdfrwt beam="2">  1       21 0.13495891E-01 0.18728631E+03</pdfrwt>
<totfact> 0.11325405E+05</totfact>
</mgrwt>
</event>
<event>
12    1  0.1019868E-001  0.2007709E+03  0.7546771E-02  0.1149161E+00
         21   -1    0    0  503  502  0.00000000000E+00  0.00000000000E+00  0.15419791561E+03  0.15419791561E+03  0.00000000000E+00 0. -1.
         21   -1    0    0  501  503 -0.00000000000E+00 -0.00000000000E+00 -0.26652381643E+03  0.26652381643E+03  0.00000000000E+00 0. -1.
          6    2    1    2  501    0  0.36294795342E+02 -0.95545626485E+02 -0.86562175182E+02  0.21863663905E+03  0.17280824880E+03 0.  0.
         24    2    3    3    0    0 -0.26634938961E+02 -0.68836146298E+02 -0.64711521508E+00  0.10874107354E+03  0.79852159051E+02 0.  0.
         -6    2    1    2    0  502 -0.36294795342E+02  0.95545626485E+02 -0.25763725641E+02  0.20208509298E+03  0.17241907185E+03 0.  0.
        -24    2    5    5    0    0 -0.15361851614E+02  0.32416534071E+02 -0.77136486395E+02  0.11791430833E+03  0.81651260911E+02 0.  0.
          5    1    3    3  501    0  0.62929734303E+02 -0.26709480187E+02 -0.85915059967E+02  0.10989556552E+03  0.47000000000E+01 0. -1.
        -13    1    4    4    0    0 -0.51713589349E+02 -0.23402831249E+02 -0.24375633336E+01  0.56814870843E+02  0.00000000000E+00 0.  1.
         14    1    4    4    0    0  0.25078650389E+02 -0.45433315049E+02  0.17904481186E+01  0.51926202693E+02  0.00000000000E+00 0. -1.
         -5    1    5    5    0  502 -0.20932943728E+02  0.63129092414E+02  0.51372760753E+02  0.84170784655E+02  0.47000000000E+01 0.  1.
         13    1    6    6    0    0 -0.32692316828E+02  0.51878670766E+02 -0.64344088079E+02  0.88883889039E+02  0.00000000000E+00 0. -1.
        -14    1    6    6    0    0  0.17330465214E+02 -0.19462136695E+02 -0.12792398315E+02  0.29030419286E+02  0.00000000000E+00 0.  1.
<mgrwt>
<rscale>  2 0.20068717E+03</rscale>
<asrwt>0</asrwt>
<pdfrwt beam="1">  1       21 0.23722757E-01 0.20077094E+03</pdfrwt>
<pdfrwt beam="2">  1       21 0.41003664E-01 0.20077094E+03</pdfrwt>
<totfact> 0.95567122E+04</totfact>
</mgrwt>
</event>
<event>
12    1  0.1019868E-001  0.3711358E+03  0.7546771E-02  0.1054302E+00
         21   -1    0    0  503  502  0.00000000000E+00  0.00000000000E+00  0.31269732376E+03  0.31269732376E+03  0.00000000000E+00 0. -1.
         21   -1    0    0  501  503 -0.00000000000E+00 -0.00000000000E+00 -0.44434225358E+03  0.44434225358E+03  0.00000000000E+00 0.  1.
          6    2    1    2  501    0 -0.14400657570E+03 -0.29538057447E+03 -0.28237543747E+02  0.37176713849E+03  0.17153970026E+03 0.  0.
         24    2    3    3    0    0 -0.78314962483E+02 -0.19283669931E+03 -0.82198951956E+02  0.23848338871E+03  0.82452610867E+02 0.  0.
         -6    2    1    2    0  502  0.14400657570E+03  0.29538057447E+03 -0.10340738608E+03  0.38527243885E+03  0.17249402026E+03 0.  0.
        -24    2    5    5    0    0  0.73888907865E+02  0.27364391174E+03 -0.62572088523E+02  0.30113813327E+03  0.80176978677E+02 0.  0.
          5    1    3    3  501    0 -0.65691613216E+02 -0.10254387516E+03  0.53961408210E+02  0.13328374978E+03  0.47000000000E+01 0. -1.
        -11    1    4    4    0    0 -0.36614675166E+02 -0.48685967069E+02  0.10904777305E+02  0.61885959595E+02  0.00000000000E+00 0.  1.
         12    1    4    4    0    0 -0.41700287318E+02 -0.14415073224E+03 -0.93103729261E+02  0.17659742911E+03  0.00000000000E+00 0. -1.
         -5    1    5    5    0  502  0.70117667835E+02  0.21736662731E+02 -0.40835297554E+02  0.84134305581E+02  0.47000000000E+01 0.  1.
         11    1    6    6    0    0 -0.12138780254E+02  0.81194028181E+02 -0.32080244114E+02  0.88141716915E+02  0.00000000000E+00 0. -1.
        -12    1    6    6    0    0  0.86027688118E+02  0.19244988356E+03 -0.30491844408E+02  0.21299641636E+03  0.00000000000E+00 0.  1.
<mgrwt>
<rscale>  2 0.37102508E+03</rscale>
<asrwt>0</asrwt>
<pdfrwt beam="1">  1       21 0.48107280E-01 0.37113578E+03</pdfrwt>
<pdfrwt beam="2">  1       21 0.68360347E-01 0.37113578E+03</pdfrwt>
<totfact> 0.73396234E+03</totfact>
</mgrwt>
</event>
<event>
12    1  0.1019868E-001  0.1746808E+03  0.7546771E-02  0.1174486E+00
         21   -1    0    0  503  502  0.00000000000E+00  0.00000000000E+00  0.58614419661E+02  0.58614419661E+02  0.00000000000E+00 0. -1.
         21   -1    0    0  501  503 -0.00000000000E+00 -0.00000000000E+00 -0.55578596505E+03  0.55578596505E+03  0.00000000000E+00 0. -1.
          6    2    1    2  501    0  0.30757183878E+02 -0.18044311605E+02 -0.34599006623E+03  0.38758546521E+03  0.17100223791E+03 0.  0.
         24    2    3    3    0    0 -0.16020523535E+02  0.41424797052E+02 -0.24359827199E+03  0.26018492234E+03  0.79896212123E+02 0.  0.
         -6    2    1    2    0  502 -0.30757183878E+02  0.18044311605E+02 -0.15118147916E+03  0.22681491950E+03  0.16528026660E+03 0.  0.
        -24    2    5    5    0    0  0.18469208253E+02  0.28473827906E+02 -0.26757996420E+02  0.92519329295E+02  0.81804433814E+02 0.  0.
          5    1    3    3  501    0  0.46777707413E+02 -0.59469108657E+02 -0.10239179424E+03  0.12740054287E+03  0.47000000000E+01 0. -1.
        -13    1    4    4    0    0  0.29147817545E+02  0.31345322109E+02 -0.88128344225E+02  0.97973106216E+02  0.00000000000E+00 0.  1.
         14    1    4    4    0    0 -0.45168341081E+02  0.10079474943E+02 -0.15546992777E+03  0.16221181613E+03  0.00000000000E+00 0. -1.
         -5    1    5    5    0  502 -0.49226392131E+02 -0.10429516302E+02 -0.12442348274E+03  0.13429559021E+03  0.47000000000E+01 0.  1.
         11    1    6    6    0    0 -0.32083236450E+02  0.53327949541E+01 -0.14381104952E+02  0.35561059360E+02  0.00000000000E+00 0. -1.
        -12    1    6    6    0    0  0.50552444703E+02  0.23141032952E+02 -0.12376891468E+02  0.56958269935E+02  0.00000000000E+00 0.  1.
<mgrwt>
<rscale>  2 0.17326426E+03</rscale>
<asrwt>0</asrwt>
<pdfrwt beam="1">  1       21 0.90176031E-02 0.17468076E+03</pdfrwt>
<pdfrwt beam="2">  1       21 0.85505533E-01 0.17468076E+03</pdfrwt>
<totfact> 0.11587096E+05</totfact>
</mgrwt>
</event>
<event>
12    1  0.1019868E-001  0.2812739E+03  0.7546771E-02  0.1095359E+00
         21   -1    0    0  501  502  0.00000000000E+00  0.00000000000E+00  0.92963432402E+03  0.92963432402E+03  0.00000000000E+00 0. -1.
         21   -1    0    0  502  503 -0.00000000000E+00 -0.00000000000E+00 -0.23899547873E+03  0.23899547873E+03  0.00000000000E+00 0. -1.
         -6    2    1    2    0  503 -0.20686430741E+03  0.72345491330E+02 -0.12536239716E+03  0.30551158509E+03  0.17203164305E+03 0.  0.
        -24    2    3    3    0    0 -0.19264076503E+03  0.26745887133E+02 -0.51510046771E+02  0.21743268456E+03  0.82449260553E+02 0.  0.
          6    2    1    2  501    0  0.20686430741E+03 -0.72345491330E+02  0.81600124245E+03  0.86311821766E+03  0.17631879701E+03 0.  0.
         24    2    5    5    0    0  0.11139646372E+03 -0.37319467975E+02  0.66975198764E+03  0.68492768474E+03  0.82196676045E+02 0.  0.
          5    1    5    5  501    0  0.95467843684E+02 -0.35026023355E+02  0.14624925481E+03  0.17819053292E+03  0.47000000000E+01 0. -1.
        -13    1    6    6    0    0  0.43254306450E+01  0.16933355264E+02  0.37368663715E+02  0.41253665275E+02  0.00000000000E+00 0.  1.
         14    1    6    6    0    0  0.10707103308E+03 -0.54252823238E+02  0.63238332393E+03  0.64367401946E+03  0.00000000000E+00 0. -1.
         -5    1    3    3    0  503 -0.14223542373E+02  0.45599604197E+02 -0.73852350393E+02  0.88078900534E+02  0.47000000000E+01 0.  1.
         13    1    4    4    0    0 -0.68146909374E+02  0.13781554027E+02 -0.60195977943E+02  0.91964603240E+02  0.00000000000E+00 0. -1.
        -14    1    4    4    0    0 -0.12449385566E+03  0.12964333106E+02  0.86859311722E+01  0.12546808132E+03  0.00000000000E+00 0.  1.
<mgrwt>
<rscale>  2 0.28060470E+03</rscale>
<asrwt>0</asrwt>
<pdfrwt beam="1">  1       21 0.14302066E+00 0.28127394E+03</pdfrwt>
<pdfrwt beam="2">  1       21 0.36768536E-01 0.28127394E+03</pdfrwt>
<totfact> 0.22534397E+03</totfact>
</mgrwt>
</event>
<event>
12    1  0.1019868E-001  0.2036656E+03  0.7546771E-02  0.1146836E+00
         21   -1    0    0  503  502  0.00000000000E+00  0.00000000000E+00  0.23282767070E+03  0.23282767070E+03  0.00000000000E+00 0.  1.
         21   -1    0    0  501  503 -0.00000000000E+00 -0.00000000000E+00 -0.19405106400E+03  0.19405106400E+03  0.00000000000E+00 0.  1.
          6    2    1    2  501    0  0.57954286919E+02 -0.89843594303E+02 -0.42963208305E+02  0.20742241585E+03  0.17247507217E+03 0.  0.
         24    2    3    3    0    0  0.98037126233E+01 -0.26523732843E+02  0.32822379650E+02  0.97452292629E+02  0.87292723337E+02 0.  0.
         -6    2    1    2    0  502 -0.57954286919E+02  0.89843594303E+02  0.81739815012E+02  0.21945631885E+03  0.17334678455E+03 0.  0.
        -24    2    5    5    0    0  0.11596498334E+02  0.24034128127E+01  0.13090415606E+01  0.81709099687E+02  0.80835686520E+02 0.  0.
          5    1    3    3  501    0  0.48150574296E+02 -0.63319861460E+02 -0.75785587955E+02  0.10997012322E+03  0.47000000000E+01 0. -1.
        -13    1    4    4    0    0  0.22374707860E+02 -0.41541071215E+02 -0.11873011785E+02  0.48654460827E+02  0.00000000000E+00 0.  1.
         14    1    4    4    0    0 -0.12570995236E+02  0.15017338372E+02  0.44695391436E+02  0.48797831802E+02  0.00000000000E+00 0. -1.
         -5    1    5    5    0  502 -0.69550785253E+02  0.87440181490E+02  0.80430773451E+02  0.13774721916E+03  0.47000000000E+01 0.  1.
         13    1    6    6    0    0 -0.16191863812E+02 -0.13675057339E+02  0.31283435282E+02  0.37786730078E+02  0.00000000000E+00 0. -1.
        -14    1    6    6    0    0  0.27788362146E+02  0.16078470152E+02 -0.29974393721E+02  0.43922369610E+02  0.00000000000E+00 0.  1.
<mgrwt>
<rscale>  2 0.20347999E+03</rscale>
<asrwt>0</asrwt>
<pdfrwt beam="1">  1       21 0.35819641E-01 0.20366560E+03</pdfrwt>
<pdfrwt beam="2">  1       21 0.29854010E-01 0.20366560E+03</pdfrwt>
<totfact> 0.80470566E+04</totfact>
</mgrwt>
</event>
<event>
12    1  0.1019868E-001  0.2748703E+03  0.7546771E-02  0.1098794E+00
         21   -1    0    0  501  502  0.00000000000E+00  0.00000000000E+00  0.53911255871E+02  0.53911255871E+02  0.00000000000E+00 0. -1.
         21   -1    0    0  502  503 -0.00000000000E+00 -0.00000000000E+00 -0.14585268279E+04  0.14585268279E+04  0.00000000000E+00 0. -1.
         -6    2    1    2    0  503 -0.18697202288E+03  0.10165723684E+03 -0.86186750414E+03  0.90405570122E+03  0.17090460810E+03 0.  0.
        -24    2    3    3    0    0 -0.38627019568E+02  0.33099584334E+02 -0.47649022551E+03  0.48543400014E+03  0.77560327264E+02 0.  0.
          6    2    1    2  501    0  0.18697202288E+03 -0.10165723684E+03 -0.54274806784E+03  0.60838238251E+03  0.17395668155E+03 0.  0.
         24    2    5    5    0    0  0.19572100593E+03 -0.11064191353E+03 -0.40666594788E+03  0.47164283997E+03  0.80755372212E+02 0.  0.
          5    1    5    5  501    0 -0.87489830452E+01  0.89846766863E+01 -0.13608211996E+03  0.13673954253E+03  0.47000000000E+01 0. -1.
        -11    1    6    6    0    0  0.26477405081E+02 -0.12832360050E+02 -0.13102259079E+02  0.32208564657E+02  0.00000000000E+00 0.  1.
         12    1    6    6    0    0  0.16924360085E+03 -0.97809553477E+02 -0.39356368880E+03  0.43943427532E+03  0.00000000000E+00 0. -1.
         -5    1    3    3    0  503 -0.14834500332E+03  0.68557652506E+02 -0.38537727863E+03  0.41862170108E+03  0.47000000000E+01 0.  1.
         11    1    4    4    0    0 -0.51119685489E+02  0.46369785501E+02 -0.29199508396E+03  0.30004084440E+03  0.00000000000E+00 0. -1.
        -12    1    4    4    0    0  0.12492665921E+02 -0.13270201167E+02 -0.18449514155E+03  0.18539315574E+03  0.00000000000E+00 0.  1.
<mgrwt>
<rscale>  2 0.27438866E+03</rscale>
<asrwt>0</asrwt>
<pdfrwt beam="1">  1       21 0.82940391E-02 0.27487026E+03</pdfrwt>
<pdfrwt beam="2">  1       21 0.22438875E+00 0.27487026E+03</pdfrwt>
<totfact> 0.10011336E+04</totfact>
</mgrwt>
</event>
<event>
12    1  0.1019868E-001  0.5480167E+03  0.7546771E-02  0.1002000E+00
         21   -1    0    0  503  502  0.00000000000E+00  0.00000000000E+00  0.60559340579E+03  0.60559340579E+03  0.00000000000E+00 0.  1.
         21   -1    0    0  501  503 -0.00000000000E+00 -0.00000000000E+00 -0.71171564149E+03  0.71171564149E+03  0.00000000000E+00 0. -1.
          6    2    1    2  501    0 -0.12210816377E+03  0.50549979772E+03 -0.41637212187E+03  0.68824995870E+03  0.17286356650E+03 0.  0.
         24    2    3    3    0    0 -0.58665499643E+02  0.16893964305E+03 -0.22332012702E+03  0.29507204470E+03  0.72203798979E+02 0.  0.
         -6    2    1    2    0  502  0.12210816377E+03 -0.50549979772E+03  0.31024988617E+03  0.62905908859E+03  0.17035227005E+03 0.  0.
        -24    2    5    5    0    0  0.11016223441E+03 -0.46471565336E+03  0.22585531331E+03  0.53445155406E+03  0.80817601594E+02 0.  0.
          5    1    3    3  501    0 -0.63442664128E+02  0.33656015467E+03 -0.19305199485E+03  0.39317791400E+03  0.47000000000E+01 0. -1.
        -11    1    4    4    0    0 -0.17054480141E+02  0.75868593953E+00 -0.84300765483E+01  0.19039356287E+02  0.00000000000E+00 0.  1.
         12    1    4    4    0    0 -0.41611019502E+02  0.16818095711E+03 -0.21489005047E+03  0.27603268841E+03  0.00000000000E+00 0. -1.
         -5    1    5    5    0  502  0.11945929356E+02 -0.40784144367E+02  0.84394572863E+02  0.94607534524E+02  0.47000000000E+01 0.  1.
         13    1    6    6    0    0  0.41728047341E+01 -0.25891630903E+01  0.14577098817E+02  0.15382063411E+02  0.00000000000E+00 0. -1.
        -14    1    6    6    0    0  0.10598942968E+03 -0.46212649027E+03  0.21127821449E+03  0.51906949065E+03  0.00000000000E+00 0.  1.
<mgrwt>
<rscale>  2 0.54781982E+03</rscale>
<asrwt>0</asrwt>
<pdfrwt beam="1">  1       21 0.93168217E-01 0.54801666E+03</pdfrwt>
<pdfrwt beam="2">  1       21 0.10949471E+00 0.54801666E+03</pdfrwt>
<totfact> 0.51576022E+02</totfact>
</mgrwt>
</event>
<event>
12    1  0.1019868E-001  0.1760210E+03  0.7546771E-02  0.1172031E+00
         21   -1    0    0  501  502  0.00000000000E+00  0.00000000000E+00  0.20996099605E+03  0.20996099605E+03  0.00000000000E+00 0.  1.
         21   -1    0    0  502  503 -0.00000000000E+00 -0.00000000000E+00 -0.16188969455E+03  0.16188969455E+03  0.00000000000E+00 0.  1.
         -6    2    1    2    0  503  0.30971902670E+02 -0.36733261708E+01 -0.33219553230E+02  0.17912821818E+03  0.17323575771E+03 0.  0.
        -24    2    3    3    0    0 -0.25317406221E+02  0.19119869007E+02 -0.67056629002E+02  0.10945000251E+03  0.80474661274E+02 0.  0.
          6    2    1    2  501    0 -0.30971902670E+02  0.36733261708E+01  0.81290854724E+02  0.19272247242E+03  0.17193311559E+03 0.  0.
         24    2    5    5    0    0 -0.79491500654E+02  0.55840780624E+01  0.87574362148E+02  0.14353533156E+03  0.81135946996E+02 0.  0.
          5    1    5    5  501    0  0.48519597984E+02 -0.19107518916E+01 -0.62835074237E+01  0.49187140869E+02  0.47000000000E+01 0. -1.
        -11    1    6    6    0    0  0.41235726205E+01  0.26026071611E+02  0.30244836854E+02  0.40113718488E+02  0.00000000000E+00 0.  1.
         12    1    6    6    0    0 -0.83615073275E+02 -0.20441993548E+02  0.57329525295E+02  0.10342161307E+03  0.00000000000E+00 0. -1.
         -5    1    3    3    0  503  0.56289308891E+02 -0.22793195178E+02  0.33837075772E+02  0.69678215668E+02  0.47000000000E+01 0.  1.
         13    1    4    4    0    0 -0.15652082188E+02 -0.15365623651E+02  0.10279860025E+02  0.24223244810E+02  0.00000000000E+00 0. -1.
        -14    1    4    4    0    0 -0.96653240324E+01  0.34485492658E+02 -0.77336489028E+02  0.85226757698E+02  0.00000000000E+00 0.  1.
<mgrwt>
<rscale>  2 0.17569962E+03</rscale>
<asrwt>0</asrwt>
<pdfrwt beam="1">  1       21 0.32301692E-01 0.17602096E+03</pdfrwt>
<pdfrwt beam="2">  1       21 0.24906107E-01 0.17602096E+03</pdfrwt>
<totfact> 0.14144718E+05</totfact>
</mgrwt>
</event>
<event>
12    1  0.1019868E-001  0.1835728E+03  0.7546771E-02  0.1164641E+00
         21   -1    0    0  501  502  0.00000000000E+00  0.00000000000E+00  0.47442888626E+03  0.47442888626E+03  0.00000000000E+00 0.  1.
         21   -1    0    0  502  503 -0.00000000000E+00 -0.00000000000E+00 -0.11864299825E+03  0.11864299825E+03  0.00000000000E+00 0.  1.
         -6    2    1    2    0  503 -0.36867586051E+02  0.47041501072E+02 -0.10460184446E+02  0.18387056462E+03  0.17357087126E+03 0.  0.
        -24    2    3    3    0    0 -0.16205304374E+02  0.89845191861E+02  0.25266558888E+02  0.12422514553E+03  0.80366145818E+02 0.  0.
          6    2    1    2  501    0  0.36867586051E+02 -0.47041501072E+02  0.36624607245E+03  0.40920131989E+03  0.17244539102E+03 0.  0.
         24    2    5    5    0    0 -0.35231887936E+01 -0.78409236057E+02  0.32282212167E+03  0.34194747991E+03  0.80953910439E+02 0.  0.
          5    1    5    5  501    0  0.40390774845E+02  0.31367734984E+02  0.43423950780E+02  0.67253839979E+02  0.47000000000E+01 0. -1.
        -11    1    6    6    0    0 -0.18677608364E+02  0.67411394657E+01  0.11729603470E+03  0.11896493505E+03  0.00000000000E+00 0.  1.
         12    1    6    6    0    0  0.15154419570E+02 -0.85150375522E+02  0.20552608698E+03  0.22298254486E+03  0.00000000000E+00 0. -1.
         -5    1    3    3    0  503 -0.20662281677E+02 -0.42803690788E+02 -0.35726743334E+02  0.59645419091E+02  0.47000000000E+01 0.  1.
         13    1    4    4    0    0 -0.27795076700E+02  0.81043815211E+02 -0.98215585280E+01  0.86238792226E+02  0.00000000000E+00 0. -1.
        -14    1    4    4    0    0  0.11589772327E+02  0.88013766494E+01  0.35088117416E+02  0.37986353304E+02  0.00000000000E+00 0.  1.
<mgrwt>
<rscale>  2 0.18330626E+03</rscale>
<asrwt>0</asrwt>
<pdfrwt beam="1">  1       21 0.72989059E-01 0.18357279E+03</pdfrwt>
<pdfrwt beam="2">  1       21 0.18252769E-01 0.18357279E+03</pdfrwt>
<totfact> 0.46420677E+04</totfact>
</mgrwt>
</event>
<event>
12    1  0.1019868E-001  0.2077693E+03  0.7546771E-02  0.1143914E+00
         21   -1    0    0  501  502  0.00000000000E+00  0.00000000000E+00  0.67284849208E+03  0.67284849208E+03  0.00000000000E+00 0.  1.
         21   -1    0    0  502  503 -0.00000000000E+00 -0.00000000000E+00 -0.15386306795E+03  0.15386306795E+03  0.00000000000E+00 0. -1.
         -6    2    1    2    0  503 -0.10281223994E+03 -0.33376494327E+02 -0.58373490117E+02  0.21310631692E+03  0.17413354332E+03 0.  0.
        -24    2    3    3    0    0 -0.13590967583E+03 -0.12888485674E+01 -0.55104775942E+02  0.16665384911E+03  0.79144601689E+02 0.  0.
          6    2    1    2  501    0  0.10281223994E+03  0.33376494327E+02  0.57735891424E+03  0.61360524311E+03  0.17743655616E+03 0.  0.
         24    2    5    5    0    0  0.12964303038E+03  0.64256586703E+02  0.41913649221E+03  0.45011244126E+03  0.77392418365E+02 0.  0.
          5    1    5    5  501    0 -0.26830790441E+02 -0.30880092376E+02  0.15822242203E+03  0.16349280184E+03  0.47000000000E+01 0. -1.
        -11    1    6    6    0    0  0.36504985574E+02  0.48961857298E+02  0.23979664907E+03  0.24745163234E+03  0.00000000000E+00 0.  1.
         12    1    6    6    0    0  0.93138044806E+02  0.15294729405E+02  0.17933984313E+03  0.20266080892E+03  0.00000000000E+00 0. -1.
         -5    1    3    3    0  503  0.33097435894E+02 -0.32087645760E+02 -0.32687141751E+01  0.46452467809E+02  0.47000000000E+01 0.  1.
         11    1    4    4    0    0 -0.41211985420E+02  0.34842008467E+02 -0.68587511981E+01  0.54400696358E+02  0.00000000000E+00 0. -1.
        -12    1    4    4    0    0 -0.94697690413E+02 -0.36130857034E+02 -0.48246024744E+02  0.11225315275E+03  0.00000000000E+00 0.  1.
<mgrwt>
<rscale>  2 0.20706229E+03</rscale>
<asrwt>0</asrwt>
<pdfrwt beam="1">  1       21 0.10351515E+00 0.20776929E+03</pdfrwt>
<pdfrwt beam="2">  1       21 0.23671242E-01 0.20776929E+03</pdfrwt>
<totfact> 0.12576666E+04</totfact>
</mgrwt>
</event>
<event>
12    1  0.1019868E-001  0.3763990E+03  0.7546771E-02  0.1052849E+00
         21   -1    0    0  501  502  0.00000000000E+00  0.00000000000E+00  0.23960960539E+04  0.23960960539E+04  0.00000000000E+00 0.  1.
         21   -1    0    0  502  503 -0.00000000000E+00 -0.00000000000E+00 -0.69174430359E+02  0.69174430359E+02  0.00000000000E+00 0. -1.
         -6    2    1    2    0  503 -0.32785397567E+03  0.64503505737E+02  0.16630169455E+04  0.17050810969E+04  0.17328373949E+03 0.  0.
        -24    2    3    3    0    0 -0.20400305380E+03  0.84005066231E+02  0.12983994077E+04  0.13194810443E+04  0.80716213876E+02 0.  0.
          6    2    1    2  501    0  0.32785397567E+03 -0.64503505737E+02  0.66390467805E+03  0.76018938737E+03  0.15959182785E+03 0.  0.
         24    2    5    5    0    0  0.16418685910E+03 -0.46576923719E+02  0.24377558968E+03  0.30892579668E+03  0.82957068447E+02 0.  0.
          5    1    5    5  501    0  0.16366711657E+03 -0.17926582018E+02  0.42012908837E+03  0.45126359069E+03  0.47000000000E+01 0. -1.
        -13    1    6    6    0    0  0.77585710030E+02 -0.89852551989E+01  0.17647126094E+03  0.19298285714E+03  0.00000000000E+00 0.  1.
         14    1    6    6    0    0  0.86601149066E+02 -0.37591668520E+02  0.67304328743E+02  0.11594293954E+03  0.00000000000E+00 0. -1.
         -5    1    3    3    0  503 -0.12385092187E+03 -0.19501560494E+02  0.36461753778E+03  0.38560005260E+03  0.47000000000E+01 0.  1.
         11    1    4    4    0    0 -0.15468817182E+02  0.37022582618E+02  0.19160469867E+03  0.19576086555E+03  0.00000000000E+00 0. -1.
        -12    1    4    4    0    0 -0.18853423661E+03  0.46982483612E+02  0.11067947090E+04  0.11237201787E+04  0.00000000000E+00 0.  1.
<mgrwt>
<rscale>  2 0.37486364E+03</rscale>
<asrwt>0</asrwt>
<pdfrwt beam="1">  1       21 0.36863010E+00 0.37639897E+03</pdfrwt>
<pdfrwt beam="2">  1       21 0.10642222E-01 0.37639897E+03</pdfrwt>
<totfact> 0.81374496E+02</totfact>
</mgrwt>
</event>
<event>
12    1  0.1019868E-001  0.2291018E+03  0.7546771E-02  0.1127381E+00
         21   -1    0    0  503  502  0.00000000000E+00  0.00000000000E+00  0.34317389999E+03  0.34317389999E+03  0.00000000000E+00 0.  1.
         21   -1    0    0  501  503 -0.00000000000E+00 -0.00000000000E+00 -0.36354938627E+03  0.36354938627E+03  0.00000000000E+00 0.  1.
          6    2    1    2  501    0 -0.13207037936E+03  0.70618834086E+02 -0.27938904613E+03  0.36092612381E+03  0.17256831378E+03 0.  0.
         24    2    3    3    0    0 -0.16298617364E+03  0.46538049615E+02 -0.24491672102E+03  0.30852286327E+03  0.80447958758E+02 0.  0.
         -6    2    1    2    0  502  0.13207037936E+03 -0.70618834086E+02  0.25901355985E+03  0.34579716244E+03  0.17337257145E+03 0.  0.
        -24    2    5    5    0    0  0.99419425606E+02 -0.10779340801E+03  0.14975902679E+03  0.22576934599E+03  0.83907034783E+02 0.  0.
          5    1    3    3  501    0  0.30915794278E+02  0.24080784471E+02 -0.34472325109E+02  0.52403260538E+02  0.47000000000E+01 0. -1.
        -13    1    4    4    0    0 -0.65625301862E+02  0.15923507352E+02 -0.16694642983E+03  0.18008705884E+03  0.00000000000E+00 0.  1.
         14    1    4    4    0    0 -0.97360871778E+02  0.30614542263E+02 -0.77970291194E+02  0.12843580443E+03  0.00000000000E+00 0. -1.
         -5    1    5    5    0  502  0.32650953755E+02  0.37174573922E+02  0.10925453306E+03  0.12002781645E+03  0.47000000000E+01 0.  1.
         13    1    6    6    0    0  0.49673942886E+02 -0.95345950840E+02  0.13466150244E+03  0.17231387403E+03  0.00000000000E+00 0. -1.
        -14    1    6    6    0    0  0.49745482721E+02 -0.12447457168E+02  0.15097524349E+02  0.53455471960E+02  0.00000000000E+00 0.  1.
<mgrwt>
<rscale>  2 0.22894969E+03</rscale>
<asrwt>0</asrwt>
<pdfrwt beam="1">  1       21 0.52795984E-01 0.22910184E+03</pdfrwt>
<pdfrwt beam="2">  1       21 0.55930675E-01 0.22910184E+03</pdfrwt>
<totfact> 0.99944065E+03</totfact>
</mgrwt>
</event>
<event>
12    1  0.1019868E-001  0.2236804E+03  0.7546771E-02  0.1131402E+00
         21   -1    0    0  501  502  0.00000000000E+00  0.00000000000E+00  0.14437289976E+03  0.14437289976E+03  0.00000000000E+00 0.  1.
         21   -1    0    0  502  503 -0.00000000000E+00 -0.00000000000E+00 -0.48012387072E+03  0.48012387072E+03  0.00000000000E+00 0. -1.
         -6    2    1    2    0  503 -0.13191134133E+03  0.48527672967E+02 -0.33343751799E+03  0.40080442125E+03  0.17236028741E+03 0.  0.
        -24    2    3    3    0    0 -0.12972883526E+03 -0.19048140974E+01 -0.30734225299E+03  0.34378467081E+03  0.83038788545E+02 0.  0.
          6    2    1    2  501    0  0.13191134133E+03 -0.48527672967E+02 -0.23134529662E+01  0.22369234923E+03  0.17400395980E+03 0.  0.
         24    2    5    5    0    0  0.73981130610E+02 -0.61199766893E+02  0.59496362669E+02  0.13790753363E+03  0.79120487279E+02 0.  0.
          5    1    5    5  501    0  0.57930210722E+02  0.12672093925E+02 -0.61809815635E+02  0.85784815601E+02  0.47000000000E+01 0. -1.
        -13    1    6    6    0    0  0.23522034553E+02  0.27585435082E+01  0.50710965663E+02  0.55968720820E+02  0.00000000000E+00 0.  1.
         14    1    6    6    0    0  0.50459096057E+02 -0.63958310401E+02  0.87853970063E+01  0.81938812811E+02  0.00000000000E+00 0. -1.
         -5    1    3    3    0  503 -0.21825060775E+01  0.50432487065E+02 -0.26095265003E+02  0.57019750437E+02  0.47000000000E+01 0.  1.
         13    1    4    4    0    0 -0.62824639457E+02 -0.19505191601E+02 -0.23353927949E+03  0.24262725092E+03  0.00000000000E+00 0. -1.
        -14    1    4    4    0    0 -0.66904195798E+02  0.17600377504E+02 -0.73802973496E+02  0.10115741990E+03  0.00000000000E+00 0.  1.
<mgrwt>
<rscale>  2 0.22336064E+03</rscale>
<asrwt>0</asrwt>
<pdfrwt beam="1">  1       21 0.22211215E-01 0.22368039E+03</pdfrwt>
<pdfrwt beam="2">  1       21 0.73865211E-01 0.22368039E+03</pdfrwt>
<totfact> 0.30671979E+04</totfact>
</mgrwt>
</event>
<event>
12    1  0.1019868E-001  0.2670374E+03  0.7546771E-02  0.1103046E+00
         21   -1    0    0  501  502  0.00000000000E+00  0.00000000000E+00  0.21562265916E+03  0.21562265916E+03  0.00000000000E+00 0.  1.
         21   -1    0    0  502  503 -0.00000000000E+00 -0.00000000000E+00 -0.58317311578E+03  0.58317311578E+03  0.00000000000E+00 0. -1.
         -6    2    1    2    0  503 -0.19664162252E+03 -0.44637116046E+02 -0.44690413883E+03  0.52060760172E+03  0.17506731800E+03 0.  0.
        -24    2    3    3    0    0 -0.48234756105E+02 -0.62792237028E+02 -0.14777054209E+03  0.18615699981E+03  0.80924895693E+02 0.  0.
          6    2    1    2  501    0  0.19664162252E+03  0.44637116046E+02  0.79353682214E+02  0.27818817321E+03  0.17444555885E+03 0.  0.
         24    2    5    5    0    0  0.16519273541E+03 -0.14855510121E+02  0.96963472979E+02  0.20847017124E+03  0.80923242589E+02 0.  0.
          5    1    5    5  501    0  0.31448887101E+02  0.59492626167E+02 -0.17609790765E+02  0.69718001972E+02  0.47000000000E+01 0. -1.
        -13    1    6    6    0    0  0.23599628696E+02  0.27449082272E+02  0.12736135729E+02  0.38374519482E+02  0.00000000000E+00 0.  1.
         14    1    6    6    0    0  0.14159310672E+03 -0.42304592393E+02  0.84227337250E+02  0.17009565176E+03  0.00000000000E+00 0. -1.
         -5    1    3    3    0  503 -0.14840686641E+03  0.18155120983E+02 -0.29913359674E+03  0.33445060191E+03  0.47000000000E+01 0.  1.
         11    1    4    4    0    0 -0.43415112328E+02 -0.82279202763E+02 -0.11827061128E+03  0.15047483736E+03  0.00000000000E+00 0. -1.
        -12    1    4    4    0    0 -0.48196437769E+01  0.19486965735E+02 -0.29499930809E+02  0.35682162455E+02  0.00000000000E+00 0.  1.
<mgrwt>
<rscale>  2 0.26693553E+03</rscale>
<asrwt>0</asrwt>
<pdfrwt beam="1">  1       21 0.33172718E-01 0.26703739E+03</pdfrwt>
<pdfrwt beam="2">  1       21 0.89718939E-01 0.26703739E+03</pdfrwt>
<totfact> 0.88405126E+03</totfact>
</mgrwt>
</event>
<event>
12    1  0.1019868E-001  0.2312270E+03  0.7546771E-02  0.1125899E+00
         21   -1    0    0  501  502  0.00000000000E+00  0.00000000000E+00  0.12998256686E+04  0.12998256686E+04  0.00000000000E+00 0. -1.
         21   -1    0    0  502  503 -0.00000000000E+00 -0.00000000000E+00 -0.83950828052E+02  0.83950828052E+02  0.00000000000E+00 0.  1.
         -6    2    1    2    0  503 -0.96895441963E+02 -0.11861222300E+03  0.11266870276E+03  0.25659872763E+03  0.17231101046E+03 0.  0.
        -24    2    3    3    0    0 -0.12991422728E+02 -0.94356700226E+02  0.17272643757E+02  0.12717418243E+03  0.82480085546E+02 0.  0.
          6    2    1    2  501    0  0.96895441963E+02  0.11861222300E+03  0.11032061378E+04  0.11271777690E+04  0.17322919613E+03 0.  0.
         24    2    5    5    0    0  0.77042397888E+02  0.15328412647E+03  0.95564546841E+03  0.97423161707E+03  0.80233583336E+02 0.  0.
          5    1    5    5  501    0  0.19853044075E+02 -0.34671903469E+02  0.14756066934E+03  0.15294615191E+03  0.47000000000E+01 0. -1.
        -13    1    6    6    0    0 -0.13045362550E+02  0.33613797953E+02  0.12123968618E+03  0.12648766897E+03  0.00000000000E+00 0.  1.
         14    1    6    6    0    0  0.90087760438E+02  0.11967032851E+03  0.83440578224E+03  0.84774394810E+03  0.00000000000E+00 0. -1.
         -5    1    3    3    0  503 -0.83904019235E+02 -0.24255522773E+02  0.95396059002E+02  0.12942454521E+03  0.47000000000E+01 0.  1.
         13    1    4    4    0    0 -0.19471972496E+02 -0.49556870871E+02  0.48627866780E+02  0.72109018790E+02  0.00000000000E+00 0. -1.
        -14    1    4    4    0    0  0.64805497685E+01 -0.44799829356E+02 -0.31355223022E+02  0.55065163637E+02  0.00000000000E+00 0.  1.
<mgrwt>
<rscale>  2 0.23105507E+03</rscale>
<asrwt>0</asrwt>
<pdfrwt beam="1">  1       21 0.19997317E+00 0.23122703E+03</pdfrwt>
<pdfrwt beam="2">  1       21 0.12915513E-01 0.23122703E+03</pdfrwt>
<totfact> 0.66891528E+03</totfact>
</mgrwt>
</event>
<event>
12    1  0.1019868E-001  0.1905161E+03  0.7546771E-02  0.1158577E+00
         21   -1    0    0  503  502  0.00000000000E+00  0.00000000000E+00  0.67500936475E+03  0.67500936475E+03  0.00000000000E+00 0.  1.
         21   -1    0    0  501  503 -0.00000000000E+00 -0.00000000000E+00 -0.12563471051E+03  0.12563471051E+03  0.00000000000E+00 0.  1.
          6    2    1    2  501    0 -0.20188271953E+02  0.74303664246E+02 -0.28805985462E+02  0.19268153752E+03  0.17426356262E+03 0.  0.
         24    2    3    3    0    0  0.14187722519E+02  0.82589781207E+02  0.33014401374E+02  0.12130774010E+03  0.81260406589E+02 0.  0.
         -6    2    1    2    0  502  0.20188271953E+02 -0.74303664246E+02  0.57818063971E+03  0.60796253774E+03  0.17145551701E+03 0.  0.
        -24    2    5    5    0    0  0.44203707828E+02  0.15959291779E+02  0.23152782032E+03  0.24891600931E+03  0.78392482583E+02 0.  0.
          5    1    3    3  501    0 -0.34375994472E+02 -0.82861169612E+01 -0.61820386836E+02  0.71373797425E+02  0.47000000000E+01 0. -1.
        -11    1    4    4    0    0 -0.24415948515E+02 -0.73964776035E+00  0.11426245452E+02  0.26967474962E+02  0.00000000000E+00 0.  1.
         12    1    4    4    0    0  0.38603671034E+02  0.83329428968E+02  0.21588155922E+02  0.94340265134E+02  0.00000000000E+00 0. -1.
         -5    1    5    5    0  502 -0.24015435874E+02 -0.90262956026E+02  0.34665281938E+03  0.35904652843E+03  0.47000000000E+01 0.  1.
         11    1    6    6    0    0  0.45653226392E+02  0.26792517392E+01  0.53476644493E+02  0.70364387129E+02  0.00000000000E+00 0. -1.
        -12    1    6    6    0    0 -0.14495185639E+01  0.13280040040E+02  0.17805117583E+03  0.17855162218E+03  0.00000000000E+00 0.  1.
<mgrwt>
<rscale>  2 0.18987158E+03</rscale>
<asrwt>0</asrwt>
<pdfrwt beam="1">  1       21 0.10384759E+00 0.19051612E+03</pdfrwt>
<pdfrwt beam="2">  1       21 0.19328417E-01 0.19051612E+03</pdfrwt>
<totfact> 0.18481369E+04</totfact>
</mgrwt>
</event>
<event>
12    1  0.1019868E-001  0.1895634E+03  0.7546771E-02  0.1158949E+00
         21   -1    0    0  501  502  0.00000000000E+00  0.00000000000E+00  0.10653896630E+04  0.10653896630E+04  0.00000000000E+00 0. -1.
         21   -1    0    0  502  503 -0.00000000000E+00 -0.00000000000E+00 -0.41492491231E+02  0.41492491231E+02  0.00000000000E+00 0. -1.
         -6    2    1    2    0  503  0.68760781633E+02 -0.33846126050E+02  0.27187322040E+03  0.33143525639E+03  0.17338014843E+03 0.  0.
        -24    2    3    3    0    0 -0.71790083877E+01 -0.15899504325E+02  0.22735711556E+03  0.24147578480E+03  0.79466749319E+02 0.  0.
          6    2    1    2  501    0 -0.68760781633E+02  0.33846126050E+02  0.75202395139E+03  0.77544689787E+03  0.17292848984E+03 0.  0.
         24    2    5    5    0    0 -0.37858420277E+02  0.22312246718E+00  0.70181845661E+03  0.70741643400E+03  0.80346470273E+02 0.  0.
          5    1    5    5  501    0 -0.30902361356E+02  0.33623003582E+02  0.50205494786E+02  0.68030463867E+02  0.47000000000E+01 0. -1.
        -13    1    6    6    0    0 -0.52876729866E+02 -0.80912238764E+01  0.26950916022E+03  0.27476645339E+03  0.00000000000E+00 0.  1.
         14    1    6    6    0    0  0.15018309589E+02  0.83143463436E+01  0.43230929639E+03  0.43264998061E+03  0.00000000000E+00 0. -1.
         -5    1    3    3    0  503  0.75939790021E+02 -0.17946621725E+02  0.44516104840E+02  0.89959471596E+02  0.47000000000E+01 0.  1.
         13    1    4    4    0    0 -0.35838373676E+02  0.94392057102E+01  0.66472841383E+02  0.76106019957E+02  0.00000000000E+00 0. -1.
        -14    1    4    4    0    0  0.28659365289E+02 -0.25338710035E+02  0.16088427418E+03  0.16536976484E+03  0.00000000000E+00 0.  1.
<mgrwt>
<rscale>  2 0.18946006E+03</rscale>
<asrwt>0</asrwt>
<pdfrwt beam="1">  1       21 0.16390608E+00 0.18956340E+03</pdfrwt>
<pdfrwt beam="2">  1       21 0.63834610E-02 0.18956340E+03</pdfrwt>
<totfact> 0.41883312E+04</totfact>
</mgrwt>
</event>
<event>
12    1  0.1019868E-001  0.1927560E+03  0.7546771E-02  0.1156021E+00
         21   -1    0    0  503  502  0.00000000000E+00  0.00000000000E+00  0.83915350621E+03  0.83915350621E+03  0.00000000000E+00 0.  1.
         21   -1    0    0  501  503 -0.00000000000E+00 -0.00000000000E+00 -0.62293387590E+02  0.62293387590E+02  0.00000000000E+00 0. -1.
          6    2    1    2  501    0  0.69812274318E+02  0.48639919597E+02  0.14595169291E+03  0.24177838467E+03  0.17296038624E+03 0.  0.
         24    2    3    3    0    0  0.68260249114E+00  0.80788681742E+02  0.69406627888E+02  0.13364101179E+03  0.80717798497E+02 0.  0.
         -6    2    1    2    0  502 -0.69812274318E+02 -0.48639919597E+02  0.63090842571E+03  0.65966850913E+03  0.17285110610E+03 0.  0.
        -24    2    5    5    0    0 -0.16604586299E+01  0.13523756818E+02  0.13160478542E+03  0.15189374818E+03  0.74607252127E+02 0.  0.
          5    1    3    3  501    0  0.69129671827E+02 -0.32148762145E+02  0.76545065023E+02  0.10813737288E+03  0.47000000000E+01 0. -1.
        -11    1    4    4    0    0  0.18950473575E+02  0.90535430079E+02  0.49460506145E+02  0.10489102067E+03  0.00000000000E+00 0.  1.
         12    1    4    4    0    0 -0.18267871084E+02 -0.97467483373E+01  0.19946121743E+02  0.28749991125E+02  0.00000000000E+00 0. -1.
         -5    1    5    5    0  502 -0.68151815688E+02 -0.62163676415E+02  0.49930364029E+03  0.50777476094E+03  0.47000000000E+01 0.  1.
         13    1    6    6    0    0  0.10650453124E+02 -0.76449179429E+01 -0.43023262883E+01  0.13798077170E+02  0.00000000000E+00 0. -1.
        -14    1    6    6    0    0 -0.12310911753E+02  0.21168674761E+02  0.13590711171E+03  0.13809567101E+03  0.00000000000E+00 0.  1.
<mgrwt>
<rscale>  2 0.19273152E+03</rscale>
<asrwt>0</asrwt>
<pdfrwt beam="1">  1       21 0.12910053E+00 0.19275604E+03</pdfrwt>
<pdfrwt beam="2">  1       21 0.95835987E-02 0.19275604E+03</pdfrwt>
<totfact> 0.38475569E+04</totfact>
</mgrwt>
</event>
<event>
12    1  0.1019868E-001  0.1822551E+03  0.7546771E-02  0.1165764E+00
         21   -1    0    0  501  502  0.00000000000E+00  0.00000000000E+00  0.54889417548E+02  0.54889417548E+02  0.00000000000E+00 0.  1.
         21   -1    0    0  502  503 -0.00000000000E+00 -0.00000000000E+00 -0.88496394719E+03  0.88496394719E+03  0.00000000000E+00 0.  1.
         -6    2    1    2    0  503 -0.43813582852E+02  0.31678045541E+02 -0.67968863813E+03  0.70356364619E+03  0.17349936837E+03 0.  0.
        -24    2    3    3    0    0 -0.37353019374E+02  0.84217525803E+02 -0.37771948975E+03  0.39695380871E+03  0.80077922073E+02 0.  0.
          6    2    1    2  501    0  0.43813582852E+02 -0.31678045541E+02 -0.15038589151E+03  0.23628971854E+03  0.17405110201E+03 0.  0.
         24    2    5    5    0    0 -0.11886692545E+02 -0.34190111556E+02 -0.14950800536E+03  0.18032819748E+03  0.94102911498E+02 0.  0.
          5    1    5    5  501    0  0.55700275397E+02  0.25120660156E+01 -0.87788614425E+00  0.55961521057E+02  0.47000000000E+01 0. -1.
        -11    1    6    6    0    0 -0.16868765692E+02 -0.64047166855E+02 -0.75871394418E+02  0.10071277639E+03  0.00000000000E+00 0.  1.
         12    1    6    6    0    0  0.49820731473E+01  0.29857055298E+02 -0.73636610944E+02  0.79615421089E+02  0.00000000000E+00 0. -1.
         -5    1    3    3    0  503 -0.64605634788E+01 -0.52539480262E+02 -0.30196914838E+03  0.30660983749E+03  0.47000000000E+01 0.  1.
         11    1    4    4    0    0  0.30814890397E+01  0.59433145776E+02 -0.11001032309E+03  0.12507623907E+03  0.00000000000E+00 0. -1.
        -12    1    4    4    0    0 -0.40434508413E+02  0.24784380027E+02 -0.26770916665E+03  0.27187756964E+03  0.00000000000E+00 0.  1.
<mgrwt>
<rscale>  2 0.18212323E+03</rscale>
<asrwt>0</asrwt>
<pdfrwt beam="1">  1       21 0.84445256E-02 0.18225508E+03</pdfrwt>
<pdfrwt beam="2">  1       21 0.13614830E+00 0.18225508E+03</pdfrwt>
<totfact> 0.42229011E+04</totfact>
</mgrwt>
</event>
<event>
12    1  0.1019868E-001  0.1844239E+03  0.7546771E-02  0.1163682E+00
         21   -1    0    0  503  502  0.00000000000E+00  0.00000000000E+00  0.14090562975E+03  0.14090562975E+03  0.00000000000E+00 0. -1.
         21   -1    0    0  501  503 -0.00000000000E+00 -0.00000000000E+00 -0.28083148244E+03  0.28083148244E+03  0.00000000000E+00 0. -1.
          6    2    1    2  501    0 -0.63442904348E+02  0.24374425021E+02 -0.14957516542E+03  0.23745502641E+03  0.17144399887E+03 0.  0.
         24    2    3    3    0    0 -0.93737890036E+02  0.15191477922E+02 -0.15919621614E+03  0.20403695806E+03  0.85264717160E+02 0.  0.
         -6    2    1    2    0  502  0.63442904348E+02 -0.24374425021E+02  0.96493127336E+01  0.18428208577E+03  0.17101948191E+03 0.  0.
        -24    2    5    5    0    0  0.57190345800E+02  0.44577593213E+02  0.12180626612E+02  0.11484165910E+03  0.88217580621E+02 0.  0.
          5    1    3    3  501    0  0.30294985689E+02  0.91829470984E+01  0.96210507167E+01  0.33418068349E+02  0.47000000000E+01 0. -1.
        -13    1    4    4    0    0 -0.19604932570E+02  0.39224139830E+01  0.74192845601E+01  0.21325676916E+02  0.00000000000E+00 0.  1.
         14    1    4    4    0    0 -0.74132957466E+02  0.11269063939E+02 -0.16661550070E+03  0.18271128115E+03  0.00000000000E+00 0. -1.
         -5    1    5    5    0  502  0.62525585476E+01 -0.68952018234E+02 -0.25313138787E+01  0.69440426675E+02  0.47000000000E+01 0.  1.
         13    1    6    6    0    0 -0.23928298576E+02  0.10811099668E+02  0.45081323352E+01  0.26641445267E+02  0.00000000000E+00 0. -1.
        -14    1    6    6    0    0  0.81118644376E+02  0.33766493545E+02  0.76724942770E+01  0.88200213833E+02  0.00000000000E+00 0.  1.
<mgrwt>
<rscale>  2 0.18432514E+03</rscale>
<asrwt>0</asrwt>
<pdfrwt beam="1">  1       21 0.21677789E-01 0.18442386E+03</pdfrwt>
<pdfrwt beam="2">  1       21 0.43204844E-01 0.18442386E+03</pdfrwt>
<totfact> 0.10253814E+05</totfact>
</mgrwt>
</event>
<event>
12    1  0.1019868E-001  0.1919645E+03  0.7546771E-02  0.1156846E+00
         21   -1    0    0  501  502  0.00000000000E+00  0.00000000000E+00  0.57449432638E+02  0.57449432638E+02  0.00000000000E+00 0.  1.
         21   -1    0    0  502  503 -0.00000000000E+00 -0.00000000000E+00 -0.10700163948E+04  0.10700163948E+04  0.00000000000E+00 0. -1.
         -6    2    1    2    0  503  0.70830806183E+02  0.44709742116E+02 -0.86447304001E+03  0.88553035454E+03  0.17272639567E+03 0.  0.
        -24    2    3    3    0    0  0.10303288848E+03  0.65351551341E+02 -0.56012130701E+03  0.57874846822E+03  0.79544387171E+02 0.  0.
          6    2    1    2  501    0 -0.70830806183E+02 -0.44709742116E+02 -0.14809392211E+03  0.24193547285E+03  0.17200290438E+03 0.  0.
         24    2    5    5    0    0  0.19955729023E+02 -0.33259978756E+02 -0.11234814094E+03  0.14358333548E+03  0.80558128985E+02 0.  0.
          5    1    5    5  501    0 -0.90786535206E+02 -0.11449763360E+02 -0.35745781167E+02  0.98352137379E+02  0.47000000000E+01 0. -1.
        -13    1    6    6    0    0  0.12476041835E+02 -0.60096876233E+02 -0.73070993470E+02  0.95428801939E+02  0.00000000000E+00 0.  1.
         14    1    6    6    0    0  0.74796871881E+01  0.26836897477E+02 -0.39277147472E+02  0.48154533537E+02  0.00000000000E+00 0. -1.
         -5    1    3    3    0  503 -0.32202082301E+02 -0.20641809225E+02 -0.30435173300E+03  0.30678188632E+03  0.47000000000E+01 0.  1.
         13    1    4    4    0    0  0.26646238707E+02  0.50380873206E+02 -0.35125996858E+03  0.35585364962E+03  0.00000000000E+00 0. -1.
        -14    1    4    4    0    0  0.76386649776E+02  0.14970678134E+02 -0.20886133843E+03  0.22289481860E+03  0.00000000000E+00 0.  1.
<mgrwt>
<rscale>  2 0.19180162E+03</rscale>
<asrwt>0</asrwt>
<pdfrwt beam="1">  1       21 0.88383746E-02 0.19196451E+03</pdfrwt>
<pdfrwt beam="2">  1       21 0.16461790E+00 0.19196451E+03</pdfrwt>
<totfact> 0.23508206E+04</totfact>
</mgrwt>
</event>
<event>
12    1  0.1019868E-001  0.1792879E+03  0.7546771E-02  0.1169125E+00
         21   -1    0    0  501  502  0.00000000000E+00  0.00000000000E+00  0.22367723671E+03  0.22367723671E+03  0.00000000000E+00 0.  1.
         21   -1    0    0  502  503 -0.00000000000E+00 -0.00000000000E+00 -0.14648100000E+03  0.14648100000E+03  0.00000000000E+00 0.  1.
         -6    2    1    2    0  503 -0.32915098191E+02 -0.36522085305E+02  0.72467802620E+02  0.19337977267E+03  0.17241487076E+03 0.  0.
        -24    2    3    3    0    0 -0.89515157732E+02 -0.34413579433E+02  0.47498763766E+02  0.13130276051E+03  0.76072494674E+02 0.  0.
          6    2    1    2  501    0  0.32915098191E+02  0.36522085305E+02  0.47284340952E+01  0.17677846404E+03  0.16973803598E+03 0.  0.
         24    2    5    5    0    0 -0.30014985520E+01  0.73713025125E+02 -0.31380174121E+02  0.11354010928E+03  0.80399141912E+02 0.  0.
          5    1    5    5  501    0  0.35916596743E+02 -0.37190939820E+02  0.36108608216E+02  0.63238354767E+02  0.47000000000E+01 0. -1.
        -11    1    6    6    0    0 -0.35880677990E+02  0.49528575973E+02  0.14230355871E+01  0.61176203880E+02  0.00000000000E+00 0.  1.
         12    1    6    6    0    0  0.32879179438E+02  0.24184449152E+02 -0.32803209708E+02  0.52363905397E+02  0.00000000000E+00 0. -1.
         -5    1    3    3    0  503  0.56600059541E+02 -0.21085058715E+01  0.24969038854E+02  0.62077012157E+02  0.47000000000E+01 0.  1.
         11    1    4    4    0    0 -0.72796331648E+02  0.11262462719E+02  0.31301436184E+02  0.80037046892E+02  0.00000000000E+00 0. -1.
        -12    1    4    4    0    0 -0.16718826084E+02 -0.45676042153E+02  0.16197327582E+02  0.51265713622E+02  0.00000000000E+00 0.  1.
<mgrwt>
<rscale>  2 0.17864124E+03</rscale>
<asrwt>0</asrwt>
<pdfrwt beam="1">  1       21 0.34411883E-01 0.17928791E+03</pdfrwt>
<pdfrwt beam="2">  1       21 0.22535538E-01 0.17928791E+03</pdfrwt>
<totfact> 0.15076896E+05</totfact>
</mgrwt>
</event>
<event>
12    1  0.1019868E-001  0.1733792E+03  0.7546771E-02  0.1175311E+00
         21   -1    0    0  503  502  0.00000000000E+00  0.00000000000E+00  0.77054463227E+03  0.77054463227E+03  0.00000000000E+00 0. -1.
         21   -1    0    0  501  503 -0.00000000000E+00 -0.00000000000E+00 -0.43013428896E+02  0.43013428896E+02  0.00000000000E+00 0. -1.
          6    2    1    2  501    0 -0.53316730836E+01  0.58520577766E+01  0.22412003331E+03  0.28112668929E+03  0.16952802948E+03 0.  0.
         24    2    3    3    0    0  0.54718472096E+02  0.83911523156E+01  0.18810339632E+03  0.21090023360E+03  0.77662720803E+02 0.  0.
         -6    2    1    2    0  502  0.53316730836E+01 -0.58520577766E+01  0.50341117006E+03  0.53243137188E+03  0.17319840155E+03 0.  0.
        -24    2    5    5    0    0 -0.61324654122E+02 -0.21285593166E+02  0.33144248712E+03  0.34729202467E+03  0.80893995163E+02 0.  0.
          5    1    3    3  501    0 -0.60050145180E+02 -0.25390945391E+01  0.36016636993E+02  0.70226455681E+02  0.47000000000E+01 0. -1.
        -11    1    4    4    0    0  0.12842179521E+02 -0.15898277488E+02  0.43739672239E+01  0.20899961512E+02  0.00000000000E+00 0.  1.
         12    1    4    4    0    0  0.41876292575E+02  0.24289429804E+02  0.18372942909E+03  0.19000027209E+03  0.00000000000E+00 0. -1.
         -5    1    5    5    0  502  0.66656327206E+02  0.15433535389E+02  0.17196868294E+03  0.18513934721E+03  0.47000000000E+01 0.  1.
         11    1    6    6    0    0 -0.10544426400E+02 -0.42571911463E+02  0.20055524815E+03  0.20529481273E+03  0.00000000000E+00 0. -1.
        -12    1    6    6    0    0 -0.50780227722E+02  0.21286318297E+02  0.13088723897E+03  0.14199721194E+03  0.00000000000E+00 0.  1.
<mgrwt>
<rscale>  2 0.17245526E+03</rscale>
<asrwt>0</asrwt>
<pdfrwt beam="1">  1       21 0.11854532E+00 0.17337924E+03</pdfrwt>
<pdfrwt beam="2">  1       21 0.66174512E-02 0.17337924E+03</pdfrwt>
<totfact> 0.91498708E+04</totfact>
</mgrwt>
</event>
<event>
12    1  0.1019868E-001  0.1781016E+03  0.7546771E-02  0.1169748E+00
         21   -1    0    0  501  502  0.00000000000E+00  0.00000000000E+00  0.84441658489E+02  0.84441658489E+02  0.00000000000E+00 0.  1.
         21   -1    0    0  502  503 -0.00000000000E+00 -0.00000000000E+00 -0.44430332076E+03  0.44430332076E+03  0.00000000000E+00 0.  1.
         -6    2    1    2    0  503  0.25392253771E+01 -0.39287953160E+02 -0.28430580895E+03  0.33527957666E+03  0.17329919385E+03 0.  0.
        -24    2    3    3    0    0  0.62143773835E+02  0.51795706633E+01 -0.18450390385E+03  0.21073009599E+03  0.80478607358E+02 0.  0.
          6    2    1    2  501    0 -0.25392253771E+01  0.39287953160E+02 -0.75555853320E+02  0.19346540259E+03  0.17369566518E+03 0.  0.
         24    2    5    5    0    0 -0.15908825282E+02 -0.32550502182E+02 -0.28636557373E+01  0.90287132319E+02  0.82649499841E+02 0.  0.
          5    1    5    5  501    0  0.13369599905E+02  0.71838455342E+02 -0.72692197583E+02  0.10317827028E+03  0.47000000000E+01 0. -1.
        -13    1    6    6    0    0 -0.33318466051E+02  0.12787568003E+02  0.14763604689E+02  0.38621316638E+02  0.00000000000E+00 0.  1.
         14    1    6    6    0    0  0.17409640769E+02 -0.45338070185E+02 -0.17627260426E+02  0.51665815681E+02  0.00000000000E+00 0. -1.
         -5    1    3    3    0  503 -0.59604548458E+02 -0.44467523823E+02 -0.99801905107E+02  0.12454948067E+03  0.47000000000E+01 0.  1.
         11    1    4    4    0    0  0.12310095835E+02  0.36538796798E+02 -0.44688954013E+02  0.59023086515E+02  0.00000000000E+00 0. -1.
        -12    1    4    4    0    0  0.49833678000E+02 -0.31359226135E+02 -0.13981494983E+03  0.15170700947E+03  0.00000000000E+00 0.  1.
<mgrwt>
<rscale>  2 0.17800485E+03</rscale>
<asrwt>0</asrwt>
<pdfrwt beam="1">  1       21 0.12991024E-01 0.17810159E+03</pdfrwt>
<pdfrwt beam="2">  1       21 0.68354357E-01 0.17810159E+03</pdfrwt>
<totfact> 0.99933100E+04</totfact>
</mgrwt>
</event>
<event>
12    1  0.1019868E-001  0.2331250E+03  0.7546771E-02  0.1124725E+00
         21   -1    0    0  503  502  0.00000000000E+00  0.00000000000E+00  0.78514974777E+03  0.78514974777E+03  0.00000000000E+00 0.  1.
         21   -1    0    0  501  503 -0.00000000000E+00 -0.00000000000E+00 -0.10187055241E+03  0.10187055241E+03  0.00000000000E+00 0. -1.
          6    2    1    2  501    0 -0.76119776997E+02 -0.13333600346E+03  0.89570919244E+02  0.24974032932E+03  0.17542682875E+03 0.  0.
         24    2    3    3    0    0  0.10000918539E+02 -0.70289557757E+01  0.20432149494E+02  0.81893661268E+02  0.78356074633E+02 0.  0.
         -6    2    1    2    0  502  0.76119776997E+02  0.13333600346E+03  0.59370827612E+03  0.63727997086E+03  0.17338839019E+03 0.  0.
        -24    2    5    5    0    0  0.84670626169E+02  0.53003165848E+02  0.48608797869E+03  0.50262968219E+03  0.79853765478E+02 0.  0.
          5    1    3    3  501    0 -0.86120695535E+02 -0.12630704769E+03  0.69138769750E+02  0.16784666806E+03  0.47000000000E+01 0. -1.
        -11    1    4    4    0    0  0.65619284423E+01  0.26963439384E+02 -0.15930771800E+02  0.31998053979E+02  0.00000000000E+00 0.  1.
         12    1    4    4    0    0  0.34389900963E+01 -0.33992395160E+02  0.36362921294E+02  0.49895607288E+02  0.00000000000E+00 0. -1.
         -5    1    5    5    0  502 -0.85508491719E+01  0.80332837614E+02  0.10762029743E+03  0.13465028867E+03  0.47000000000E+01 0.  1.
         13    1    6    6    0    0  0.24334944484E+02  0.28099924720E+02  0.53508514926E+02  0.65153330398E+02  0.00000000000E+00 0. -1.
        -14    1    6    6    0    0  0.60335681685E+02  0.24903241128E+02  0.43257946377E+03  0.43747635179E+03  0.00000000000E+00 0.  1.
<mgrwt>
<rscale>  2 0.23274158E+03</rscale>
<asrwt>0</asrwt>
<pdfrwt beam="1">  1       21 0.12079226E+00 0.23312504E+03</pdfrwt>
<pdfrwt beam="2">  1       21 0.15672393E-01 0.23312504E+03</pdfrwt>
<totfact> 0.18353318E+04</totfact>
</mgrwt>
</event>
<event>
12    1  0.1019868E-001  0.2151680E+03  0.7546771E-02  0.1137919E+00
         21   -1    0    0  501  502  0.00000000000E+00  0.00000000000E+00  0.42552955037E+03  0.42552955037E+03  0.00000000000E+00 0.  1.
         21   -1    0    0  502  503 -0.00000000000E+00 -0.00000000000E+00 -0.34499626432E+03  0.34499626432E+03  0.00000000000E+00 0.  1.
         -6    2    1    2    0  503  0.94877550259E+02  0.84215450219E+02 -0.27912385860E+03  0.35243070153E+03  0.17379090695E+03 0.  0.
        -24    2    3    3    0    0  0.79474719134E+02  0.73510977480E+02 -0.29680167899E+03  0.32623092525E+03  0.81334403191E+02 0.  0.
          6    2    1    2  501    0 -0.94877550259E+02 -0.84215450219E+02  0.35965714464E+03  0.41809511316E+03  0.17133671632E+03 0.  0.
         24    2    5    5    0    0 -0.67368871263E+02 -0.12597087344E+03  0.27389744974E+03  0.31871172392E+03  0.78422727675E+02 0.  0.
          5    1    5    5  501    0 -0.27508678997E+02  0.41755423222E+02  0.85759694901E+02  0.99383389247E+02  0.47000000000E+01 0. -1.
        -13    1    6    6    0    0 -0.56001854542E+01  0.60512810736E+01  0.55711241066E+02  0.56318047381E+02  0.00000000000E+00 0.  1.
         14    1    6    6    0    0 -0.61768685809E+02 -0.13202215451E+03  0.21818620868E+03  0.26239367654E+03  0.00000000000E+00 0. -1.
         -5    1    3    3    0  503  0.15402831126E+02  0.10704472738E+02  0.17677820392E+02  0.26199776280E+02  0.47000000000E+01 0.  1.
         11    1    4    4    0    0  0.90762889952E+01  0.15576274602E+02 -0.25854850758E+01  0.18212196065E+02  0.00000000000E+00 0. -1.
        -12    1    4    4    0    0  0.70398430138E+02  0.57934702878E+02 -0.29421619392E+03  0.30801872918E+03  0.00000000000E+00 0.  1.
<mgrwt>
<rscale>  2 0.21467196E+03</rscale>
<asrwt>0</asrwt>
<pdfrwt beam="1">  1       21 0.65466085E-01 0.21516801E+03</pdfrwt>
<pdfrwt beam="2">  1       21 0.53076348E-01 0.21516801E+03</pdfrwt>
<totfact> 0.70999965E+03</totfact>
</mgrwt>
</event>
<event>
12    1  0.1019868E-001  0.1897220E+03  0.7546771E-02  0.1158713E+00
         21   -1    0    0  503  502  0.00000000000E+00  0.00000000000E+00  0.16483393418E+04  0.16483393418E+04  0.00000000000E+00 0.  1.
         21   -1    0    0  501  503 -0.00000000000E+00 -0.00000000000E+00 -0.21972216794E+03  0.21972216794E+03  0.00000000000E+00 0.  1.
          6    2    1    2  501    0  0.17993065258E+02  0.76358874740E+02 -0.17209607028E+03  0.25614422337E+03  0.17273788702E+03 0.  0.
         24    2    3    3    0    0  0.94973362007E+01  0.10996164839E+03 -0.17663323981E+03  0.22087384321E+03  0.73513194020E+02 0.  0.
         -6    2    1    2    0  502 -0.17993065258E+02 -0.76358874740E+02  0.16007132441E+04  0.16119172864E+04  0.17274264091E+03 0.  0.
        -24    2    5    5    0    0  0.49591462597E+02 -0.19436968310E+02  0.98913927876E+03  0.99397507470E+03  0.82175589044E+02 0.  0.
          5    1    3    3  501    0  0.84957290568E+01 -0.33602773655E+02  0.45371695303E+01  0.35270380163E+02  0.47000000000E+01 0. -1.
        -13    1    4    4    0    0  0.20855229542E+02  0.57388208734E+02 -0.37378167093E+02  0.71592419125E+02  0.00000000000E+00 0.  1.
         14    1    4    4    0    0 -0.11357893341E+02  0.52573439661E+02 -0.13925507271E+03  0.14928142408E+03  0.00000000000E+00 0. -1.
         -5    1    5    5    0  502 -0.67584527854E+02 -0.56921906429E+02  0.61157396537E+03  0.61794221166E+03  0.47000000000E+01 0.  1.
         11    1    6    6    0    0  0.33974323231E+01 -0.43708634854E+02  0.35605464705E+03  0.35874350028E+03  0.00000000000E+00 0. -1.
        -12    1    6    6    0    0  0.46194030274E+02  0.24271666544E+02  0.63308463172E+03  0.63523157442E+03  0.00000000000E+00 0.  1.
<mgrwt>
<rscale>  2 0.18972095E+03</rscale>
<asrwt>0</asrwt>
<pdfrwt beam="1">  1       21 0.25359066E+00 0.18972203E+03</pdfrwt>
<pdfrwt beam="2">  1       21 0.33803412E-01 0.18972203E+03</pdfrwt>
<totfact> 0.53613013E+02</totfact>
</mgrwt>
</event>
<event>
12    1  0.1019868E-001  0.2238609E+03  0.7546771E-02  0.1131463E+00
         21   -1    0    0  501  502  0.00000000000E+00  0.00000000000E+00  0.12043600642E+04  0.12043600642E+04  0.00000000000E+00 0. -1.
         21   -1    0    0  502  503 -0.00000000000E+00 -0.00000000000E+00 -0.63967009847E+02  0.63967009847E+02  0.00000000000E+00 0. -1.
         -6    2    1    2    0  503  0.87309500233E+02  0.11061102785E+03  0.19360687486E+03  0.29596841842E+03  0.17394233067E+03 0.  0.
        -24    2    3    3    0    0  0.11606198566E+03  0.38076079885E+02  0.12377393109E+03  0.19115069984E+03  0.79362659080E+02 0.  0.
          6    2    1    2  501    0 -0.87309500233E+02 -0.11061102785E+03  0.94678617954E+03  0.97235865567E+03  0.17093723167E+03 0.  0.
         24    2    5    5    0    0 -0.11870831605E+03 -0.69602229342E+02  0.56350781771E+03  0.58558740566E+03  0.80221034718E+02 0.  0.
          5    1    5    5  501    0  0.31398815821E+02 -0.41008798510E+02  0.38327836183E+03  0.38677125001E+03  0.47000000000E+01 0. -1.
        -11    1    6    6    0    0 -0.92977549324E+01  0.15621447342E+02  0.10507752371E+03  0.10663847267E+03  0.00000000000E+00 0.  1.
         12    1    6    6    0    0 -0.10941056112E+03 -0.85223676684E+02  0.45843029400E+03  0.47894893299E+03  0.00000000000E+00 0. -1.
         -5    1    3    3    0  503 -0.28752485423E+02  0.72534947966E+02  0.69832943764E+02  0.10481771858E+03  0.47000000000E+01 0.  1.
         11    1    4    4    0    0  0.45265888039E+01  0.25015473474E+02  0.19979343099E+01  0.25500110997E+02  0.00000000000E+00 0. -1.
        -12    1    4    4    0    0  0.11153539685E+03  0.13060606411E+02  0.12177599678E+03  0.16565058884E+03  0.00000000000E+00 0.  1.
<mgrwt>
<rscale>  2 0.22327684E+03</rscale>
<asrwt>0</asrwt>
<pdfrwt beam="1">  1       21 0.18528615E+00 0.22386086E+03</pdfrwt>
<pdfrwt beam="2">  1       21 0.98410793E-02 0.22386086E+03</pdfrwt>
<totfact> 0.13670780E+04</totfact>
</mgrwt>
</event>
<event>
12    1  0.1019868E-001  0.2177198E+03  0.7546771E-02  0.1135871E+00
         21   -1    0    0  501  502  0.00000000000E+00  0.00000000000E+00  0.37102302863E+03  0.37102302863E+03  0.00000000000E+00 0.  1.
         21   -1    0    0  502  503 -0.00000000000E+00 -0.00000000000E+00 -0.13916382773E+03  0.13916382773E+03  0.00000000000E+00 0. -1.
         -6    2    1    2    0  503  0.12466289361E+03 -0.39589007725E+02  0.19199629496E+03  0.29028346836E+03  0.17405110786E+03 0.  0.
        -24    2    3    3    0    0  0.72125462615E+02 -0.83442887818E+02  0.17024917005E+03  0.21832256303E+03  0.80716564216E+02 0.  0.
          6    2    1    2  501    0 -0.12466289361E+03  0.39589007725E+02  0.39862905939E+02  0.21990338799E+03  0.17222172397E+03 0.  0.
         24    2    5    5    0    0 -0.20319498544E+02 -0.30016186403E+02  0.21360828137E+02  0.93030049477E+02  0.82972595836E+02 0.  0.
          5    1    5    5  501    0 -0.10434339506E+03  0.69605194129E+02  0.18502077801E+02  0.12687333852E+03  0.47000000000E+01 0. -1.
        -11    1    6    6    0    0 -0.12992640224E+02  0.68530685162E+01  0.45863923587E+02  0.48158828213E+02  0.00000000000E+00 0.  1.
         12    1    6    6    0    0 -0.73268583205E+01 -0.36869254919E+02 -0.24503095449E+02  0.44871221265E+02  0.00000000000E+00 0. -1.
         -5    1    3    3    0  503  0.52537430994E+02  0.43853880092E+02  0.21747124912E+02  0.71960905334E+02  0.47000000000E+01 0.  1.
         11    1    4    4    0    0  0.20056806766E+02 -0.36624939490E+02  0.13218446265E+03  0.13862320822E+03  0.00000000000E+00 0. -1.
        -12    1    4    4    0    0  0.52068655848E+02 -0.46817948327E+02  0.38064707399E+02  0.79699354808E+02  0.00000000000E+00 0.  1.
<mgrwt>
<rscale>  2 0.21735397E+03</rscale>
<asrwt>0</asrwt>
<pdfrwt beam="1">  1       21 0.57080466E-01 0.21771981E+03</pdfrwt>
<pdfrwt beam="2">  1       21 0.21409820E-01 0.21771981E+03</pdfrwt>
<totfact> 0.57897900E+04</totfact>
</mgrwt>
</event>
<event>
12    1  0.1019868E-001  0.3257663E+03  0.7546771E-02  0.1073031E+00
         21   -1    0    0  503  502  0.00000000000E+00  0.00000000000E+00  0.14318109486E+03  0.14318109486E+03  0.00000000000E+00 0. -1.
         21   -1    0    0  501  503 -0.00000000000E+00 -0.00000000000E+00 -0.76743244114E+03  0.76743244114E+03  0.00000000000E+00 0.  1.
          6    2    1    2  501    0 -0.22590849603E+03  0.15892944859E+03 -0.22774398398E+03  0.39744517925E+03  0.17263293446E+03 0.  0.
         24    2    3    3    0    0 -0.80185384863E+02  0.87711077181E+02 -0.39247265202E+02  0.14872769988E+03  0.80353294136E+02 0.  0.
         -6    2    1    2    0  502  0.22590849603E+03 -0.15892944859E+03 -0.39650736230E+03  0.51316835675E+03  0.17271495536E+03 0.  0.
        -24    2    5    5    0    0  0.22758121455E+03 -0.16928027260E+03 -0.31740274806E+03  0.43323358623E+03  0.80609030817E+02 0.  0.
          5    1    3    3  501    0 -0.14572311117E+03  0.71218371407E+02 -0.18849671878E+03  0.24871747937E+03  0.47000000000E+01 0. -1.
        -11    1    4    4    0    0 -0.62672609102E+02  0.97958631721E+01 -0.20902001260E+02  0.66788535869E+02  0.00000000000E+00 0.  1.
         12    1    4    4    0    0 -0.17512775761E+02  0.77915214009E+02 -0.18345263943E+02  0.81939164006E+02  0.00000000000E+00 0. -1.
         -5    1    5    5    0  502 -0.16727185223E+01  0.10350824011E+02 -0.79104614235E+02  0.79934770521E+02  0.47000000000E+01 0.  1.
         13    1    6    6    0    0  0.91721861204E+02 -0.57104217964E+02 -0.67254463644E+02  0.12726725585E+03  0.00000000000E+00 0. -1.
        -14    1    6    6    0    0  0.13585935335E+03 -0.11217605464E+03 -0.25014828442E+03  0.30596633038E+03  0.00000000000E+00 0.  1.
<mgrwt>
<rscale>  2 0.32575542E+03</rscale>
<asrwt>0</asrwt>
<pdfrwt beam="1">  1       21 0.22027861E-01 0.32576629E+03</pdfrwt>
<pdfrwt beam="2">  1       21 0.11806653E+00 0.32576629E+03</pdfrwt>
<totfact> 0.98230599E+03</totfact>
</mgrwt>
</event>
<event>
12    1  0.1019868E-001  0.2206859E+03  0.7546771E-02  0.1133489E+00
         21   -1    0    0  503  502  0.00000000000E+00  0.00000000000E+00  0.19619942582E+04  0.19619942582E+04  0.00000000000E+00 0.  1.
         21   -1    0    0  501  503 -0.00000000000E+00 -0.00000000000E+00 -0.35271409661E+02  0.35271409661E+02  0.00000000000E+00 0.  1.
          6    2    1    2  501    0  0.13688789271E+03 -0.38955900611E+01  0.41896842660E+03  0.47353648147E+03  0.17305717552E+03 0.  0.
         24    2    3    3    0    0  0.11836895924E+03 -0.54428518814E+02  0.20639611557E+03  0.25420658108E+03  0.71048963205E+02 0.  0.
         -6    2    1    2    0  502 -0.13688789271E+03  0.38955900611E+01  0.15077544220E+04  0.15237291864E+04  0.17226074945E+03 0.  0.
        -24    2    5    5    0    0 -0.16081389914E+03 -0.22378844575E+02  0.13444809728E+04  0.13565672622E+04  0.79269968280E+02 0.  0.
          5    1    3    3  501    0  0.18518933476E+02  0.50532928753E+02  0.21257231104E+03  0.21932990039E+03  0.47000000000E+01 0. -1.
        -11    1    4    4    0    0  0.36540833893E+02  0.51765608739E+01  0.10339510222E+03  0.10978422695E+03  0.00000000000E+00 0.  1.
         12    1    4    4    0    0  0.81828125343E+02 -0.59605079688E+02  0.10300101334E+03  0.14442235413E+03  0.00000000000E+00 0. -1.
         -5    1    5    5    0  502  0.23926006430E+02  0.26274434636E+02  0.16327344916E+03  0.16716192419E+03  0.47000000000E+01 0.  1.
         11    1    6    6    0    0 -0.10165260031E+02  0.15628172434E+02  0.62958333439E+02  0.65660673424E+02  0.00000000000E+00 0. -1.
        -12    1    6    6    0    0 -0.15064863911E+03 -0.38007017009E+02  0.12815226394E+04  0.12909065888E+04  0.00000000000E+00 0.  1.
<mgrwt>
<rscale>  2 0.22052972E+03</rscale>
<asrwt>0</asrwt>
<pdfrwt beam="1">  1       21 0.30184518E+00 0.22068588E+03</pdfrwt>
<pdfrwt beam="2">  1       21 0.54263723E-02 0.22068588E+03</pdfrwt>
<totfact> 0.75704295E+03</totfact>
</mgrwt>
</event>
<event>
12    1  0.1019868E-001  0.1830576E+03  0.7546771E-02  0.1164958E+00
         21   -1    0    0  501  502  0.00000000000E+00  0.00000000000E+00  0.70422458762E+03  0.70422458762E+03  0.00000000000E+00 0.  1.
         21   -1    0    0  502  503 -0.00000000000E+00 -0.00000000000E+00 -0.51342426795E+02  0.51342426795E+02  0.00000000000E+00 0.  1.
         -6    2    1    2    0  503  0.11808942447E+02  0.49215257081E+02  0.22330255995E+03  0.28874574954E+03  0.17592180634E+03 0.  0.
        -24    2    3    3    0    0  0.26033546514E+01 -0.31163210227E+02  0.17229397797E+03  0.19298873262E+03  0.81126524311E+02 0.  0.
          6    2    1    2  501    0 -0.11808942447E+02 -0.49215257081E+02  0.42957960087E+03  0.46682126487E+03  0.17556157666E+03 0.  0.
         24    2    5    5    0    0  0.60977292668E+02 -0.23899734358E+02  0.22412500292E+03  0.24733916188E+03  0.81579510563E+02 0.  0.
          5    1    5    5  501    0 -0.72786235115E+02 -0.25315522723E+02  0.20545459795E+03  0.21948210299E+03  0.47000000000E+01 0. -1.
        -13    1    6    6    0    0  0.49607947279E+01 -0.40827936264E+02  0.13146010451E+03  0.13774356226E+03  0.00000000000E+00 0.  1.
         14    1    6    6    0    0  0.56016497940E+02  0.16928201906E+02  0.92664898405E+02  0.10959559963E+03  0.00000000000E+00 0. -1.
         -5    1    3    3    0  503  0.92055877956E+01  0.80378467308E+02  0.51008581980E+02  0.95757016918E+02  0.47000000000E+01 0.  1.
         11    1    4    4    0    0 -0.17885683593E+02  0.58831940251E+01  0.37357852171E+01  0.19195461461E+02  0.00000000000E+00 0. -1.
        -12    1    4    4    0    0  0.20489038244E+02 -0.37046404252E+02  0.16855819276E+03  0.17379327116E+03  0.00000000000E+00 0.  1.
<mgrwt>
<rscale>  2 0.18297097E+03</rscale>
<asrwt>0</asrwt>
<pdfrwt beam="1">  1       21 0.10834224E+00 0.18305757E+03</pdfrwt>
<pdfrwt beam="2">  1       21 0.78988354E-02 0.18305757E+03</pdfrwt>
<totfact> 0.83476852E+04</totfact>
</mgrwt>
</event>
<event>
12    1  0.1019868E-001  0.1932795E+03  0.7546771E-02  0.1155676E+00
         21   -1    0    0  503  502  0.00000000000E+00  0.00000000000E+00  0.23388091426E+04  0.23388091426E+04  0.00000000000E+00 0.  1.
         21   -1    0    0  501  503 -0.00000000000E+00 -0.00000000000E+00 -0.15967867053E+02  0.15967867053E+02  0.00000000000E+00 0. -1.
          6    2    1    2  501    0  0.82317429753E+02  0.20351963602E+02  0.12238087749E+04  0.12388785381E+04  0.17297905360E+03 0.  0.
         24    2    3    3    0    0  0.22317918268E+02  0.44979499373E+02  0.10316732111E+04  0.10360371672E+04  0.80635924721E+02 0.  0.
         -6    2    1    2    0  502 -0.82317429753E+02 -0.20351963602E+02  0.10990325006E+04  0.11158984715E+04  0.17368534672E+03 0.  0.
        -24    2    5    5    0    0 -0.76883522133E+02 -0.77407269961E+02  0.78533548473E+03  0.79697411824E+03  0.80702912940E+02 0.  0.
          5    1    3    3  501    0  0.59999511485E+02 -0.24627535771E+02  0.19213556378E+03  0.20284137094E+03  0.47000000000E+01 0. -1.
        -11    1    4    4    0    0  0.19386259695E+02  0.93933393121E+01  0.87823119017E+03  0.87849535302E+03  0.00000000000E+00 0.  1.
         12    1    4    4    0    0  0.29316585731E+01  0.35586160061E+02  0.15344202096E+03  0.15754181415E+03  0.00000000000E+00 0. -1.
         -5    1    5    5    0  502 -0.54339076197E+01  0.57055306359E+02  0.31369701589E+03  0.31892435328E+03  0.47000000000E+01 0.  1.
         11    1    6    6    0    0 -0.66405837844E+02 -0.97031995579E+01  0.40266043651E+03  0.40821478967E+03  0.00000000000E+00 0. -1.
        -12    1    6    6    0    0 -0.10477684289E+02 -0.67704070403E+02  0.38267504822E+03  0.38875932857E+03  0.00000000000E+00 0.  1.
<mgrwt>
<rscale>  2 0.19312068E+03</rscale>
<asrwt>0</asrwt>
<pdfrwt beam="1">  1       21 0.35981652E+00 0.19327949E+03</pdfrwt>
<pdfrwt beam="2">  1       21 0.24565968E-02 0.19327949E+03</pdfrwt>
<totfact> 0.13440300E+04</totfact>
</mgrwt>
</event>
<event>
12    1  0.1019868E-001  0.1966933E+03  0.7546771E-02  0.1152801E+00
         21   -1    0    0  503  502  0.00000000000E+00  0.00000000000E+00  0.18680455078E+03  0.18680455078E+03  0.00000000000E+00 0. -1.
         21   -1    0    0  501  503 -0.00000000000E+00 -0.00000000000E+00 -0.21550290976E+03  0.21550290976E+03  0.00000000000E+00 0.  1.
          6    2    1    2  501    0  0.42203029308E+02 -0.79420509273E+02 -0.56787665992E+02  0.20472685279E+03  0.17492721991E+03 0.  0.
         24    2    3    3    0    0  0.38538330587E+02 -0.71466527431E+02 -0.10551154641E+03  0.15499957288E+03  0.79369475883E+02 0.  0.
         -6    2    1    2    0  502 -0.42203029308E+02  0.79420509273E+02  0.28089307016E+02  0.19758060776E+03  0.17366742475E+03 0.  0.
        -24    2    5    5    0    0 -0.80527639745E+02  0.97836201446E+01  0.35680606352E+01  0.11426522133E+03  0.80395209819E+02 0.  0.
          5    1    3    3  501    0  0.36646987215E+01 -0.79539818414E+01  0.48723880414E+02  0.49727279902E+02  0.47000000000E+01 0. -1.
        -13    1    4    4    0    0 -0.20338768902E+02 -0.21591869198E+02 -0.55847561293E+02  0.63236258889E+02  0.00000000000E+00 0.  1.
         14    1    4    4    0    0  0.58877099489E+02 -0.49874658234E+02 -0.49663985113E+02  0.91763313995E+02  0.00000000000E+00 0. -1.
         -5    1    5    5    0  502  0.38324610437E+02  0.69636889128E+02  0.24521246381E+02  0.83315386434E+02  0.47000000000E+01 0.  1.
         13    1    6    6    0    0 -0.51962306015E+02  0.18096023670E+02  0.39413065724E+02  0.67682620139E+02  0.00000000000E+00 0. -1.
        -14    1    6    6    0    0 -0.28565333730E+02 -0.83124035258E+01 -0.35845005089E+02  0.46582601187E+02  0.00000000000E+00 0.  1.
<mgrwt>
<rscale>  2 0.19641279E+03</rscale>
<asrwt>0</asrwt>
<pdfrwt beam="1">  1       21 0.28739162E-01 0.19669328E+03</pdfrwt>
<pdfrwt beam="2">  1       21 0.33154294E-01 0.19669328E+03</pdfrwt>
<totfact> 0.10131039E+05</totfact>
</mgrwt>
</event>
<event>
12    1  0.1019868E-001  0.2316311E+03  0.7546771E-02  0.1125654E+00
         21   -1    0    0  501  502  0.00000000000E+00  0.00000000000E+00  0.32592037533E+02  0.32592037533E+02  0.00000000000E+00 0. -1.
         21   -1    0    0  502  503 -0.00000000000E+00 -0.00000000000E+00 -0.17854894165E+04  0.17854894165E+04  0.00000000000E+00 0. -1.
         -6    2    1    2    0  503 -0.15342080333E+03  0.71101384858E+00 -0.11376741049E+04  0.11610147902E+04  0.17353537285E+03 0.  0.
        -24    2    3    3    0    0 -0.93935559546E+02  0.32222899668E+02 -0.38785288849E+03  0.40816325119E+03  0.79405112605E+02 0.  0.
          6    2    1    2  501    0  0.15342080333E+03 -0.71101384858E+00 -0.61522327411E+03  0.65706666389E+03  0.17233245590E+03 0.  0.
         24    2    5    5    0    0  0.16740642855E+03 -0.13838731937E+02 -0.40079017665E+03  0.44172605466E+03  0.79200497786E+02 0.  0.
          5    1    5    5  501    0 -0.13985625220E+02  0.13127718088E+02 -0.21443309746E+03  0.21534060923E+03  0.47000000000E+01 0. -1.
        -13    1    6    6    0    0  0.28460567665E+02  0.28557879932E+02 -0.93882885842E+02  0.10217412917E+03  0.00000000000E+00 0.  1.
         14    1    6    6    0    0  0.13894586089E+03 -0.42396611869E+02 -0.30690729080E+03  0.33955192549E+03  0.00000000000E+00 0. -1.
         -5    1    3    3    0  503 -0.59485243788E+02 -0.31511885820E+02 -0.74982121642E+03  0.75285153900E+03  0.47000000000E+01 0.  1.
         13    1    4    4    0    0 -0.69993356135E+02  0.46582581805E+02 -0.18267784581E+03  0.20109749422E+03  0.00000000000E+00 0. -1.
        -14    1    4    4    0    0 -0.23942203411E+02 -0.14359682137E+02 -0.20517504267E+03  0.20706575697E+03  0.00000000000E+00 0.  1.
<mgrwt>
<rscale>  2 0.23140583E+03</rscale>
<asrwt>0</asrwt>
<pdfrwt beam="1">  1       21 0.50141597E-02 0.23163112E+03</pdfrwt>
<pdfrwt beam="2">  1       21 0.27469067E+00 0.23163112E+03</pdfrwt>
<totfact> 0.12331951E+04</totfact>
</mgrwt>
</event>
<event>
12    1  0.1019868E-001  0.3040081E+03  0.7546771E-02  0.1084557E+00
         21   -1    0    0  503  502  0.00000000000E+00  0.00000000000E+00  0.12856597076E+04  0.12856597076E+04  0.00000000000E+00 0. -1.
         21   -1    0    0  501  503 -0.00000000000E+00 -0.00000000000E+00 -0.10377710118E+03  0.10377710118E+03  0.00000000000E+00 0.  1.
          6    2    1    2  501    0  0.28975562324E+02 -0.23567577520E+03  0.19829031613E+03  0.36296003371E+03  0.18983751572E+03 0.  0.
         24    2    3    3    0    0 -0.31554843659E+02 -0.13437376481E+03  0.37828597947E+02  0.16372128156E+03  0.79508731502E+02 0.  0.
         -6    2    1    2    0  502 -0.28975562324E+02  0.23567577520E+03  0.98359229032E+03  0.10264767751E+04  0.17267924607E+03 0.  0.
        -24    2    5    5    0    0  0.41321488483E+01  0.19503606231E+03  0.92632336077E+03  0.94869806919E+03  0.62425295474E+02 0.  0.
          5    1    3    3  501    0  0.60530405983E+02 -0.10130201039E+03  0.16046171819E+03  0.19923875215E+03  0.47000000000E+01 0. -1.
        -11    1    4    4    0    0  0.20788151978E+01 -0.97407319846E+02  0.53745664250E+02  0.11127040872E+03  0.00000000000E+00 0.  1.
         12    1    4    4    0    0 -0.33633658857E+02 -0.36966444964E+02 -0.15917066302E+02  0.52450872834E+02  0.00000000000E+00 0. -1.
         -5    1    5    5    0  502 -0.33107711173E+02  0.40639712881E+02  0.57268929550E+02  0.77778705916E+02  0.47000000000E+01 0.  1.
         13    1    6    6    0    0 -0.28899996043E+02  0.10555967611E+03  0.49658253481E+03  0.50850001855E+03  0.00000000000E+00 0. -1.
        -14    1    6    6    0    0  0.33032144892E+02  0.89476386202E+02  0.42974082596E+03  0.44019805063E+03  0.00000000000E+00 0.  1.
<mgrwt>
<rscale>  2 0.30137192E+03</rscale>
<asrwt>0</asrwt>
<pdfrwt beam="1">  1       21 0.19779379E+00 0.30400812E+03</pdfrwt>
<pdfrwt beam="2">  1       21 0.15965709E-01 0.30400812E+03</pdfrwt>
<totfact> 0.44681197E+03</totfact>
</mgrwt>
</event>
<event>
12    1  0.1019868E-001  0.1919031E+03  0.7546771E-02  0.1157832E+00
         21   -1    0    0  501  502  0.00000000000E+00  0.00000000000E+00  0.55547593230E+03  0.55547593230E+03  0.00000000000E+00 0. -1.
         21   -1    0    0  502  503 -0.00000000000E+00 -0.00000000000E+00 -0.10254959885E+03  0.10254959885E+03  0.00000000000E+00 0. -1.
         -6    2    1    2    0  503 -0.25685240050E+02 -0.66885730208E+02  0.24686790118E+02  0.18875386057E+03  0.17287321890E+03 0.  0.
        -24    2    3    3    0    0 -0.55312673224E+02 -0.73322502113E+02 -0.31901582598E+02  0.12438344224E+03  0.77574793566E+02 0.  0.
          6    2    1    2  501    0  0.25685240050E+02  0.66885730208E+02  0.42823954333E+03  0.46927167058E+03  0.17802629547E+03 0.  0.
         24    2    5    5    0    0 -0.37837135973E+02 -0.13241200283E+02  0.21204293927E+03  0.23006782685E+03  0.79762263115E+02 0.  0.
          5    1    5    5  501    0  0.63522376023E+02  0.80126930491E+02  0.21619660406E+03  0.23920384372E+03  0.47000000000E+01 0. -1.
        -13    1    6    6    0    0 -0.55097272285E+02 -0.14234899760E+02  0.87806677368E+02  0.10463438429E+03  0.00000000000E+00 0.  1.
         14    1    6    6    0    0  0.17260136312E+02  0.99369947693E+00  0.12423626190E+03  0.12543344257E+03  0.00000000000E+00 0. -1.
         -5    1    3    3    0  503  0.29627433174E+02  0.64367719050E+01  0.56588372716E+02  0.64370418327E+02  0.47000000000E+01 0.  1.
         11    1    4    4    0    0 -0.24080505206E+01 -0.44385433712E+02  0.16134068451E+02  0.47288197237E+02  0.00000000000E+00 0. -1.
        -12    1    4    4    0    0 -0.52904622703E+02 -0.28937068401E+02 -0.48035651048E+02  0.77095245007E+02  0.00000000000E+00 0.  1.
<mgrwt>
<rscale>  2 0.19069916E+03</rscale>
<asrwt>0</asrwt>
<pdfrwt beam="1">  1       21 0.85457834E-01 0.19190309E+03</pdfrwt>
<pdfrwt beam="2">  1       21 0.15776862E-01 0.19190309E+03</pdfrwt>
<totfact> 0.42362519E+04</totfact>
</mgrwt>
</event>
<event>
12    1  0.1019868E-001  0.2338038E+03  0.7546771E-02  0.1125201E+00
         21   -1    0    0  501  502  0.00000000000E+00  0.00000000000E+00  0.50140416463E+02  0.50140416463E+02  0.00000000000E+00 0.  1.
         21   -1    0    0  502  503 -0.00000000000E+00 -0.00000000000E+00 -0.10976428140E+04  0.10976428140E+04  0.00000000000E+00 0.  1.
         -6    2    1    2    0  503  0.32825925604E+02  0.14242202138E+03 -0.40744408888E+03  0.46635908105E+03  0.17354691974E+03 0.  0.
        -24    2    3    3    0    0  0.45952143863E+02  0.29165356317E+02 -0.10264241650E+03  0.14089707210E+03  0.79713874116E+02 0.  0.
          6    2    1    2  501    0 -0.32825925604E+02 -0.14242202138E+03 -0.64005830870E+03  0.68142414945E+03  0.18249016235E+03 0.  0.
         24    2    5    5    0    0 -0.69695651742E+02 -0.40599039327E+02 -0.43350338437E+03  0.44815537069E+03  0.80076751632E+02 0.  0.
          5    1    5    5  501    0  0.36869726138E+02 -0.10182298205E+03 -0.20655492433E+03  0.23326877876E+03  0.47000000000E+01 0. -1.
        -11    1    6    6    0    0 -0.31431437634E+02  0.64853886404E+01 -0.46958398988E+02  0.56877823209E+02  0.00000000000E+00 0.  1.
         12    1    6    6    0    0 -0.38264214109E+02 -0.47084427967E+02 -0.38654498539E+03  0.39127754748E+03  0.00000000000E+00 0. -1.
         -5    1    3    3    0  503 -0.13126218259E+02  0.11325666506E+03 -0.30480167238E+03  0.32546200895E+03  0.47000000000E+01 0.  1.
         13    1    4    4    0    0 -0.15825190735E+02  0.13903837977E+02 -0.11392815660E+01  0.21096239826E+02  0.00000000000E+00 0. -1.
        -14    1    4    4    0    0  0.61777334599E+02  0.15261518340E+02 -0.10150313494E+03  0.11980083228E+03  0.00000000000E+00 0.  1.
<mgrwt>
<rscale>  2 0.23205645E+03</rscale>
<asrwt>0</asrwt>
<pdfrwt beam="1">  1       21 0.77139100E-02 0.23380383E+03</pdfrwt>
<pdfrwt beam="2">  1       21 0.16886813E+00 0.23380383E+03</pdfrwt>
<totfact> 0.27074648E+04</totfact>
</mgrwt>
</event>
<event>
12    1  0.1019868E-001  0.1778140E+03  0.7546771E-02  0.1170250E+00
         21   -1    0    0  503  502  0.00000000000E+00  0.00000000000E+00  0.14494584457E+03  0.14494584457E+03  0.00000000000E+00 0. -1.
         21   -1    0    0  501  503 -0.00000000000E+00 -0.00000000000E+00 -0.21994734849E+03  0.21994734849E+03  0.00000000000E+00 0. -1.
          6    2    1    2  501    0 -0.20975804377E+02  0.29592565051E+02 -0.59954222738E+02  0.18644362635E+03  0.17277445618E+03 0.  0.
         24    2    3    3    0    0 -0.19888951895E+02 -0.21935506326E+02  0.21798668794E+02  0.89686462992E+02  0.81803073521E+02 0.  0.
         -6    2    1    2    0  502  0.20975804377E+02 -0.29592565051E+02 -0.15047281184E+02  0.17844956670E+03  0.17407504964E+03 0.  0.
        -24    2    5    5    0    0  0.57997963275E+02  0.16526795432E+02 -0.48516909315E+02  0.11033244941E+03  0.78628621961E+02 0.  0.
          5    1    3    3  501    0 -0.10868524823E+01  0.51528071378E+02 -0.81752891532E+02  0.96757163363E+02  0.47000000000E+01 0. -1.
        -11    1    4    4    0    0 -0.19709627830E+02  0.27088716728E+02  0.23019290551E+02  0.40646718695E+02  0.00000000000E+00 0.  1.
         12    1    4    4    0    0 -0.17932406520E+00 -0.49024223055E+02 -0.12206217571E+01  0.49039744297E+02  0.00000000000E+00 0. -1.
         -5    1    5    5    0  502 -0.37022158898E+02 -0.46119360483E+02  0.33469628132E+02  0.68117117292E+02  0.47000000000E+01 0.  1.
         13    1    6    6    0    0  0.44493529590E+02  0.31149290498E+02  0.37111215780E+01  0.54440103759E+02  0.00000000000E+00 0. -1.
        -14    1    6    6    0    0  0.13504433685E+02 -0.14622495066E+02 -0.52228030893E+02  0.55892345649E+02  0.00000000000E+00 0.  1.
<mgrwt>
<rscale>  2 0.17749490E+03</rscale>
<asrwt>0</asrwt>
<pdfrwt beam="1">  1       21 0.22299361E-01 0.17781402E+03</pdfrwt>
<pdfrwt beam="2">  1       21 0.33838054E-01 0.17781402E+03</pdfrwt>
<totfact> 0.15906211E+05</totfact>
</mgrwt>
</event>
<event>
12    1  0.1019868E-001  0.2183314E+03  0.7546771E-02  0.1135983E+00
         21   -1    0    0  501  502  0.00000000000E+00  0.00000000000E+00  0.61121111101E+03  0.61121111101E+03  0.00000000000E+00 0. -1.
         21   -1    0    0  502  503 -0.00000000000E+00 -0.00000000000E+00 -0.15433294421E+03  0.15433294421E+03  0.00000000000E+00 0. -1.
         -6    2    1    2    0  503 -0.12145124565E+03 -0.37052220718E+02  0.50159687541E+03  0.54705393208E+03  0.17760998581E+03 0.  0.
        -24    2    3    3    0    0  0.56327367978E+01 -0.35288274954E+02  0.15609414194E+03  0.17888592840E+03  0.79735839874E+02 0.  0.
          6    2    1    2  501    0  0.12145124565E+03  0.37052220718E+02 -0.44718708610E+02  0.21849012314E+03  0.17208979888E+03 0.  0.
         24    2    5    5    0    0  0.14021566964E+03  0.16524704464E+02 -0.73209121355E+02  0.17839927444E+03  0.80828372494E+02 0.  0.
          5    1    5    5  501    0 -0.18764423989E+02  0.20527516253E+02  0.28490412746E+02  0.40090848701E+02  0.47000000000E+01 0. -1.
        -11    1    6    6    0    0  0.92698335300E+02  0.19054067378E+02 -0.43990635419E+01  0.94738538151E+02  0.00000000000E+00 0.  1.
         12    1    6    6    0    0  0.47517334337E+02 -0.25293629136E+01 -0.68810057813E+02  0.83660736284E+02  0.00000000000E+00 0. -1.
         -5    1    3    3    0  503 -0.12708398245E+03 -0.17639457637E+01  0.34550273347E+03  0.36816800368E+03  0.47000000000E+01 0.  1.
         13    1    4    4    0    0 -0.21052611398E+02 -0.48209327170E+02  0.68235003462E+02  0.86158965699E+02  0.00000000000E+00 0. -1.
        -14    1    4    4    0    0  0.26685348196E+02  0.12921052216E+02  0.87859138474E+02  0.92726962703E+02  0.00000000000E+00 0.  1.
<mgrwt>
<rscale>  2 0.21720605E+03</rscale>
<asrwt>0</asrwt>
<pdfrwt beam="1">  1       21 0.94032477E-01 0.21833135E+03</pdfrwt>
<pdfrwt beam="2">  1       21 0.23743530E-01 0.21833135E+03</pdfrwt>
<totfact> 0.15599671E+04</totfact>
</mgrwt>
</event>
<event>
12    1  0.1019868E-001  0.2458954E+03  0.7546771E-02  0.1115998E+00
         21   -1    0    0  501  502  0.00000000000E+00  0.00000000000E+00  0.22081847593E+03  0.22081847593E+03  0.00000000000E+00 0.  1.
         21   -1    0    0  502  503 -0.00000000000E+00 -0.00000000000E+00 -0.35097517325E+03  0.35097517325E+03  0.00000000000E+00 0. -1.
         -6    2    1    2    0  503  0.12183049682E+03 -0.12442879231E+03 -0.19959345859E+03  0.31670508801E+03  0.17360694039E+03 0.  0.
        -24    2    3    3    0    0  0.14504449833E+03 -0.13629888706E+03 -0.19426508840E+03  0.28968156966E+03  0.81001198249E+02 0.  0.
          6    2    1    2  501    0 -0.12183049682E+03  0.12442879231E+03  0.69436761269E+02  0.25508856117E+03  0.17298414930E+03 0.  0.
         24    2    5    5    0    0 -0.10887268293E+03  0.43211068349E+02 -0.29706471141E+01  0.14541109577E+03  0.86111001118E+02 0.  0.
          5    1    5    5  501    0 -0.12957813897E+02  0.81217723963E+02  0.72407408383E+02  0.10967746540E+03  0.47000000000E+01 0. -1.
        -13    1    6    6    0    0  0.28157871052E+01 -0.24138008499E+01  0.21912192843E+02  0.22223845003E+02  0.00000000000E+00 0.  1.
         14    1    6    6    0    0 -0.11168847003E+03  0.45624869199E+02 -0.24882839957E+02  0.12318725077E+03  0.00000000000E+00 0. -1.
         -5    1    3    3    0  503 -0.23214001510E+02  0.11870094749E+02 -0.53283701873E+01  0.27023518355E+02  0.47000000000E+01 0.  1.
         11    1    4    4    0    0  0.98746369809E+02 -0.12904423175E+03 -0.17557875969E+03  0.23923034956E+03  0.00000000000E+00 0. -1.
        -12    1    4    4    0    0  0.46298128524E+02 -0.72546553125E+01 -0.18686328715E+02  0.50451220098E+02  0.00000000000E+00 0.  1.
<mgrwt>
<rscale>  2 0.24578553E+03</rscale>
<asrwt>0</asrwt>
<pdfrwt beam="1">  1       21 0.33972073E-01 0.24589543E+03</pdfrwt>
<pdfrwt beam="2">  1       21 0.53996180E-01 0.24589543E+03</pdfrwt>
<totfact> 0.26333692E+04</totfact>
</mgrwt>
</event>
<event>
12    1  0.1019868E-001  0.1837713E+03  0.7546771E-02  0.1164406E+00
         21   -1    0    0  501  502  0.00000000000E+00  0.00000000000E+00  0.69053068243E+03  0.69053068243E+03  0.00000000000E+00 0.  1.
         21   -1    0    0  502  503 -0.00000000000E+00 -0.00000000000E+00 -0.20098111543E+03  0.20098111543E+03  0.00000000000E+00 0.  1.
         -6    2    1    2    0  503 -0.10633543151E+02  0.63357776206E+02 -0.14340164792E+03  0.23242216949E+03  0.17125639316E+03 0.  0.
        -24    2    3    3    0    0 -0.22670128917E+02 -0.87356300741E+01 -0.18384728646E+02  0.87530283136E+02  0.82056725749E+02 0.  0.
          6    2    1    2  501    0  0.10633543151E+02 -0.63357776206E+02  0.63295121493E+03  0.65908962837E+03  0.17217612409E+03 0.  0.
         24    2    5    5    0    0 -0.55975888315E+02 -0.76347994689E+01  0.36303288520E+03  0.37550567040E+03  0.77588933043E+02 0.  0.
          5    1    5    5  501    0  0.66609431466E+02 -0.55722976737E+02  0.26991832973E+03  0.28358395797E+03  0.47000000000E+01 0. -1.
        -13    1    6    6    0    0 -0.74292754395E+01  0.18866447461E+02  0.23706109676E+03  0.23792667057E+03  0.00000000000E+00 0.  1.
         14    1    6    6    0    0 -0.48546612875E+02 -0.26501246930E+02  0.12597178844E+03  0.13757899983E+03  0.00000000000E+00 0. -1.
         -5    1    3    3    0  503  0.12036585766E+02  0.72093406280E+02 -0.12501691927E+03  0.14489188635E+03  0.47000000000E+01 0.  1.
         13    1    4    4    0    0  0.22521538813E+00  0.31927132494E+02  0.93201168499E+01  0.33260443313E+02  0.00000000000E+00 0. -1.
        -14    1    4    4    0    0 -0.22895344305E+02 -0.40662762568E+02 -0.27704845496E+02  0.54269839824E+02  0.00000000000E+00 0.  1.
<mgrwt>
<rscale>  2 0.18355559E+03</rscale>
<asrwt>0</asrwt>
<pdfrwt beam="1">  1       21 0.10623549E+00 0.18377132E+03</pdfrwt>
<pdfrwt beam="2">  1       21 0.30920172E-01 0.18377132E+03</pdfrwt>
<totfact> 0.71842175E+03</totfact>
</mgrwt>
</event>
<event>
12    1  0.1019868E-001  0.2341249E+03  0.7546771E-02  0.1124366E+00
         21   -1    0    0  503  502  0.00000000000E+00  0.00000000000E+00  0.20528658347E+03  0.20528658347E+03  0.00000000000E+00 0.  1.
         21   -1    0    0  501  503 -0.00000000000E+00 -0.00000000000E+00 -0.39468356215E+03  0.39468356215E+03  0.00000000000E+00 0.  1.
          6    2    1    2  501    0  0.13715919740E+03  0.74125577766E+02  0.78037817927E+02  0.24678808908E+03  0.17466314201E+03 0.  0.
         24    2    3    3    0    0  0.15381359433E+03  0.72127165626E+02  0.10512843268E+03  0.21458010877E+03  0.78305082202E+02 0.  0.
         -6    2    1    2    0  502 -0.13715919740E+03 -0.74125577766E+02 -0.26743479660E+03  0.35318205654E+03  0.17002631536E+03 0.  0.
        -24    2    5    5    0    0 -0.50579764936E+02 -0.84521824068E+02 -0.21910269181E+03  0.25337142375E+03  0.80553320566E+02 0.  0.
          5    1    3    3  501    0 -0.16654396930E+02  0.19984121399E+01 -0.27090614757E+02  0.32207980317E+02  0.47000000000E+01 0. -1.
        -11    1    4    4    0    0  0.68129294605E+02  0.21483689881E+02  0.88393958345E+02  0.11365140380E+03  0.00000000000E+00 0.  1.
         12    1    4    4    0    0  0.85684299722E+02  0.50643475745E+02  0.16734474339E+02  0.10092870496E+03  0.00000000000E+00 0. -1.
         -5    1    5    5    0  502 -0.86579432461E+02  0.10396246302E+02 -0.48332104798E+02  0.99810632783E+02  0.47000000000E+01 0.  1.
         11    1    6    6    0    0 -0.16987500263E+02 -0.90265312963E+01 -0.34115605351E-01  0.19236803173E+02  0.00000000000E+00 0. -1.
        -12    1    6    6    0    0 -0.33592264673E+02 -0.75495292771E+02 -0.21906857620E+03  0.23413462058E+03  0.00000000000E+00 0.  1.
<mgrwt>
<rscale>  2 0.23326047E+03</rscale>
<asrwt>0</asrwt>
<pdfrwt beam="1">  1       21 0.31582552E-01 0.23412488E+03</pdfrwt>
<pdfrwt beam="2">  1       21 0.60720547E-01 0.23412488E+03</pdfrwt>
<totfact> 0.23794088E+04</totfact>
</mgrwt>
</event>
<event>
12    1  0.1019868E-001  0.1946579E+03  0.7546771E-02  0.1154665E+00
         21   -1    0    0  501  502  0.00000000000E+00  0.00000000000E+00  0.23428181587E+02  0.23428181587E+02  0.00000000000E+00 0. -1.
         21   -1    0    0  502  503 -0.00000000000E+00 -0.00000000000E+00 -0.17455773170E+04  0.17455773170E+04  0.00000000000E+00 0.  1.
         -6    2    1    2    0  503 -0.50407561623E+02 -0.74409596875E+02 -0.11156189547E+04  0.11324740004E+04  0.17266730754E+03 0.  0.
        -24    2    3    3    0    0 -0.73711907407E+02 -0.54041449454E+02 -0.45484616067E+03  0.47096003282E+03  0.81020979268E+02 0.  0.
          6    2    1    2  501    0  0.50407561623E+02  0.74409596875E+02 -0.60653018062E+03  0.63653149811E+03  0.17092623468E+03 0.  0.
         24    2    5    5    0    0  0.85130330605E+02  0.32935288635E+02 -0.52334987929E+03  0.53719952209E+03  0.79726557396E+02 0.  0.
          5    1    5    5  501    0 -0.34722768982E+02  0.41474308240E+02 -0.83180301328E+02  0.99331976014E+02  0.47000000000E+01 0. -1.
        -11    1    6    6    0    0  0.72009766797E+02 -0.11283459448E+02 -0.36791151596E+03  0.37506213691E+03  0.00000000000E+00 0.  1.
         12    1    6    6    0    0  0.13120563808E+02  0.44218748083E+02 -0.15543836334E+03  0.16213738518E+03  0.00000000000E+00 0. -1.
         -5    1    3    3    0  503  0.23304345783E+02 -0.20368147422E+02 -0.66077279407E+03  0.66151396761E+03  0.47000000000E+01 0.  1.
         11    1    4    4    0    0 -0.20260771998E+02 -0.61224269787E+02 -0.18903006640E+03  0.19972800528E+03  0.00000000000E+00 0. -1.
        -12    1    4    4    0    0 -0.53451135408E+02  0.71828203332E+01 -0.26581609428E+03  0.27123202754E+03  0.00000000000E+00 0.  1.
<mgrwt>
<rscale>  2 0.19427110E+03</rscale>
<asrwt>0</asrwt>
<pdfrwt beam="1">  1       21 0.36043357E-02 0.19465793E+03</pdfrwt>
<pdfrwt beam="2">  1       21 0.26855035E+00 0.19465793E+03</pdfrwt>
<totfact> 0.24129419E+04</totfact>
</mgrwt>
</event>
<event>
12    1  0.1019868E-001  0.3521821E+03  0.7546771E-02  0.1061826E+00
         21   -1    0    0  501  502  0.00000000000E+00  0.00000000000E+00  0.94739626611E+03  0.94739626611E+03  0.00000000000E+00 0.  1.
         21   -1    0    0  502  503 -0.00000000000E+00 -0.00000000000E+00 -0.14965994945E+03  0.14965994945E+03  0.00000000000E+00 0. -1.
         -6    2    1    2    0  503 -0.29556215261E+03 -0.84538106199E+02  0.20232362716E+03  0.40528420610E+03  0.16975500038E+03 0.  0.
        -24    2    3    3    0    0 -0.22508399012E+03 -0.56631652708E+02  0.21727009979E+03  0.32787988724E+03  0.80180904822E+02 0.  0.
          6    2    1    2  501    0  0.29556215261E+03  0.84538106199E+02  0.59541268950E+03  0.69177200946E+03  0.17183877559E+03 0.  0.
         24    2    5    5    0    0  0.74489887687E+02  0.74037835062E+02  0.22795391409E+03  0.26278338066E+03  0.77857394086E+02 0.  0.
          5    1    5    5  501    0  0.22107226492E+03  0.10500271137E+02  0.36745877541E+03  0.42898862880E+03  0.47000000000E+01 0. -1.
        -11    1    6    6    0    0  0.81344246837E+02  0.66428840279E+02  0.22953568856E+03  0.25242089778E+03  0.00000000000E+00 0.  1.
         12    1    6    6    0    0 -0.68543591507E+01  0.76089947829E+01 -0.15817744677E+01  0.10362482880E+02  0.00000000000E+00 0. -1.
         -5    1    3    3    0  503 -0.70478162485E+02 -0.27906453491E+02 -0.14946472629E+02  0.77404318858E+02  0.47000000000E+01 0.  1.
         13    1    4    4    0    0 -0.14133069141E+02  0.16351558989E+02  0.12515189371E+02  0.24974929223E+02  0.00000000000E+00 0. -1.
        -14    1    4    4    0    0 -0.21095092098E+03 -0.72983211697E+02  0.20475491041E+03  0.30290495802E+03  0.00000000000E+00 0.  1.
<mgrwt>
<rscale>  2 0.35192884E+03</rscale>
<asrwt>0</asrwt>
<pdfrwt beam="1">  1       21 0.14575327E+00 0.35218212E+03</pdfrwt>
<pdfrwt beam="2">  1       21 0.23024608E-01 0.35218212E+03</pdfrwt>
<totfact> 0.51751802E+03</totfact>
</mgrwt>
</event>
<event>
12    1  0.1019868E-001  0.2159467E+03  0.7546771E-02  0.1137326E+00
         21   -1    0    0  503  502  0.00000000000E+00  0.00000000000E+00  0.46390959846E+03  0.46390959846E+03  0.00000000000E+00 0.  1.
         21   -1    0    0  501  503 -0.00000000000E+00 -0.00000000000E+00 -0.10593038302E+03  0.10593038302E+03  0.00000000000E+00 0.  1.
          6    2    1    2  501    0 -0.12511796545E+03  0.85815154859E+01  0.11007799120E+03  0.24238430421E+03  0.17579772209E+03 0.  0.
         24    2    3    3    0    0 -0.51996538394E+02  0.60785879967E+02  0.10347569082E+03  0.15217499684E+03  0.77791052600E+02 0.  0.
         -6    2    1    2    0  502  0.12511796545E+03 -0.85815154859E+01  0.24790122424E+03  0.32745567728E+03  0.17333221258E+03 0.  0.
        -24    2    5    5    0    0  0.12034487017E+03  0.49156449232E+02  0.20274254781E+03  0.25384962409E+03  0.80223728934E+02 0.  0.
          5    1    3    3  501    0 -0.73121427054E+02 -0.52204364481E+02  0.66023003846E+01  0.90209307367E+02  0.47000000000E+01 0. -1.
        -13    1    4    4    0    0 -0.69615841610E+02  0.39409106298E+02  0.92715414370E+02  0.12245648666E+03  0.00000000000E+00 0.  1.
         14    1    4    4    0    0  0.17619303216E+02  0.21376773669E+02  0.10760276446E+02  0.29718510183E+02  0.00000000000E+00 0. -1.
         -5    1    5    5    0  502  0.47730952815E+01 -0.57737964718E+02  0.45158676430E+02  0.73606053183E+02  0.47000000000E+01 0.  1.
         11    1    6    6    0    0  0.17651042825E+01 -0.42865294063E+01  0.62140132778E+02  0.62312807907E+02  0.00000000000E+00 0. -1.
        -12    1    6    6    0    0  0.11857976588E+03  0.53442978639E+02  0.14060241503E+03  0.19153681619E+03  0.00000000000E+00 0.  1.
<mgrwt>
<rscale>  2 0.21544439E+03</rscale>
<asrwt>0</asrwt>
<pdfrwt beam="1">  1       21 0.71370706E-01 0.21594672E+03</pdfrwt>
<pdfrwt beam="2">  1       21 0.16296982E-01 0.21594672E+03</pdfrwt>
<totfact> 0.59202324E+04</totfact>
</mgrwt>
</event>
<event>
12    1  0.1019868E-001  0.3432085E+03  0.7546771E-02  0.1065457E+00
         21   -1    0    0  501  502  0.00000000000E+00  0.00000000000E+00  0.43228061417E+03  0.43228061417E+03  0.00000000000E+00 0. -1.
         21   -1    0    0  502  503 -0.00000000000E+00 -0.00000000000E+00 -0.42676758099E+03  0.42676758099E+03  0.00000000000E+00 0.  1.
         -6    2    1    2    0  503  0.18781161421E+02 -0.29569414699E+03 -0.25561928601E+03  0.42794078284E+03  0.17321759048E+03 0.  0.
        -24    2    3    3    0    0 -0.22432594629E+02 -0.20606151278E+03 -0.98601564079E+02  0.24244351116E+03  0.78051388917E+02 0.  0.
          6    2    1    2  501    0 -0.18781161421E+02  0.29569414699E+03  0.26113231919E+03  0.43110741232E+03  0.17284603624E+03 0.  0.
         24    2    5    5    0    0  0.55390370891E+02  0.14346373663E+03  0.13001515312E+03  0.21688949691E+03  0.80543012823E+02 0.  0.
          5    1    5    5  501    0 -0.74171532312E+02  0.15223041036E+03  0.13111716607E+03  0.21421791541E+03  0.47000000000E+01 0. -1.
        -11    1    6    6    0    0  0.67899904637E+02  0.14331862085E+03  0.10901214592E+03  0.19244290606E+03  0.00000000000E+00 0.  1.
         12    1    6    6    0    0 -0.12509533746E+02  0.14511577565E+00  0.21003007192E+02  0.24446590851E+02  0.00000000000E+00 0. -1.
         -5    1    3    3    0  503  0.41213756050E+02 -0.89632634206E+02 -0.15701772193E+03  0.18549727169E+03  0.47000000000E+01 0.  1.
         11    1    4    4    0    0  0.26273606824E+02 -0.10231409087E+03 -0.34505004178E+02  0.11112637365E+03  0.00000000000E+00 0. -1.
        -12    1    4    4    0    0 -0.48706201453E+02 -0.10374742191E+03 -0.64096559901E+02  0.13131713751E+03  0.00000000000E+00 0.  1.
<mgrwt>
<rscale>  2 0.34316168E+03</rscale>
<asrwt>0</asrwt>
<pdfrwt beam="1">  1       21 0.66504710E-01 0.34320853E+03</pdfrwt>
<pdfrwt beam="2">  1       21 0.65656551E-01 0.34320853E+03</pdfrwt>
<totfact> 0.40359212E+03</totfact>
</mgrwt>
</event>
<event>
12    1  0.1019868E-001  0.1729712E+03  0.7546771E-02  0.1174977E+00
         21   -1    0    0  501  502  0.00000000000E+00  0.00000000000E+00  0.19924998663E+03  0.19924998663E+03  0.00000000000E+00 0.  1.
         21   -1    0    0  502  503 -0.00000000000E+00 -0.00000000000E+00 -0.15107146495E+03  0.15107146495E+03  0.00000000000E+00 0.  1.
         -6    2    1    2    0  503 -0.44710054025E+01 -0.13681316637E+02  0.41975938085E+02  0.17799165500E+03  0.17237134784E+03 0.  0.
        -24    2    3    3    0    0  0.21712854592E+02  0.33243860233E+02 -0.23074550617E+02  0.93485898813E+02  0.81428349443E+02 0.  0.
          6    2    1    2  501    0  0.44710054025E+01  0.13681316637E+02  0.62025835963E+01  0.17232979658E+03  0.17161561243E+03 0.  0.
         24    2    5    5    0    0  0.62751215357E+02  0.46919369534E+01  0.82623706641E+01  0.11313752899E+03  0.93659513107E+02 0.  0.
          5    1    5    5  501    0 -0.58280209954E+02  0.89893796833E+01 -0.20597870678E+01  0.59192267587E+02  0.47000000000E+01 0. -1.
        -13    1    6    6    0    0  0.43208037156E+02  0.45481256808E+02  0.20989325308E+02  0.66151575738E+02  0.00000000000E+00 0.  1.
         14    1    6    6    0    0  0.19543178200E+02 -0.40789319855E+02 -0.12726954644E+02  0.46985953251E+02  0.00000000000E+00 0. -1.
         -5    1    3    3    0  503 -0.26183859994E+02 -0.46925176869E+02  0.65050488702E+02  0.84505756187E+02  0.47000000000E+01 0.  1.
         13    1    4    4    0    0  0.42936620959E+01  0.39839144901E+02 -0.47899977197E+02  0.62449986518E+02  0.00000000000E+00 0. -1.
        -14    1    4    4    0    0  0.17419192496E+02 -0.65952846689E+01  0.24825426580E+02  0.31035912294E+02  0.00000000000E+00 0.  1.
<mgrwt>
<rscale>  2 0.17278266E+03</rscale>
<asrwt>0</asrwt>
<pdfrwt beam="1">  1       21 0.30653844E-01 0.17297124E+03</pdfrwt>
<pdfrwt beam="2">  1       21 0.23241764E-01 0.17297124E+03</pdfrwt>
<totfact> 0.17883947E+05</totfact>
</mgrwt>
</event>
<event>
12    1  0.1019868E-001  0.1879072E+03  0.7546771E-02  0.1160718E+00
         21   -1    0    0  503  502  0.00000000000E+00  0.00000000000E+00  0.35810553058E+03  0.35810553058E+03  0.00000000000E+00 0. -1.
         21   -1    0    0  501  503 -0.00000000000E+00 -0.00000000000E+00 -0.12917943430E+03  0.12917943430E+03  0.00000000000E+00 0.  1.
          6    2    1    2  501    0  0.65364822988E+02  0.16038470109E+02 -0.59949999628E+01  0.18645773624E+03  0.17378364357E+03 0.  0.
         24    2    3    3    0    0 -0.60263698268E+01  0.61321065518E+02 -0.94879749675E+01  0.10171396519E+03  0.80368643360E+02 0.  0.
         -6    2    1    2    0  502 -0.65364822988E+02 -0.16038470109E+02  0.23492109624E+03  0.30082722863E+03  0.17544032437E+03 0.  0.
        -24    2    5    5    0    0 -0.19046700571E+02  0.57370067254E+02  0.10787817537E+03  0.14689160713E+03  0.79280149498E+02 0.  0.
          5    1    3    3  501    0  0.71391192815E+02 -0.45282595409E+02  0.34929750047E+01  0.84743771057E+02  0.47000000000E+01 0. -1.
        -13    1    4    4    0    0 -0.81738214295E+01  0.11170659204E+02 -0.40439067553E+02  0.42742404803E+02  0.00000000000E+00 0.  1.
         14    1    4    4    0    0  0.21474516027E+01  0.50150406314E+02  0.30951092585E+02  0.58971560384E+02  0.00000000000E+00 0. -1.
         -5    1    5    5    0  502 -0.46318122417E+02 -0.73408537364E+02  0.12704292087E+03  0.15393562150E+03  0.47000000000E+01 0.  1.
         11    1    6    6    0    0  0.61352021996E+01  0.29990183683E+02  0.10523696773E+03  0.10959868248E+03  0.00000000000E+00 0. -1.
        -12    1    6    6    0    0 -0.25181902771E+02  0.27379883571E+02  0.26412076428E+01  0.37292924656E+02  0.00000000000E+00 0.  1.
<mgrwt>
<rscale>  2 0.18751950E+03</rscale>
<asrwt>0</asrwt>
<pdfrwt beam="1">  1       21 0.55093158E-01 0.18790716E+03</pdfrwt>
<pdfrwt beam="2">  1       21 0.19873759E-01 0.18790716E+03</pdfrwt>
<totfact> 0.72741874E+04</totfact>
</mgrwt>
</event>
<event>
12    1  0.1019868E-001  0.1782075E+03  0.7546771E-02  0.1169796E+00
         21   -1    0    0  503  502  0.00000000000E+00  0.00000000000E+00  0.53308539842E+02  0.53308539842E+02  0.00000000000E+00 0.  1.
         21   -1    0    0  501  503 -0.00000000000E+00 -0.00000000000E+00 -0.70822970110E+03  0.70822970110E+03  0.00000000000E+00 0.  1.
          6    2    1    2  501    0 -0.13115022598E+02  0.38098343655E+02 -0.48223471932E+03  0.51410917292E+03  0.17359271172E+03 0.  0.
         24    2    3    3    0    0  0.18761905497E+02  0.85966952255E+02 -0.33661240924E+03  0.35747108870E+03  0.82069112526E+02 0.  0.
         -6    2    1    2    0  502  0.13115022598E+02 -0.38098343655E+02 -0.17268644194E+03  0.24742906802E+03  0.17256027603E+03 0.  0.
        -24    2    5    5    0    0 -0.58656729867E+02 -0.27802281858E+02 -0.81852629792E+02  0.13111026141E+03  0.79224168086E+02 0.  0.
          5    1    3    3  501    0 -0.31876928094E+02 -0.47868608600E+02 -0.14562231008E+03  0.15663808422E+03  0.47000000000E+01 0. -1.
        -13    1    4    4    0    0  0.12456559660E+02  0.83783319763E+02 -0.33971246953E+03  0.35011337093E+03  0.00000000000E+00 0.  1.
         14    1    4    4    0    0  0.63053458364E+01  0.21836324923E+01  0.31000602978E+01  0.73577177731E+01  0.00000000000E+00 0. -1.
         -5    1    5    5    0  502  0.71771752465E+02 -0.10296061797E+02 -0.90833812148E+02  0.11631880660E+03  0.47000000000E+01 0.  1.
         13    1    6    6    0    0  0.14138850520E+02 -0.13189242237E+02 -0.43363971648E+02  0.47479440202E+02  0.00000000000E+00 0. -1.
        -14    1    6    6    0    0 -0.72795580387E+02 -0.14613039620E+02 -0.38488658144E+02  0.83630821212E+02  0.00000000000E+00 0.  1.
<mgrwt>
<rscale>  2 0.17795559E+03</rscale>
<asrwt>0</asrwt>
<pdfrwt beam="1">  1       21 0.82013139E-02 0.17820751E+03</pdfrwt>
<pdfrwt beam="2">  1       21 0.10895841E+00 0.17820751E+03</pdfrwt>
<totfact> 0.77305668E+04</totfact>
</mgrwt>
</event>
<event>
12    1  0.1019868E-001  0.2401541E+03  0.7546771E-02  0.1121075E+00
         21   -1    0    0  503  502  0.00000000000E+00  0.00000000000E+00  0.17055704543E+03  0.17055704543E+03  0.00000000000E+00 0. -1.
         21   -1    0    0  501  503 -0.00000000000E+00 -0.00000000000E+00 -0.57457365561E+03  0.57457365561E+03  0.00000000000E+00 0.  1.
          6    2    1    2  501    0  0.49375891795E+02 -0.14572886863E+03 -0.44468229973E+03  0.50155795551E+03  0.17361783666E+03 0.  0.
         24    2    3    3    0    0 -0.72693594679E+01 -0.15411684602E+03 -0.31731783311E+03  0.36183379865E+03  0.80176335780E+02 0.  0.
         -6    2    1    2    0  502 -0.49375891795E+02  0.14572886863E+03  0.40665689547E+02  0.24357274552E+03  0.18438845466E+03 0.  0.
        -24    2    5    5    0    0 -0.24483344802E+02  0.17844120152E+03  0.24536407154E+02  0.19916577119E+03  0.81389634269E+02 0.  0.
          5    1    3    3  501    0  0.56645251263E+02  0.83879773929E+01 -0.12736446662E+03  0.13972415687E+03  0.47000000000E+01 0. -1.
        -11    1    4    4    0    0 -0.20222125481E+01 -0.31894029937E+02 -0.15673854436E+03  0.15996340136E+03  0.00000000000E+00 0.  1.
         12    1    4    4    0    0 -0.52471469198E+01 -0.12222281608E+03 -0.16057928875E+03  0.20187039728E+03  0.00000000000E+00 0. -1.
         -5    1    5    5    0  502 -0.24892546993E+02 -0.32712332888E+02  0.16129282393E+02  0.44406974331E+02  0.47000000000E+01 0.  1.
         13    1    6    6    0    0 -0.36265519036E+02  0.39561783203E+02  0.26322058169E+02  0.59776026193E+02  0.00000000000E+00 0. -1.
        -14    1    6    6    0    0  0.11782174234E+02  0.13887941831E+03 -0.17856510149E+01  0.13938974500E+03  0.00000000000E+00 0.  1.
<mgrwt>
<rscale>  2 0.23808578E+03</rscale>
<asrwt>0</asrwt>
<pdfrwt beam="1">  1       21 0.26239545E-01 0.24015408E+03</pdfrwt>
<pdfrwt beam="2">  1       21 0.88395949E-01 0.24015408E+03</pdfrwt>
<totfact> 0.14693578E+04</totfact>
</mgrwt>
</event>
<event>
12    1  0.1019868E-001  0.1879751E+03  0.7546771E-02  0.1162321E+00
         21   -1    0    0  501  502  0.00000000000E+00  0.00000000000E+00  0.35593661547E+02  0.35593661547E+02  0.00000000000E+00 0.  1.
         21   -1    0    0  502  503 -0.00000000000E+00 -0.00000000000E+00 -0.95980573500E+03  0.95980573500E+03  0.00000000000E+00 0.  1.
         -6    2    1    2    0  503 -0.41364971287E+02 -0.30231874316E+02 -0.50720791824E+03  0.53798592237E+03  0.17188354566E+03 0.  0.
        -24    2    3    3    0    0  0.11694024448E+02 -0.89806184580E+01 -0.11813087810E+03  0.14470497182E+03  0.82263131427E+02 0.  0.
          6    2    1    2  501    0  0.41364971287E+02  0.30231874316E+02 -0.41700415522E+03  0.45741347418E+03  0.18085793823E+03 0.  0.
         24    2    5    5    0    0 -0.39544754896E+01  0.84702173056E+02 -0.24626028495E+03  0.27249072022E+03  0.80105983940E+02 0.  0.
          5    1    5    5  501    0  0.45319446777E+02 -0.54470298740E+02 -0.17074387027E+03  0.18492275397E+03  0.47000000000E+01 0. -1.
        -11    1    6    6    0    0  0.13361031981E+02 -0.12228818371E+02 -0.34909241161E+02  0.39328314136E+02  0.00000000000E+00 0.  1.
         12    1    6    6    0    0 -0.17315507470E+02  0.96930991427E+02 -0.21135104379E+03  0.23316240608E+03  0.00000000000E+00 0. -1.
         -5    1    3    3    0  503 -0.53058995735E+02 -0.21251255858E+02 -0.38907704014E+03  0.39328095055E+03  0.47000000000E+01 0.  1.
         13    1    4    4    0    0  0.17294681891E+02  0.34031870497E+02 -0.71275403055E+02  0.80854544163E+02  0.00000000000E+00 0. -1.
        -14    1    4    4    0    0 -0.56006574434E+01 -0.43012488955E+02 -0.46855475048E+02  0.63850427656E+02  0.00000000000E+00 0.  1.
<mgrwt>
<rscale>  2 0.18578251E+03</rscale>
<asrwt>0</asrwt>
<pdfrwt beam="1">  1       21 0.54759487E-02 0.18797505E+03</pdfrwt>
<pdfrwt beam="2">  1       21 0.14766240E+00 0.18797505E+03</pdfrwt>
<totfact> 0.71963260E+04</totfact>
</mgrwt>
</event>
<event>
12    1  0.1019868E-001  0.2241038E+03  0.7546771E-02  0.1131001E+00
         21   -1    0    0  501  502  0.00000000000E+00  0.00000000000E+00  0.62942423345E+03  0.62942423345E+03  0.00000000000E+00 0. -1.
         21   -1    0    0  502  503 -0.00000000000E+00 -0.00000000000E+00 -0.10756992337E+03  0.10756992337E+03  0.00000000000E+00 0. -1.
         -6    2    1    2    0  503 -0.47206623817E+02  0.13443500156E+03  0.44877897116E+03  0.50127714573E+03  0.17197376805E+03 0.  0.
        -24    2    3    3    0    0  0.91150999241E-01  0.15273306599E+03  0.33990203521E+03  0.38107658064E+03  0.79740635935E+02 0.  0.
          6    2    1    2  501    0  0.47206623817E+02 -0.13443500156E+03  0.73075338923E+02  0.23571701109E+03  0.17297765515E+03 0.  0.
         24    2    5    5    0    0 -0.40277385773E+02 -0.51538180158E+02  0.27037516076E+02  0.10661663903E+03  0.79734739131E+02 0.  0.
          5    1    5    5  501    0  0.87484009590E+02 -0.82896821398E+02  0.46037822847E+02  0.12910037205E+03  0.47000000000E+01 0. -1.
        -13    1    6    6    0    0 -0.44374051604E+02 -0.70684057007E+02  0.20100119114E+02  0.85844668787E+02  0.00000000000E+00 0.  1.
         14    1    6    6    0    0  0.40966658312E+01  0.19145876849E+02  0.69373969623E+01  0.20771970245E+02  0.00000000000E+00 0. -1.
         -5    1    3    3    0  503 -0.47297774816E+02 -0.18298064437E+02  0.10887693595E+03  0.12020056509E+03  0.47000000000E+01 0.  1.
         13    1    4    4    0    0  0.49599435049E+01  0.83427135122E+02  0.26951641649E+03  0.28217687126E+03  0.00000000000E+00 0. -1.
        -14    1    4    4    0    0 -0.48687925057E+01  0.69305930870E+02  0.70385618717E+02  0.98899709385E+02  0.00000000000E+00 0.  1.
<mgrwt>
<rscale>  2 0.22391004E+03</rscale>
<asrwt>0</asrwt>
<pdfrwt beam="1">  1       21 0.96834496E-01 0.22410378E+03</pdfrwt>
<pdfrwt beam="2">  1       21 0.16549219E-01 0.22410378E+03</pdfrwt>
<totfact> 0.28527840E+04</totfact>
</mgrwt>
</event>
<event>
12    1  0.1019868E-001  0.2374136E+03  0.7546771E-02  0.1122419E+00
         21   -1    0    0  503  502  0.00000000000E+00  0.00000000000E+00  0.39751185774E+03  0.39751185774E+03  0.00000000000E+00 0. -1.
         21   -1    0    0  501  503 -0.00000000000E+00 -0.00000000000E+00 -0.25878784760E+03  0.25878784760E+03  0.00000000000E+00 0.  1.
          6    2    1    2  501    0  0.15386946557E+03  0.20081114346E+02 -0.15458371845E+03  0.27894755611E+03  0.17273259526E+03 0.  0.
         24    2    3    3    0    0  0.78584400703E+02  0.75847566251E+02 -0.11429615325E+03  0.17685487244E+03  0.79282242144E+02 0.  0.
         -6    2    1    2    0  502 -0.15386946557E+03 -0.20081114346E+02  0.29330772859E+03  0.37735214922E+03  0.17968349196E+03 0.  0.
        -24    2    5    5    0    0 -0.44452960394E+02 -0.67424164236E+02  0.10742055912E+03  0.15646877332E+03  0.80132495850E+02 0.  0.
          5    1    3    3  501    0  0.75285064864E+02 -0.55766451905E+02 -0.40287565200E+02  0.10209268367E+03  0.47000000000E+01 0. -1.
        -13    1    4    4    0    0  0.27583596777E+02  0.31928668447E+02  0.22684864861E+01  0.42254475632E+02  0.00000000000E+00 0.  1.
         14    1    4    4    0    0  0.51000803925E+02  0.43918897804E+02 -0.11656463973E+03  0.13460039681E+03  0.00000000000E+00 0. -1.
         -5    1    5    5    0  502 -0.10941650517E+03  0.47343049890E+02  0.18588716946E+03  0.22088337590E+03  0.47000000000E+01 0.  1.
         13    1    6    6    0    0 -0.46702272571E+02 -0.62612549980E+01  0.23651496831E+02  0.52722849694E+02  0.00000000000E+00 0. -1.
        -14    1    6    6    0    0  0.22493121771E+01 -0.61162909238E+02  0.83769062293E+02  0.10374592363E+03  0.00000000000E+00 0.  1.
<mgrwt>
<rscale>  2 0.23609866E+03</rscale>
<asrwt>0</asrwt>
<pdfrwt beam="1">  1       21 0.61155671E-01 0.23741361E+03</pdfrwt>
<pdfrwt beam="2">  1       21 0.39813515E-01 0.23741361E+03</pdfrwt>
<totfact> 0.14724088E+04</totfact>
</mgrwt>
</event>
<event>
12    1  0.1019868E-001  0.1893902E+03  0.7546771E-02  0.1159211E+00
         21   -1    0    0  503  502  0.00000000000E+00  0.00000000000E+00  0.16254205513E+03  0.16254205513E+03  0.00000000000E+00 0.  1.
         21   -1    0    0  501  503 -0.00000000000E+00 -0.00000000000E+00 -0.34789738217E+03  0.34789738217E+03  0.00000000000E+00 0.  1.
          6    2    1    2  501    0  0.65771677030E+02  0.33630024311E+02  0.62413104274E+02  0.19857754512E+03  0.17343804026E+03 0.  0.
         24    2    3    3    0    0  0.88569343410E+02  0.71766237672E+02  0.60615642848E+02  0.15386261217E+03  0.83693045131E+02 0.  0.
         -6    2    1    2    0  502 -0.65771677030E+02 -0.33630024311E+02 -0.24776843132E+03  0.31186189217E+03  0.17438965622E+03 0.  0.
        -24    2    5    5    0    0  0.29696471397E+02 -0.34658440679E+02 -0.13866279625E+03  0.16680550793E+03  0.80706991574E+02 0.  0.
          5    1    3    3  501    0 -0.22797666380E+02 -0.38136213361E+02  0.17974614268E+01  0.44714932958E+02  0.47000000000E+01 0. -1.
        -13    1    4    4    0    0  0.30998603508E+02 -0.57585483583E+01  0.46634220624E+02  0.56292315922E+02  0.00000000000E+00 0.  1.
         14    1    4    4    0    0  0.57570739902E+02  0.77524786030E+02  0.13981422224E+02  0.97570296245E+02  0.00000000000E+00 0. -1.
         -5    1    5    5    0  502 -0.95468148427E+02  0.10284163680E+01 -0.10910563507E+03  0.14505638424E+03  0.47000000000E+01 0.  1.
         13    1    6    6    0    0  0.19142643776E+02 -0.24289377770E+02 -0.14673006971E+03  0.14995375300E+03  0.00000000000E+00 0. -1.
        -14    1    6    6    0    0  0.10553827620E+02 -0.10369062909E+02  0.80672734597E+01  0.16851754927E+02  0.00000000000E+00 0.  1.
<mgrwt>
<rscale>  2 0.18917084E+03</rscale>
<asrwt>0</asrwt>
<pdfrwt beam="1">  1       21 0.25006470E-01 0.18939019E+03</pdfrwt>
<pdfrwt beam="2">  1       21 0.53522674E-01 0.18939019E+03</pdfrwt>
<totfact> 0.50093631E+04</totfact>
</mgrwt>
</event>
<event>
12    1  0.1019868E-001  0.2315326E+03  0.7546771E-02  0.1125870E+00
         21   -1    0    0  503  502  0.00000000000E+00  0.00000000000E+00  0.59551551710E+03  0.59551551710E+03  0.00000000000E+00 0.  1.
         21   -1    0    0  501  503 -0.00000000000E+00 -0.00000000000E+00 -0.13050480957E+03  0.13050480957E+03  0.00000000000E+00 0. -1.
          6    2    1    2  501    0 -0.45446172387E+02 -0.14648870570E+03  0.28037817311E+02  0.23149769459E+03  0.17111624096E+03 0.  0.
         24    2    3    3    0    0  0.27586204497E+02 -0.12963696233E+03  0.36428325523E+02  0.15593182957E+03  0.73627249665E+02 0.  0.
         -6    2    1    2    0  502  0.45446172387E+02  0.14648870570E+03  0.43697289022E+03  0.49452263209E+03  0.17344460608E+03 0.  0.
        -24    2    5    5    0    0  0.34806794126E+01  0.77103029872E+01  0.21561988758E+03  0.22987231670E+03  0.79232456487E+02 0.  0.
          5    1    3    3  501    0 -0.73032376883E+02 -0.16851743374E+02 -0.83905082127E+01  0.75565865019E+02  0.47000000000E+01 0. -1.
        -13    1    4    4    0    0  0.45064981330E+02 -0.10954400249E+03  0.10751902258E+02  0.11893840602E+03  0.00000000000E+00 0.  1.
         14    1    4    4    0    0 -0.17478776833E+02 -0.20092959837E+02  0.25676423265E+02  0.36993423555E+02  0.00000000000E+00 0. -1.
         -5    1    5    5    0  502  0.41965492974E+02  0.13877840271E+03  0.22135300264E+03  0.26465031539E+03  0.47000000000E+01 0.  1.
         13    1    6    6    0    0 -0.32605395156E+02 -0.11554956264E+02  0.13635313613E+03  0.14067269294E+03  0.00000000000E+00 0. -1.
        -14    1    6    6    0    0  0.36086074569E+02  0.19265259251E+02  0.79266751455E+02  0.89199623755E+02  0.00000000000E+00 0.  1.
<mgrwt>
<rscale>  2 0.23109657E+03</rscale>
<asrwt>0</asrwt>
<pdfrwt beam="1">  1       21 0.91617770E-01 0.23153256E+03</pdfrwt>
<pdfrwt beam="2">  1       21 0.20077663E-01 0.23153256E+03</pdfrwt>
<totfact> 0.22595956E+04</totfact>
</mgrwt>
</event>
<event>
12    1  0.1019868E-001  0.1861794E+03  0.7546771E-02  0.1162574E+00
         21   -1    0    0  503  502  0.00000000000E+00  0.00000000000E+00  0.20154548274E+03  0.20154548274E+03  0.00000000000E+00 0.  1.
         21   -1    0    0  501  503 -0.00000000000E+00 -0.00000000000E+00 -0.24467925557E+03  0.24467925557E+03  0.00000000000E+00 0. -1.
          6    2    1    2  501    0 -0.30141530512E+02 -0.63726252925E+02 -0.14531497520E+03  0.23617623315E+03  0.17231721886E+03 0.  0.
         24    2    3    3    0    0  0.45192985177E+02 -0.59434318003E+02 -0.73231503452E+02  0.13171654304E+03  0.80072158371E+02 0.  0.
         -6    2    1    2    0  502  0.30141530512E+02  0.63726252925E+02  0.10218120237E+03  0.21004850516E+03  0.16943975103E+03 0.  0.
        -24    2    5    5    0    0  0.79275741695E+02  0.41775950324E+02  0.99359002809E+02  0.15595561004E+03  0.80125324439E+02 0.  0.
          5    1    3    3  501    0 -0.75334515689E+02 -0.42919349217E+01 -0.72083471745E+02  0.10445969011E+03  0.47000000000E+01 0. -1.
        -11    1    4    4    0    0 -0.13146024214E+02 -0.33185663249E+02 -0.16757299035E+01  0.35733937211E+02  0.00000000000E+00 0.  1.
         12    1    4    4    0    0  0.58339009391E+02 -0.26248654754E+02 -0.71555773549E+02  0.95982605827E+02  0.00000000000E+00 0. -1.
         -5    1    5    5    0  502 -0.49134211183E+02  0.21950302600E+02  0.28221995614E+01  0.54092895126E+02  0.47000000000E+01 0.  1.
         11    1    6    6    0    0 -0.13034463462E+02 -0.61809625888E+01  0.43338168175E+01  0.15062652638E+02  0.00000000000E+00 0. -1.
        -12    1    6    6    0    0  0.92310205157E+02  0.47956912913E+02  0.95025185992E+02  0.14089295740E+03  0.00000000000E+00 0.  1.
<mgrwt>
<rscale>  2 0.18551082E+03</rscale>
<asrwt>0</asrwt>
<pdfrwt beam="1">  1       21 0.31006997E-01 0.18617941E+03</pdfrwt>
<pdfrwt beam="2">  1       21 0.37642962E-01 0.18617941E+03</pdfrwt>
<totfact> 0.68187050E+04</totfact>
</mgrwt>
</event>
<event>
12    1  0.1019868E-001  0.1804839E+03  0.7546771E-02  0.1167499E+00
         21   -1    0    0  501  502  0.00000000000E+00  0.00000000000E+00  0.53854375086E+03  0.53854375086E+03  0.00000000000E+00 0.  1.
         21   -1    0    0  502  503 -0.00000000000E+00 -0.00000000000E+00 -0.12066456832E+03  0.12066456832E+03  0.00000000000E+00 0.  1.
         -6    2    1    2    0  503 -0.37857743110E+02 -0.34002732752E+02 -0.24069537004E+02  0.18208181877E+03  0.17316192298E+03 0.  0.
        -24    2    3    3    0    0  0.22586454720E+02  0.24520187833E+01  0.34455087837E+02  0.90268575321E+02  0.80281394355E+02 0.  0.
          6    2    1    2  501    0  0.37857743110E+02  0.34002732752E+02  0.44194871954E+03  0.47712650041E+03  0.17245762418E+03 0.  0.
         24    2    5    5    0    0  0.33596966070E+02 -0.22701848692E+02  0.38897262196E+03  0.39926687870E+03  0.80437613889E+02 0.  0.
          5    1    5    5  501    0  0.42607770399E+01  0.56704581444E+02  0.52976097582E+02  0.77859621709E+02  0.47000000000E+01 0. -1.
        -13    1    6    6    0    0  0.34432594970E+02  0.24885215417E+02  0.18234949091E+03  0.18723304830E+03  0.00000000000E+00 0.  1.
         14    1    6    6    0    0 -0.83562890008E+00 -0.47587064109E+02  0.20662313105E+03  0.21203383040E+03  0.00000000000E+00 0. -1.
         -5    1    3    3    0  503 -0.60444197830E+02 -0.36454751536E+02 -0.58524624841E+02  0.91813243454E+02  0.47000000000E+01 0.  1.
         13    1    4    4    0    0  0.49647683563E+02  0.15556065424E+01  0.44775528852E+01  0.49873448595E+02  0.00000000000E+00 0. -1.
        -14    1    4    4    0    0 -0.27061228843E+02  0.89641224085E+00  0.29977534952E+02  0.40395126726E+02  0.00000000000E+00 0.  1.
<mgrwt>
<rscale>  2 0.18031478E+03</rscale>
<asrwt>0</asrwt>
<pdfrwt beam="1">  1       21 0.82852883E-01 0.18048392E+03</pdfrwt>
<pdfrwt beam="2">  1       21 0.18563780E-01 0.18048392E+03</pdfrwt>
<totfact> 0.33905519E+04</totfact>
</mgrwt>
</event>
<event>
11    1  0.1019868E-001  0.2651961E+03  0.7546771E-02  0.1104196E+00
         21   -1    0    0  501  502  0.00000000000E+00  0.00000000000E+00  0.20970366931E+03  0.20970366931E+03  0.00000000000E+00 0. -1.
         21   -1    0    0  502  503 -0.00000000000E+00 -0.00000000000E+00 -0.39390897490E+03  0.39390897490E+03  0.00000000000E+00 0.  1.
         -6    2    1    2    0  503 -0.16660221104E+03 -0.11004788663E+03  0.25258567257E+02  0.26639629049E+03  0.17453410639E+03 0.  0.
          6    2    1    2  501    0  0.16660221104E+03  0.11004788663E+03 -0.20946387285E+03  0.33721635372E+03  0.17312689309E+03 0.  0.
         24    2    4    4    0    0  0.11879880981E+03  0.45184492936E+00 -0.12147205413E+03  0.18868653285E+03  0.82059651280E+02 0.  0.
          5    1    4    4  501    0  0.47803401231E+02  0.10959604170E+03 -0.87991818717E+02  0.14852982087E+03  0.47000000000E+01 0. -1.
        -11    1    5    5    0    0  0.12240755169E+03  0.83706392666E+01 -0.80369582913E+02  0.14667292241E+03  0.00000000000E+00 0.  1.
         12    1    5    5    0    0 -0.36087418771E+01 -0.79187943373E+01 -0.41102471218E+02  0.42013610436E+02  0.00000000000E+00 0. -1.
         -5    1    3    3    0  503  0.21798578123E+02 -0.51417940493E+02  0.34443453241E+02  0.65783159576E+02  0.47000000000E+01 0.  1.
         13    1    3    3    0    0 -0.68464262092E+02 -0.24558948092E+02  0.13238669910E+02  0.73930775027E+02  0.00000000000E+00 0. -1.
        -14    1    3    3    0    0 -0.11993652707E+03 -0.34070998043E+02 -0.22423555894E+02  0.12668235589E+03  0.00000000000E+00 0.  1.
<mgrwt>
<rscale>  2 0.26496483E+03</rscale>
<asrwt>0</asrwt>
<pdfrwt beam="1">  1       21 0.32262104E-01 0.26519613E+03</pdfrwt>
<pdfrwt beam="2">  1       21 0.60601379E-01 0.26519613E+03</pdfrwt>
<totfact> 0.22580538E+04</totfact>
</mgrwt>
</event>
<event>
12    1  0.1019868E-001  0.1792962E+03  0.7546771E-02  0.1168752E+00
         21   -1    0    0  503  502  0.00000000000E+00  0.00000000000E+00  0.12375620989E+04  0.12375620989E+04  0.00000000000E+00 0. -1.
         21   -1    0    0  501  503 -0.00000000000E+00 -0.00000000000E+00 -0.27051354411E+02  0.27051354411E+02  0.00000000000E+00 0. -1.
          6    2    1    2  501    0 -0.10733087063E+02  0.42229187685E+02  0.47201893127E+03  0.50492475880E+03  0.17392135326E+03 0.  0.
         24    2    3    3    0    0 -0.33426609358E+02  0.90225288776E+02  0.31964563927E+03  0.34349882597E+03  0.80994862744E+02 0.  0.
         -6    2    1    2    0  502  0.10733087063E+02 -0.42229187685E+02  0.73849181319E+03  0.75968869449E+03  0.17279540193E+03 0.  0.
        -24    2    5    5    0    0  0.29914266826E+02 -0.38776583722E+02  0.21029614483E+03  0.23111269030E+03  0.82402186137E+02 0.  0.
          5    1    3    3  501    0  0.22693522295E+02 -0.47996101091E+02  0.15237329200E+03  0.16142593283E+03  0.47000000000E+01 0. -1.
        -13    1    4    4    0    0  0.66296954282E+01  0.23010497316E+02  0.19406296293E+03  0.19553482920E+03  0.00000000000E+00 0.  1.
         14    1    4    4    0    0 -0.40056304787E+02  0.67214791460E+02  0.12558267634E+03  0.14796399677E+03  0.00000000000E+00 0. -1.
         -5    1    5    5    0  502 -0.19181179763E+02 -0.34526039634E+01  0.52819566836E+03  0.52857600419E+03  0.47000000000E+01 0.  1.
         11    1    6    6    0    0  0.31789048739E+02 -0.59326104644E+02  0.11195075147E+03  0.13062580551E+03  0.00000000000E+00 0. -1.
        -12    1    6    6    0    0 -0.18747819128E+01  0.20549520922E+02  0.98345393366E+02  0.10048688478E+03  0.00000000000E+00 0.  1.
<mgrwt>
<rscale>  2 0.17902261E+03</rscale>
<asrwt>0</asrwt>
<pdfrwt beam="1">  1       21 0.19039412E+00 0.17929624E+03</pdfrwt>
<pdfrwt beam="2">  1       21 0.41617478E-02 0.17929624E+03</pdfrwt>
<totfact> 0.57318392E+04</totfact>
</mgrwt>
</event>
<event>
11    1  0.1019868E-001  0.2034770E+03  0.7546771E-02  0.1147002E+00
         21   -1    0    0  501  502  0.00000000000E+00  0.00000000000E+00  0.21142979457E+03  0.21142979457E+03  0.00000000000E+00 0. -1.
         21   -1    0    0  502  503 -0.00000000000E+00 -0.00000000000E+00 -0.20243018448E+03  0.20243018448E+03  0.00000000000E+00 0. -1.
         -6    2    1    2    0  503 -0.93781897824E+02 -0.46162554827E+02  0.43967817061E+02  0.20740016997E+03  0.17365378124E+03 0.  0.
        -24    2    3    3    0    0 -0.20880952518E+02  0.36309935674E+02  0.30625293429E+02  0.96421016736E+02  0.81269171671E+02 0.  0.
          6    2    1    2  501    0  0.93781897824E+02  0.46162554827E+02 -0.34968206968E+02  0.20645980907E+03  0.17457620524E+03 0.  0.
          5    1    5    5  501    0  0.24693249382E+02  0.50707471244E+02 -0.96992312757E+02  0.11229694092E+03  0.47000000000E+01 0. -1.
        -13    1    5    5    0    0  0.38064788586E+02  0.34567882492E+01  0.39730578976E+02  0.55130721208E+02  0.00000000000E+00 0.  1.
         14    1    5    5    0    0  0.31023859856E+02 -0.80017046664E+01  0.22293526813E+02  0.39032146952E+02  0.00000000000E+00 0. -1.
         -5    1    3    3    0  503 -0.72900945305E+02 -0.82472490501E+02  0.13342523632E+02  0.11097915323E+03  0.47000000000E+01 0.  1.
         13    1    4    4    0    0  0.16550836905E+01  0.31714412219E+02  0.54621282822E+02  0.63182495848E+02  0.00000000000E+00 0. -1.
        -14    1    4    4    0    0 -0.22536036209E+02  0.45955234551E+01 -0.23995989394E+02  0.33238520888E+02  0.00000000000E+00 0.  1.
<mgrwt>
<rscale>  2 0.20327897E+03</rscale>
<asrwt>0</asrwt>
<pdfrwt beam="1">  1       21 0.32527661E-01 0.20347697E+03</pdfrwt>
<pdfrwt beam="2">  1       21 0.31143105E-01 0.20347697E+03</pdfrwt>
<totfact> 0.89688678E+04</totfact>
</mgrwt>
</event>
<event>
12    1  0.1019868E-001  0.2377612E+03  0.7546771E-02  0.1121338E+00
         21   -1    0    0  501  502  0.00000000000E+00  0.00000000000E+00  0.18601534422E+03  0.18601534422E+03  0.00000000000E+00 0.  1.
         21   -1    0    0  502  503 -0.00000000000E+00 -0.00000000000E+00 -0.31121445092E+03  0.31121445092E+03  0.00000000000E+00 0. -1.
         -6    2    1    2    0  503 -0.11573250121E+03  0.11478845936E+03 -0.10160763971E+03  0.25856234892E+03  0.17308949590E+03 0.  0.
        -24    2    3    3    0    0 -0.74316095629E+02 -0.44256198610E+01 -0.26872551252E+02  0.11181515548E+03  0.78981180052E+02 0.  0.
          6    2    1    2  501    0  0.11573250121E+03 -0.11478845936E+03 -0.23591466987E+02  0.23866744622E+03  0.17272866100E+03 0.  0.
         24    2    5    5    0    0  0.12363424676E+03 -0.77940138324E+02  0.33550676245E+02  0.17005585187E+03  0.80207560400E+02 0.  0.
          5    1    5    5  501    0 -0.79017455430E+01 -0.36848321039E+02 -0.57142143231E+02  0.68611594349E+02  0.47000000000E+01 0. -1.
        -11    1    6    6    0    0  0.11162582371E+03 -0.92806246561E+02  0.38752842844E+02  0.15025014725E+03  0.00000000000E+00 0.  1.
         12    1    6    6    0    0  0.12008423045E+02  0.14866108237E+02 -0.52021665991E+01  0.19805704619E+02  0.00000000000E+00 0. -1.
         -5    1    3    3    0  503 -0.41416405584E+02  0.11921407922E+03 -0.74735088456E+02  0.14674719344E+03  0.47000000000E+01 0.  1.
         11    1    4    4    0    0 -0.87085837295E+02 -0.11780825294E+02 -0.85387013399E+01  0.88292923400E+02  0.00000000000E+00 0. -1.
        -12    1    4    4    0    0  0.12769741666E+02  0.73552054329E+01 -0.18333849912E+02  0.23522232075E+02  0.00000000000E+00 0.  1.
<mgrwt>
<rscale>  2 0.23769551E+03</rscale>
<asrwt>0</asrwt>
<pdfrwt beam="1">  1       21 0.28617745E-01 0.23776117E+03</pdfrwt>
<pdfrwt beam="2">  1       21 0.47879146E-01 0.23776117E+03</pdfrwt>
<totfact> 0.47695218E+04</totfact>
</mgrwt>
</event>
<event>
12    1  0.1019868E-001  0.1854278E+03  0.7546771E-02  0.1162773E+00
         21   -1    0    0  501  502  0.00000000000E+00  0.00000000000E+00  0.32430514929E+03  0.32430514929E+03  0.00000000000E+00 0. -1.
         21   -1    0    0  502  503 -0.00000000000E+00 -0.00000000000E+00 -0.13845530522E+03  0.13845530522E+03  0.00000000000E+00 0. -1.
         -6    2    1    2    0  503  0.49686761035E+01  0.65350445329E+02 -0.19478057361E+02  0.18644805838E+03  0.17345926124E+03 0.  0.
        -24    2    3    3    0    0 -0.11404062584E+02  0.52694408509E+02  0.51136674247E+02  0.11271358774E+03  0.84750457681E+02 0.  0.
          6    2    1    2  501    0 -0.49686761035E+01 -0.65350445329E+02  0.20532790143E+03  0.27631239613E+03  0.17289772902E+03 0.  0.
         24    2    5    5    0    0  0.40619619169E+02 -0.88115751491E+02  0.17882634499E+03  0.21868450076E+03  0.80185473060E+02 0.  0.
          5    1    5    5  501    0 -0.45588295272E+02  0.22765306162E+02  0.26501556441E+02  0.57627895366E+02  0.47000000000E+01 0. -1.
        -11    1    6    6    0    0  0.57688334571E+02 -0.76540367370E+02  0.10560480485E+03  0.14261397754E+03  0.00000000000E+00 0.  1.
         12    1    6    6    0    0 -0.17068715402E+02 -0.11575384121E+02  0.73221540138E+02  0.76070523221E+02  0.00000000000E+00 0. -1.
         -5    1    3    3    0  503  0.16372738688E+02  0.12656036820E+02 -0.70614731608E+02  0.73734470638E+02  0.47000000000E+01 0.  1.
         13    1    4    4    0    0  0.26498514854E+02  0.78217949077E+01 -0.86000010819E+01  0.28936340191E+02  0.00000000000E+00 0. -1.
        -14    1    4    4    0    0 -0.37902577438E+02  0.44872613601E+02  0.59736675329E+02  0.83777247551E+02  0.00000000000E+00 0.  1.
<mgrwt>
<rscale>  2 0.18529640E+03</rscale>
<asrwt>0</asrwt>
<pdfrwt beam="1">  1       21 0.49893100E-01 0.18542784E+03</pdfrwt>
<pdfrwt beam="2">  1       21 0.21300816E-01 0.18542784E+03</pdfrwt>
<totfact> 0.78743986E+04</totfact>
</mgrwt>
</event>
<event>
12    1  0.1019868E-001  0.1960434E+03  0.7546771E-02  0.1158955E+00
         21   -1    0    0  503  502  0.00000000000E+00  0.00000000000E+00  0.47508238534E+03  0.47508238534E+03  0.00000000000E+00 0. -1.
         21   -1    0    0  501  503 -0.00000000000E+00 -0.00000000000E+00 -0.11602484923E+03  0.11602484923E+03  0.00000000000E+00 0. -1.
          6    2    1    2  501    0 -0.17843826983E+02  0.47266569797E+01 -0.12041278888E+02  0.17140813203E+03  0.16998532843E+03 0.  0.
         24    2    3    3    0    0  0.25651743980E+02  0.55493207774E+02 -0.23682615593E+02  0.10338814899E+03  0.79942072726E+02 0.  0.
         -6    2    1    2    0  502  0.17843826983E+02 -0.47266569797E+01  0.37109881500E+03  0.41969910254E+03  0.19517239234E+03 0.  0.
        -24    2    5    5    0    0 -0.13466197635E+02  0.69543934907E+02  0.14940522216E+03  0.18376144644E+03  0.80178871453E+02 0.  0.
          5    1    3    3  501    0 -0.43495570963E+02 -0.50766550794E+02  0.11641336705E+02  0.68019983044E+02  0.47000000000E+01 0. -1.
        -13    1    4    4    0    0  0.28723305887E+02  0.64938741784E+02  0.67959721061E+01  0.71331996484E+02  0.00000000000E+00 0.  1.
         14    1    4    4    0    0 -0.30715619065E+01 -0.94455340098E+01 -0.30478587699E+02  0.32056152505E+02  0.00000000000E+00 0. -1.
         -5    1    5    5    0  502  0.31310024618E+02 -0.74270591886E+02  0.22169359284E+03  0.23593765610E+03  0.47000000000E+01 0.  1.
         11    1    6    6    0    0  0.31173667738E+02  0.12386374407E+02  0.58913647025E+02  0.67794082610E+02  0.00000000000E+00 0. -1.
        -12    1    6    6    0    0 -0.44639865373E+02  0.57157560500E+02  0.90491575133E+02  0.11596736383E+03  0.00000000000E+00 0.  1.
<mgrwt>
<rscale>  2 0.18945384E+03</rscale>
<asrwt>0</asrwt>
<pdfrwt beam="1">  1       21 0.73089597E-01 0.19604338E+03</pdfrwt>
<pdfrwt beam="2">  1       21 0.17849977E-01 0.19604338E+03</pdfrwt>
<totfact> 0.47935582E+04</totfact>
</mgrwt>
</event>
<event>
12    1  0.1019868E-001  0.2204002E+03  0.7546771E-02  0.1134066E+00
         21   -1    0    0  503  502  0.00000000000E+00  0.00000000000E+00  0.33588556958E+02  0.33588556958E+02  0.00000000000E+00 0.  1.
         21   -1    0    0  501  503 -0.00000000000E+00 -0.00000000000E+00 -0.27334166981E+04  0.27334166981E+04  0.00000000000E+00 0.  1.
          6    2    1    2  501    0  0.10495804864E+03  0.79194494890E+02 -0.23096239210E+04  0.23201161441E+04  0.17688500710E+03 0.  0.
         24    2    3    3    0    0  0.61242432790E+02 -0.10963952573E+02 -0.16384663510E+04  0.16415041972E+04  0.78058966577E+02 0.  0.
         -6    2    1    2    0  502 -0.10495804864E+03 -0.79194494890E+02 -0.39020422017E+03  0.44688911096E+03  0.17367378636E+03 0.  0.
        -24    2    5    5    0    0 -0.48666477834E+02 -0.85101408933E+02 -0.35898018199E+03  0.38207658797E+03  0.86631819462E+02 0.  0.
          5    1    3    3  501    0  0.43715615851E+02  0.90158447463E+02 -0.67115757002E+03  0.67861194693E+03  0.47000000000E+01 0. -1.
        -11    1    4    4    0    0  0.49235247116E+02  0.24673675290E+02 -0.65214559685E+03  0.65446679006E+03  0.00000000000E+00 0.  1.
         12    1    4    4    0    0  0.12007185674E+02 -0.35637627862E+02 -0.98632075414E+03  0.98703740713E+03  0.00000000000E+00 0. -1.
         -5    1    5    5    0  502 -0.56291570806E+02  0.59069140429E+01 -0.31224038174E+02  0.64812522997E+02  0.47000000000E+01 0.  1.
         11    1    6    6    0    0 -0.21440446991E+02 -0.86656663171E+02 -0.17881940451E+03  0.19986357715E+03  0.00000000000E+00 0. -1.
        -12    1    6    6    0    0 -0.27226030843E+02  0.15552542382E+01 -0.18016077748E+03  0.18221301082E+03  0.00000000000E+00 0.  1.
<mgrwt>
<rscale>  2 0.21975522E+03</rscale>
<asrwt>0</asrwt>
<pdfrwt beam="1">  1       21 0.51674714E-02 0.22040024E+03</pdfrwt>
<pdfrwt beam="2">  1       21 0.42052556E+00 0.22040024E+03</pdfrwt>
<totfact> 0.15817903E+03</totfact>
</mgrwt>
</event>
<event>
12    1  0.1019868E-001  0.1750470E+03  0.7546771E-02  0.1173070E+00
         21   -1    0    0  501  502  0.00000000000E+00  0.00000000000E+00  0.45182466774E+03  0.45182466774E+03  0.00000000000E+00 0.  1.
         21   -1    0    0  502  503 -0.00000000000E+00 -0.00000000000E+00 -0.31145403930E+03  0.31145403930E+03  0.00000000000E+00 0.  1.
         -6    2    1    2    0  503  0.23922860612E+02 -0.34704763700E+01 -0.26769868888E+03  0.31985001249E+03  0.17336982147E+03 0.  0.
        -24    2    3    3    0    0  0.53495509027E+02 -0.28096716424E+02 -0.26194764573E+03  0.28065616436E+03  0.80623312576E+02 0.  0.
          6    2    1    2  501    0 -0.23922860612E+02  0.34704763700E+01  0.40806931732E+03  0.44342869456E+03  0.17182576045E+03 0.  0.
         24    2    5    5    0    0 -0.30931709736E+02  0.65392146731E+02  0.29434816676E+03  0.31366734703E+03  0.80705996059E+02 0.  0.
          5    1    5    5  501    0  0.70088491242E+01 -0.61921670361E+02  0.11372115056E+03  0.12976134753E+03  0.47000000000E+01 0. -1.
        -13    1    6    6    0    0  0.29460838075E+01  0.15667435038E+02  0.20693409008E+03  0.20754726105E+03  0.00000000000E+00 0.  1.
         14    1    6    6    0    0 -0.33877793544E+02  0.49724711693E+02  0.87414076673E+02  0.10612008598E+03  0.00000000000E+00 0. -1.
         -5    1    3    3    0  503 -0.29572648415E+02  0.24626240054E+02 -0.57510431454E+01  0.39193848123E+02  0.47000000000E+01 0.  1.
         11    1    4    4    0    0 -0.14467309723E+02  0.94798694672E+01 -0.19456837440E+02  0.26033430410E+02  0.00000000000E+00 0. -1.
        -12    1    4    4    0    0  0.67962818750E+02 -0.37576585891E+02 -0.24249080829E+03  0.25462273396E+03  0.00000000000E+00 0.  1.
<mgrwt>
<rscale>  2 0.17466343E+03</rscale>
<asrwt>0</asrwt>
<pdfrwt beam="1">  1       21 0.69511487E-01 0.17504697E+03</pdfrwt>
<pdfrwt beam="2">  1       21 0.47916006E-01 0.17504697E+03</pdfrwt>
<totfact> 0.79357927E+03</totfact>
</mgrwt>
</event>
<event>
12    1  0.1019868E-001  0.2616407E+03  0.7546771E-02  0.1106190E+00
         21   -1    0    0  501  502  0.00000000000E+00  0.00000000000E+00  0.69211167679E+03  0.69211167679E+03  0.00000000000E+00 0. -1.
         21   -1    0    0  502  503 -0.00000000000E+00 -0.00000000000E+00 -0.98953882634E+02  0.98953882634E+02  0.00000000000E+00 0.  1.
         -6    2    1    2    0  503 -0.19666346513E+03 -0.50762191036E+01  0.31016320778E+03  0.40565434362E+03  0.17219739986E+03 0.  0.
        -24    2    3    3    0    0 -0.53036607450E+02  0.46918242563E+02  0.13991993270E+03  0.17688161578E+03  0.81824905870E+02 0.  0.
          6    2    1    2  501    0  0.19666346513E+03  0.50762191036E+01  0.28299458637E+03  0.38541121580E+03  0.17249226890E+03 0.  0.
         24    2    5    5    0    0  0.11535690282E+03 -0.61347604789E+02  0.19631370147E+03  0.24918145670E+03  0.80508293614E+02 0.  0.
          5    1    5    5  501    0  0.81306562314E+02  0.66423823893E+02  0.86680884907E+02  0.13622975910E+03  0.47000000000E+01 0. -1.
        -13    1    6    6    0    0 -0.51525979022E+01 -0.13474659325E+02  0.57259285584E+02  0.59048636687E+02  0.00000000000E+00 0.  1.
         14    1    6    6    0    0  0.12050950072E+03 -0.47872945464E+02  0.13905441588E+03  0.19013282002E+03  0.00000000000E+00 0. -1.
         -5    1    3    3    0  503 -0.14362685768E+03 -0.51994461666E+02  0.17024327508E+03  0.22877272784E+03  0.47000000000E+01 0.  1.
         13    1    4    4    0    0  0.13988077224E+02 -0.16404453003E+01  0.60700471939E+02  0.62312957391E+02  0.00000000000E+00 0. -1.
        -14    1    4    4    0    0 -0.67024684674E+02  0.48558687863E+02  0.79219460757E+02  0.11456865839E+03  0.00000000000E+00 0.  1.
<mgrwt>
<rscale>  2 0.26159214E+03</rscale>
<asrwt>0</asrwt>
<pdfrwt beam="1">  1       21 0.10647872E+00 0.26164073E+03</pdfrwt>
<pdfrwt beam="2">  1       21 0.15223675E-01 0.26164073E+03</pdfrwt>
<totfact> 0.26011227E+04</totfact>
</mgrwt>
</event>
<event>
12    1  0.1019868E-001  0.2913684E+03  0.7546771E-02  0.1089639E+00
         21   -1    0    0  503  502  0.00000000000E+00  0.00000000000E+00  0.53361712277E+03  0.53361712277E+03  0.00000000000E+00 0. -1.
         21   -1    0    0  501  503 -0.00000000000E+00 -0.00000000000E+00 -0.20232814842E+03  0.20232814842E+03  0.00000000000E+00 0. -1.
          6    2    1    2  501    0  0.16111467808E+03 -0.17066681380E+03  0.33575888786E+03  0.44455545460E+03  0.17265694487E+03 0.  0.
         24    2    3    3    0    0  0.58518041335E+02 -0.30478830787E+02  0.62614112612E+02  0.12081342968E+03  0.79511240750E+02 0.  0.
         -6    2    1    2    0  502 -0.16111467808E+03  0.17066681380E+03 -0.44699135119E+01  0.29138981659E+03  0.17263529262E+03 0.  0.
        -24    2    5    5    0    0 -0.17319557379E+03  0.96921759219E+02 -0.18156535378E+02  0.21527349288E+03  0.81378638282E+02 0.  0.
          5    1    3    3  501    0  0.10259663674E+03 -0.14018798301E+03  0.27314477525E+03  0.32374202492E+03  0.47000000000E+01 0. -1.
        -13    1    4    4    0    0  0.48744993073E+02 -0.11733312585E+02  0.79341854037E+02  0.93855605991E+02  0.00000000000E+00 0.  1.
         14    1    4    4    0    0  0.97730482615E+01 -0.18745518201E+02 -0.16727741425E+02  0.26957823691E+02  0.00000000000E+00 0. -1.
         -5    1    5    5    0  502  0.12080895715E+02  0.73745054583E+02  0.13686621866E+02  0.76116323708E+02  0.47000000000E+01 0.  1.
         11    1    6    6    0    0 -0.42422285460E+02  0.45790942962E+02  0.26666545215E+02  0.67879049748E+02  0.00000000000E+00 0. -1.
        -12    1    6    6    0    0 -0.13077328833E+03  0.51130816257E+02 -0.44823080593E+02  0.14739444313E+03  0.00000000000E+00 0.  1.
<mgrwt>
<rscale>  2 0.29136515E+03</rscale>
<asrwt>0</asrwt>
<pdfrwt beam="1">  1       21 0.82094941E-01 0.29136836E+03</pdfrwt>
<pdfrwt beam="2">  1       21 0.31127408E-01 0.29136836E+03</pdfrwt>
<totfact> 0.12172491E+04</totfact>
</mgrwt>
</event>
<event>
12    1  0.1019868E-001  0.1791980E+03  0.7546771E-02  0.1168599E+00
         21   -1    0    0  503  502  0.00000000000E+00  0.00000000000E+00  0.72666830886E+02  0.72666830886E+02  0.00000000000E+00 0. -1.
         21   -1    0    0  501  503 -0.00000000000E+00 -0.00000000000E+00 -0.45743115362E+03  0.45743115362E+03  0.00000000000E+00 0. -1.
          6    2    1    2  501    0  0.31850426968E+02 -0.33199434836E+02 -0.24145522711E+03  0.30064335797E+03  0.17311600107E+03 0.  0.
         24    2    3    3    0    0 -0.92801982642E+01  0.28709714391E+02 -0.61380757975E+02  0.10577577339E+03  0.80687960723E+02 0.  0.
         -6    2    1    2    0  502 -0.31850426968E+02  0.33199434836E+02 -0.14330909563E+03  0.22945462654E+03  0.17319144487E+03 0.  0.
        -24    2    5    5    0    0 -0.32141966715E+02  0.87863395821E+02 -0.88025199690E+02  0.15156603445E+03  0.80440939019E+02 0.  0.
          5    1    3    3  501    0  0.41130625232E+02 -0.61909149227E+02 -0.18007446913E+03  0.19486758459E+03  0.47000000000E+01 0. -1.
        -11    1    4    4    0    0 -0.18837005269E+02 -0.10245677721E+02 -0.62059349679E+02  0.65659497120E+02  0.00000000000E+00 0.  1.
         12    1    4    4    0    0  0.95568070046E+01  0.38955392113E+02  0.67859170456E+00  0.40116276266E+02  0.00000000000E+00 0. -1.
         -5    1    5    5    0  502  0.29153974659E+00 -0.54663960985E+02 -0.55283895941E+02  0.77888592082E+02  0.47000000000E+01 0.  1.
         11    1    6    6    0    0 -0.36719321259E+02  0.73824521856E+02 -0.24020195940E+02  0.85879790370E+02  0.00000000000E+00 0. -1.
        -12    1    6    6    0    0  0.45773545445E+01  0.14038873965E+02 -0.64005003750E+02  0.65686244084E+02  0.00000000000E+00 0.  1.
<mgrwt>
<rscale>  2 0.17917978E+03</rscale>
<asrwt>0</asrwt>
<pdfrwt beam="1">  1       21 0.11179512E-01 0.17919802E+03</pdfrwt>
<pdfrwt beam="2">  1       21 0.70374026E-01 0.17919802E+03</pdfrwt>
<totfact> 0.12253534E+05</totfact>
</mgrwt>
</event>
<event>
12    1  0.1019868E-001  0.1789851E+03  0.7546771E-02  0.1169166E+00
         21   -1    0    0  503  502  0.00000000000E+00  0.00000000000E+00  0.58041950476E+03  0.58041950476E+03  0.00000000000E+00 0.  1.
         21   -1    0    0  501  503 -0.00000000000E+00 -0.00000000000E+00 -0.73565851453E+02  0.73565851453E+02  0.00000000000E+00 0.  1.
          6    2    1    2  501    0 -0.19666430609E+02 -0.32271360341E+02  0.87110266054E+02  0.19767387805E+03  0.17337403041E+03 0.  0.
         24    2    3    3    0    0 -0.15309249554E+02 -0.89119221273E+02  0.55286484449E+02  0.13221009115E+03  0.79033563230E+02 0.  0.
         -6    2    1    2    0  502  0.19666430609E+02  0.32271360341E+02  0.41974338725E+03  0.45631147817E+03  0.17494983502E+03 0.  0.
        -24    2    5    5    0    0 -0.28518304613E+02  0.54037541258E+02  0.14768431581E+03  0.17912243853E+03  0.80875467759E+02 0.  0.
          5    1    3    3  501    0 -0.43571810552E+01  0.56847860932E+02  0.31823781605E+02  0.65463786898E+02  0.47000000000E+01 0. -1.
        -11    1    4    4    0    0 -0.44804198465E+02 -0.29732812349E+02  0.23699636724E+02  0.58763331348E+02  0.00000000000E+00 0.  1.
         12    1    4    4    0    0  0.29494948911E+02 -0.59386408924E+02  0.31586847725E+02  0.73446759802E+02  0.00000000000E+00 0. -1.
         -5    1    5    5    0  502  0.48184735222E+02 -0.21766180917E+02  0.27205907145E+03  0.27718903964E+03  0.47000000000E+01 0.  1.
         13    1    6    6    0    0 -0.24434882191E+02 -0.16681454780E+02  0.32960440302E+02  0.44291365142E+02  0.00000000000E+00 0. -1.
        -14    1    6    6    0    0 -0.40834224227E+01  0.70718996038E+02  0.11472387550E+03  0.13483107338E+03  0.00000000000E+00 0.  1.
<mgrwt>
<rscale>  2 0.17859883E+03</rscale>
<asrwt>0</asrwt>
<pdfrwt beam="1">  1       21 0.89295305E-01 0.17898507E+03</pdfrwt>
<pdfrwt beam="2">  1       21 0.11317824E-01 0.17898507E+03</pdfrwt>
<totfact> 0.70124109E+04</totfact>
</mgrwt>
</event>
<event>
12    1  0.1019868E-001  0.1812077E+03  0.7546771E-02  0.1167005E+00
         21   -1    0    0  501  502  0.00000000000E+00  0.00000000000E+00  0.11826092371E+03  0.11826092371E+03  0.00000000000E+00 0. -1.
         21   -1    0    0  502  503 -0.00000000000E+00 -0.00000000000E+00 -0.32608368108E+03  0.32608368108E+03  0.00000000000E+00 0. -1.
         -6    2    1    2    0  503  0.39947839343E+02 -0.26503685179E+02 -0.19118541757E+03  0.26237473829E+03  0.17317726238E+03 0.  0.
        -24    2    3    3    0    0  0.23776805845E+02  0.49781117690E+02 -0.84051539987E+02  0.12978276569E+03  0.82069535887E+02 0.  0.
          6    2    1    2  501    0 -0.39947839343E+02  0.26503685179E+02 -0.16637339802E+02  0.18196986651E+03  0.17475112602E+03 0.  0.
         24    2    5    5    0    0 -0.34344502812E+02  0.48121214918E+02 -0.69592495986E+02  0.12430658930E+03  0.84343443413E+02 0.  0.
          5    1    5    5  501    0 -0.56033365304E+01 -0.21617529738E+02  0.52955156184E+02  0.57663277211E+02  0.47000000000E+01 0. -1.
        -13    1    6    6    0    0 -0.54775800565E+02  0.16929687659E+02 -0.65104296909E+02  0.86750055492E+02  0.00000000000E+00 0.  1.
         14    1    6    6    0    0  0.20431297753E+02  0.31191527259E+02 -0.44881990771E+01  0.37556533806E+02  0.00000000000E+00 0. -1.
         -5    1    3    3    0  503  0.16171033497E+02 -0.76284802869E+02 -0.10713387758E+03  0.13259197260E+03  0.47000000000E+01 0.  1.
         13    1    4    4    0    0  0.77758653936E+01  0.65054227836E+02 -0.85382244571E+02  0.10762269431E+03  0.00000000000E+00 0. -1.
        -14    1    4    4    0    0  0.16000940452E+02 -0.15273110147E+02  0.13307045837E+01  0.22160071380E+02  0.00000000000E+00 0.  1.
<mgrwt>
<rscale>  2 0.18082718E+03</rscale>
<asrwt>0</asrwt>
<pdfrwt beam="1">  1       21 0.18193988E-01 0.18120770E+03</pdfrwt>
<pdfrwt beam="2">  1       21 0.50166720E-01 0.18120770E+03</pdfrwt>
<totfact> 0.10459906E+05</totfact>
</mgrwt>
</event>
<event>
12    1  0.1019868E-001  0.1949265E+03  0.7546771E-02  0.1154119E+00
         21   -1    0    0  501  502  0.00000000000E+00  0.00000000000E+00  0.26036651478E+04  0.26036651478E+04  0.00000000000E+00 0. -1.
         21   -1    0    0  502  503 -0.00000000000E+00 -0.00000000000E+00 -0.32709009604E+02  0.32709009604E+02  0.00000000000E+00 0.  1.
         -6    2    1    2    0  503  0.88350109739E+02 -0.15926310277E+02  0.30403731928E+03  0.36109016008E+03  0.17288152864E+03 0.  0.
        -24    2    3    3    0    0  0.10814993602E+01 -0.14563388286E+02  0.61998330801E+02  0.10375258052E+03  0.81899591101E+02 0.  0.
          6    2    1    2  501    0 -0.88350109739E+02  0.15926310277E+02  0.22669188189E+04  0.22752839973E+04  0.17302296857E+03 0.  0.
         24    2    5    5    0    0  0.15727923725E+02  0.18661562949E+02  0.78422108283E+03  0.78892792112E+03  0.82516279930E+02 0.  0.
          5    1    5    5  501    0 -0.10407803346E+03 -0.27352526724E+01  0.14826977361E+04  0.14863560762E+04  0.47000000000E+01 0. -1.
        -13    1    6    6    0    0  0.77365876533E+01  0.51587699856E+02  0.47869488122E+03  0.48152874771E+03  0.00000000000E+00 0.  1.
         14    1    6    6    0    0  0.79913360722E+01 -0.32926136906E+02  0.30552620162E+03  0.30739917342E+03  0.00000000000E+00 0. -1.
         -5    1    3    3    0  503  0.87268610379E+02 -0.13629219906E+01  0.24203898847E+03  0.25733757956E+03  0.47000000000E+01 0.  1.
         13    1    4    4    0    0 -0.17376965771E+02 -0.39334297515E+02  0.58584625837E+02  0.72672582759E+02  0.00000000000E+00 0. -1.
        -14    1    4    4    0    0  0.18458465131E+02  0.24770909229E+02  0.34137049640E+01  0.31079997757E+02  0.00000000000E+00 0.  1.
<mgrwt>
<rscale>  2 0.19489510E+03</rscale>
<asrwt>0</asrwt>
<pdfrwt beam="1">  1       21 0.40056371E+00 0.19492649E+03</pdfrwt>
<pdfrwt beam="2">  1       21 0.50321574E-02 0.19492649E+03</pdfrwt>
<totfact> 0.22918204E+03</totfact>
</mgrwt>
</event>
<event>
12    1  0.1019868E-001  0.2217801E+03  0.7546771E-02  0.1133033E+00
         21   -1    0    0  501  502  0.00000000000E+00  0.00000000000E+00  0.73516347299E+03  0.73516347299E+03  0.00000000000E+00 0. -1.
         21   -1    0    0  502  503 -0.00000000000E+00 -0.00000000000E+00 -0.86595339716E+02  0.86595339716E+02  0.00000000000E+00 0. -1.
         -6    2    1    2    0  503 -0.59743694268E+02  0.12476714556E+03  0.12318834926E+03  0.25148667579E+03  0.17010005612E+03 0.  0.
        -24    2    3    3    0    0 -0.71492985018E+02  0.81491307861E+02  0.16460778548E+02  0.13562594771E+03  0.79820801159E+02 0.  0.
          6    2    1    2  501    0  0.59743694268E+02 -0.12476714556E+03  0.52537978401E+03  0.57027213691E+03  0.17335005935E+03 0.  0.
         24    2    5    5    0    0  0.46921658054E+02 -0.15655351877E+03  0.38432205102E+03  0.42503387690E+03  0.78991843755E+02 0.  0.
          5    1    5    5  501    0  0.12822036214E+02  0.31786373211E+02  0.14105773299E+03  0.14523826001E+03  0.47000000000E+01 0. -1.
        -11    1    6    6    0    0  0.14821060622E+02 -0.13952325574E+03  0.25916373543E+03  0.29470704860E+03  0.00000000000E+00 0.  1.
         12    1    6    6    0    0  0.32100597432E+02 -0.17030263026E+02  0.12515831559E+03  0.13032682830E+03  0.00000000000E+00 0. -1.
         -5    1    3    3    0  503  0.11749290751E+02  0.43275837697E+02  0.10672757072E+03  0.11586072808E+03  0.47000000000E+01 0.  1.
         13    1    4    4    0    0 -0.10799117497E+02  0.68734196151E+02  0.22956308562E+02  0.73266655185E+02  0.00000000000E+00 0. -1.
        -14    1    4    4    0    0 -0.60693867521E+02  0.12757111711E+02 -0.64955300145E+01  0.62359292524E+02  0.00000000000E+00 0.  1.
<mgrwt>
<rscale>  2 0.22114460E+03</rscale>
<asrwt>0</asrwt>
<pdfrwt beam="1">  1       21 0.11310207E+00 0.22178005E+03</pdfrwt>
<pdfrwt beam="2">  1       21 0.13322360E-01 0.22178005E+03</pdfrwt>
<totfact> 0.29205177E+04</totfact>
</mgrwt>
</event>
<event>
12    1  0.1019868E-001  0.2180610E+03  0.7546771E-02  0.1135340E+00
         21   -1    0    0  501  502  0.00000000000E+00  0.00000000000E+00  0.45036178471E+03  0.45036178471E+03  0.00000000000E+00 0. -1.
         21   -1    0    0  502  503 -0.00000000000E+00 -0.00000000000E+00 -0.10578646849E+03  0.10578646849E+03  0.00000000000E+00 0.  1.
         -6    2    1    2    0  503 -0.13016471625E+03 -0.24453558471E+02  0.15984659587E+03  0.27035937745E+03  0.17321209221E+03 0.  0.
        -24    2    3    3    0    0 -0.13985445611E+03  0.34379735062E+02  0.13025957532E+03  0.20363060351E+03  0.61291358667E+02 0.  0.
          6    2    1    2  501    0  0.13016471625E+03  0.24453558471E+02  0.18472872035E+03  0.28578887575E+03  0.17323322864E+03 0.  0.
         24    2    5    5    0    0  0.23561395638E+02  0.71827955102E+01  0.16981996356E+02  0.86230361459E+02  0.80873698576E+02 0.  0.
          5    1    5    5  501    0  0.10660332061E+03  0.17270762960E+02  0.16774672399E+03  0.19955851429E+03  0.47000000000E+01 0. -1.
        -13    1    6    6    0    0  0.20846958874E+02 -0.25212692755E+02 -0.18923965542E+02  0.37794074166E+02  0.00000000000E+00 0.  1.
         14    1    6    6    0    0  0.27144367640E+01  0.32395488265E+02  0.35905961898E+02  0.48436287293E+02  0.00000000000E+00 0. -1.
         -5    1    3    3    0  503  0.96897398619E+01 -0.58833293533E+02  0.29587020547E+02  0.66728773939E+02  0.47000000000E+01 0.  1.
         13    1    4    4    0    0 -0.70556959577E+02  0.32356811588E+02  0.10337442977E+03  0.12927304642E+03  0.00000000000E+00 0. -1.
        -14    1    4    4    0    0 -0.69297496531E+02  0.20229234741E+01  0.26885145549E+02  0.74357557088E+02  0.00000000000E+00 0.  1.
<mgrwt>
<rscale>  2 0.21805676E+03</rscale>
<asrwt>0</asrwt>
<pdfrwt beam="1">  1       21 0.69286427E-01 0.21806096E+03</pdfrwt>
<pdfrwt beam="2">  1       21 0.16274842E-01 0.21806096E+03</pdfrwt>
<totfact> 0.63316009E+04</totfact>
</mgrwt>
</event>
<event>
12    1  0.1019868E-001  0.2187485E+03  0.7546771E-02  0.1136465E+00
         21   -1    0    0  501  502  0.00000000000E+00  0.00000000000E+00  0.24849666183E+03  0.24849666183E+03  0.00000000000E+00 0. -1.
         21   -1    0    0  502  503 -0.00000000000E+00 -0.00000000000E+00 -0.19504458705E+03  0.19504458705E+03  0.00000000000E+00 0.  1.
         -6    2    1    2    0  503 -0.53010265762E+01  0.13353714203E+03 -0.23881432089E+02  0.21152539125E+03  0.16221097115E+03 0.  0.
        -24    2    3    3    0    0 -0.82614858890E+01  0.11212950269E+03 -0.74104309387E+02  0.15664844941E+03  0.80037556877E+02 0.  0.
          6    2    1    2  501    0  0.53010265762E+01 -0.13353714203E+03  0.77333506867E+02  0.23201585763E+03  0.17317799433E+03 0.  0.
         24    2    5    5    0    0  0.63200093738E+02 -0.12053879565E+03  0.47094094853E+02  0.16524931641E+03  0.81028573357E+02 0.  0.
          5    1    5    5  501    0 -0.57899067162E+02 -0.12998346385E+02  0.30239412014E+02  0.66766541216E+02  0.47000000000E+01 0. -1.
        -11    1    6    6    0    0  0.55898245077E+02 -0.39755937975E+02  0.48695465993E+02  0.84121322001E+02  0.00000000000E+00 0.  1.
         12    1    6    6    0    0  0.73018486609E+01 -0.80782857674E+02 -0.16013711407E+01  0.81127994413E+02  0.00000000000E+00 0. -1.
         -5    1    3    3    0  503  0.29604593128E+01  0.21407639344E+02  0.50222877298E+02  0.54876941840E+02  0.47000000000E+01 0.  1.
         11    1    4    4    0    0  0.32843653330E+02  0.27241882096E+02 -0.14455758777E+02  0.45053242569E+02  0.00000000000E+00 0. -1.
        -12    1    4    4    0    0 -0.41105139219E+02  0.84887620594E+02 -0.59648550609E+02  0.11159520684E+03  0.00000000000E+00 0.  1.
<mgrwt>
<rscale>  2 0.21657232E+03</rscale>
<asrwt>0</asrwt>
<pdfrwt beam="1">  1       21 0.38230256E-01 0.21874846E+03</pdfrwt>
<pdfrwt beam="2">  1       21 0.30006860E-01 0.21874846E+03</pdfrwt>
<totfact> 0.69485745E+04</totfact>
</mgrwt>
</event>
<event>
12    1  0.1019868E-001  0.1987769E+03  0.7546771E-02  0.1151050E+00
         21   -1    0    0  503  502  0.00000000000E+00  0.00000000000E+00  0.11843351616E+04  0.11843351616E+04  0.00000000000E+00 0. -1.
         21   -1    0    0  501  503 -0.00000000000E+00 -0.00000000000E+00 -0.47784227317E+02  0.47784227317E+02  0.00000000000E+00 0. -1.
          6    2    1    2  501    0  0.80346331418E+02  0.49814851396E+02  0.22602402024E+03  0.30014753868E+03  0.17339156512E+03 0.  0.
         24    2    3    3    0    0  0.63670356959E+02  0.67459167986E+02  0.67907168841E+02  0.14010867237E+03  0.80089966863E+02 0.  0.
         -6    2    1    2    0  502 -0.80346331418E+02 -0.49814851396E+02  0.91052691408E+03  0.93197185028E+03  0.17485770231E+03 0.  0.
        -24    2    5    5    0    0 -0.11312498952E+02  0.28752453413E+02  0.28784509087E+03  0.30055025232E+03  0.80752595153E+02 0.  0.
          5    1    3    3  501    0  0.16675974459E+02 -0.17644316590E+02  0.15811685140E+03  0.16003886631E+03  0.47000000000E+01 0. -1.
        -11    1    4    4    0    0  0.49101695038E+02  0.53030164265E+02  0.86298976525E+02  0.11256415116E+03  0.00000000000E+00 0.  1.
         12    1    4    4    0    0  0.14568661921E+02  0.14429003721E+02 -0.18391807684E+02  0.27544521206E+02  0.00000000000E+00 0. -1.
         -5    1    5    5    0  502 -0.69033832466E+02 -0.78567304808E+02  0.62268182321E+03  0.63142159796E+03  0.47000000000E+01 0.  1.
         13    1    6    6    0    0 -0.13349879709E+02 -0.38818693346E+01  0.25061357249E+03  0.25099890621E+03  0.00000000000E+00 0. -1.
        -14    1    6    6    0    0  0.20373807578E+01  0.32634322747E+02  0.37231518373E+02  0.49551346116E+02  0.00000000000E+00 0.  1.
<mgrwt>
<rscale>  2 0.19845402E+03</rscale>
<asrwt>0</asrwt>
<pdfrwt beam="1">  1       21 0.18220539E+00 0.19877693E+03</pdfrwt>
<pdfrwt beam="2">  1       21 0.73514205E-02 0.19877693E+03</pdfrwt>
<totfact> 0.24327447E+04</totfact>
</mgrwt>
</event>
<event>
12    1  0.1019868E-001  0.1967266E+03  0.7546771E-02  0.1153009E+00
         21   -1    0    0  503  502  0.00000000000E+00  0.00000000000E+00  0.11388841410E+03  0.11388841410E+03  0.00000000000E+00 0.  1.
         21   -1    0    0  501  503 -0.00000000000E+00 -0.00000000000E+00 -0.49181758284E+03  0.49181758284E+03  0.00000000000E+00 0. -1.
          6    2    1    2  501    0  0.76284761881E+02 -0.50677801490E+02 -0.36014977990E+03  0.41037691292E+03  0.17410842093E+03 0.  0.
         24    2    3    3    0    0  0.77969699133E+01  0.85162640355E+01 -0.24379503116E+03  0.26288103977E+03  0.97658099311E+02 0.  0.
         -6    2    1    2    0  502 -0.76284761881E+02  0.50677801490E+02 -0.17779388839E+02  0.19532908401E+03  0.17160926529E+03 0.  0.
        -24    2    5    5    0    0 -0.11447077650E+03  0.56620731916E+02 -0.31656540866E+02  0.15399924633E+03  0.80026029116E+02 0.  0.
          5    1    3    3  501    0  0.68487791968E+02 -0.59194065526E+02 -0.11635474874E+03  0.14749587315E+03  0.47000000000E+01 0. -1.
        -13    1    4    4    0    0  0.29479844288E+02  0.19320901865E+01 -0.15308903238E+02  0.33273964448E+02  0.00000000000E+00 0.  1.
         14    1    4    4    0    0 -0.21682874375E+02  0.65841738490E+01 -0.22848612792E+03  0.22960707533E+03  0.00000000000E+00 0. -1.
         -5    1    5    5    0  502  0.38186014616E+02 -0.59429304259E+01  0.13877152027E+02  0.41329837680E+02  0.47000000000E+01 0.  1.
         11    1    6    6    0    0 -0.11072220052E+03  0.38911321305E+02 -0.50594241717E+02  0.12780169760E+03  0.00000000000E+00 0. -1.
        -12    1    6    6    0    0 -0.37485759759E+01  0.17709410611E+02  0.18937700852E+02  0.26197548732E+02  0.00000000000E+00 0.  1.
<mgrwt>
<rscale>  2 0.19617215E+03</rscale>
<asrwt>0</asrwt>
<pdfrwt beam="1">  1       21 0.17521294E-01 0.19672658E+03</pdfrwt>
<pdfrwt beam="2">  1       21 0.75664245E-01 0.19672658E+03</pdfrwt>
<totfact> 0.45906885E+04</totfact>
</mgrwt>
</event>
<event>
11    1  0.1019868E-001  0.2273015E+03  0.7546771E-02  0.1128956E+00
         21   -1    0    0  501  502  0.00000000000E+00  0.00000000000E+00  0.10668677267E+04  0.10668677267E+04  0.00000000000E+00 0. -1.
         21   -1    0    0  502  503 -0.00000000000E+00 -0.00000000000E+00 -0.48094802557E+02  0.48094802557E+02  0.00000000000E+00 0.  1.
         -6    2    1    2    0  503  0.24722023322E+01 -0.14791505069E+03  0.48154413291E+03  0.53249480580E+03  0.17257170177E+03 0.  0.
          6    2    1    2  501    0 -0.24722023322E+01  0.14791505069E+03  0.53722879118E+03  0.58246772342E+03  0.16961397566E+03 0.  0.
         24    2    4    4    0    0 -0.26404932092E+02  0.13978985966E+03  0.28153082548E+03  0.32548069271E+03  0.80247431937E+02 0.  0.
          5    1    4    4  501    0  0.23932729760E+02  0.81251910323E+01  0.25569796571E+03  0.25698703071E+03  0.47000000000E+01 0. -1.
        -11    1    5    5    0    0  0.14700644302E+02  0.49625117936E+02  0.43364082020E+02  0.67521884470E+02  0.00000000000E+00 0.  1.
         12    1    5    5    0    0 -0.41105576394E+02  0.90164741725E+02  0.23816674346E+03  0.25795880824E+03  0.00000000000E+00 0. -1.
         -5    1    3    3    0  503 -0.98425246601E+00  0.47182968703E+01 -0.11859976397E+02  0.13637452783E+02  0.47000000000E+01 0.  1.
         11    1    3    3    0    0 -0.22774420998E+01 -0.12779153491E+03  0.45612623454E+03  0.47369505484E+03  0.00000000000E+00 0. -1.
        -12    1    3    3    0    0  0.57338968981E+01 -0.24841812650E+02  0.37277874769E+02  0.45162298177E+02  0.00000000000E+00 0.  1.
<mgrwt>
<rscale>  2 0.22674008E+03</rscale>
<asrwt>0</asrwt>
<pdfrwt beam="1">  1       21 0.16413348E+00 0.22730149E+03</pdfrwt>
<pdfrwt beam="2">  1       21 0.73992012E-02 0.22730149E+03</pdfrwt>
<totfact> 0.31601273E+04</totfact>
</mgrwt>
</event>
<event>
12    1  0.1019868E-001  0.1961401E+03  0.7546771E-02  0.1155338E+00
         21   -1    0    0  503  502  0.00000000000E+00  0.00000000000E+00  0.70818240749E+02  0.70818240749E+02  0.00000000000E+00 0. -1.
         21   -1    0    0  501  503 -0.00000000000E+00 -0.00000000000E+00 -0.59925884316E+03  0.59925884316E+03  0.00000000000E+00 0. -1.
          6    2    1    2  501    0 -0.62156667458E+02  0.25160252201E+02 -0.38367477158E+03  0.42629835832E+03  0.17328436270E+03 0.  0.
         24    2    3    3    0    0 -0.37019794666E+02 -0.15435436159E+02 -0.84008693251E+02  0.12281570513E+03  0.80109418906E+02 0.  0.
         -6    2    1    2    0  502  0.62156667458E+02 -0.25160252201E+02 -0.14476583083E+03  0.24377872559E+03  0.18432154425E+03 0.  0.
        -24    2    5    5    0    0  0.69154775325E+02 -0.59658420315E+02 -0.33253218823E+02  0.12674774784E+03  0.81349277532E+02 0.  0.
          5    1    3    3  501    0 -0.25136872792E+02  0.40595688361E+02 -0.29966607833E+03  0.30348265320E+03  0.47000000000E+01 0. -1.
        -13    1    4    4    0    0  0.21950984848E+02  0.88362382991E+01 -0.35626485347E+02  0.42768812250E+02  0.00000000000E+00 0.  1.
         14    1    4    4    0    0 -0.58970779515E+02 -0.24271674458E+02 -0.48382207905E+02  0.80046892877E+02  0.00000000000E+00 0. -1.
         -5    1    5    5    0  502 -0.69981078666E+01  0.34498168114E+02 -0.11151261200E+03  0.11703097775E+03  0.47000000000E+01 0.  1.
         13    1    6    6    0    0  0.57785310670E+02 -0.15346109899E+01  0.19708639953E+01  0.57839272688E+02  0.00000000000E+00 0. -1.
        -14    1    6    6    0    0  0.11369464654E+02 -0.58123809326E+02 -0.35224082818E+02  0.68908475149E+02  0.00000000000E+00 0.  1.
<mgrwt>
<rscale>  2 0.19350393E+03</rscale>
<asrwt>0</asrwt>
<pdfrwt beam="1">  1       21 0.10895114E-01 0.19614006E+03</pdfrwt>
<pdfrwt beam="2">  1       21 0.92193669E-01 0.19614006E+03</pdfrwt>
<totfact> 0.69145027E+04</totfact>
</mgrwt>
</event>
<event>
12    1  0.1019868E-001  0.2077594E+03  0.7546771E-02  0.1143832E+00
         21   -1    0    0  501  502  0.00000000000E+00  0.00000000000E+00  0.50105282594E+03  0.50105282594E+03  0.00000000000E+00 0. -1.
         21   -1    0    0  502  503 -0.00000000000E+00 -0.00000000000E+00 -0.96941254734E+02  0.96941254734E+02  0.00000000000E+00 0. -1.
         -6    2    1    2    0  503  0.10796494030E+03  0.39750988814E+02  0.96832724936E+02  0.22707056305E+03  0.17014080797E+03 0.  0.
        -24    2    3    3    0    0  0.60432116917E+02  0.25089814117E+02  0.12883827413E+03  0.16773453249E+03  0.85170611033E+02 0.  0.
          6    2    1    2  501    0 -0.10796494030E+03 -0.39750988814E+02  0.30727884627E+03  0.37092351763E+03  0.17299536733E+03 0.  0.
         24    2    5    5    0    0 -0.80898816945E+02 -0.93845804149E+02  0.22325784090E+03  0.26728740701E+03  0.79036958980E+02 0.  0.
          5    1    5    5  501    0 -0.27066123360E+02  0.54094815335E+02  0.84021005368E+02  0.10363611061E+03  0.47000000000E+01 0. -1.
        -13    1    6    6    0    0 -0.34047653989E+02 -0.94227118492E+01  0.16282150044E+02  0.38899082904E+02  0.00000000000E+00 0.  1.
         14    1    6    6    0    0 -0.46851162956E+02 -0.84423092300E+02  0.20697569086E+03  0.22838832411E+03  0.00000000000E+00 0. -1.
         -5    1    3    3    0  503  0.47532823388E+02  0.14661174698E+02 -0.32005549190E+02  0.59336030552E+02  0.47000000000E+01 0.  1.
         13    1    4    4    0    0  0.58598961345E+02  0.11790202728E+02  0.27999898334E+02  0.66006374372E+02  0.00000000000E+00 0. -1.
        -14    1    4    4    0    0  0.18331555720E+01  0.13299611388E+02  0.10083837579E+03  0.10172815812E+03  0.00000000000E+00 0.  1.
<mgrwt>
<rscale>  2 0.20716414E+03</rscale>
<asrwt>0</asrwt>
<pdfrwt beam="1">  1       21 0.77085048E-01 0.20775940E+03</pdfrwt>
<pdfrwt beam="2">  1       21 0.14914040E-01 0.20775940E+03</pdfrwt>
<totfact> 0.58848845E+04</totfact>
</mgrwt>
</event>
<event>
12    1  0.1019868E-001  0.2633395E+03  0.7546771E-02  0.1105246E+00
         21   -1    0    0  501  502  0.00000000000E+00  0.00000000000E+00  0.11499038072E+03  0.11499038072E+03  0.00000000000E+00 0.  1.
         21   -1    0    0  502  503 -0.00000000000E+00 -0.00000000000E+00 -0.10222823545E+04  0.10222823545E+04  0.00000000000E+00 0. -1.
         -6    2    1    2    0  503  0.17909591680E+03  0.86036938692E+02 -0.81808638192E+03  0.85923436279E+03  0.17187396453E+03 0.  0.
        -24    2    3    3    0    0  0.91192883324E+02  0.11306885758E+03 -0.60069759300E+03  0.62314615156E+03  0.79829940789E+02 0.  0.
          6    2    1    2  501    0 -0.17909591680E+03 -0.86036938692E+02 -0.89205591878E+02  0.27803837246E+03  0.17282938611E+03 0.  0.
         24    2    5    5    0    0 -0.29908510060E+02 -0.73684007544E+02 -0.29743871997E+02  0.11689476145E+03  0.80348213365E+02 0.  0.
          5    1    5    5  501    0 -0.14918740674E+03 -0.12352931148E+02 -0.59461719880E+02  0.16114361101E+03  0.47000000000E+01 0. -1.
        -11    1    6    6    0    0 -0.42379212021E+02 -0.14409357385E+02  0.80766502616E+01  0.45484716897E+02  0.00000000000E+00 0.  1.
         12    1    6    6    0    0  0.12470701961E+02 -0.59274650159E+02 -0.37820522259E+02  0.71410044551E+02  0.00000000000E+00 0. -1.
         -5    1    3    3    0  503  0.87903033474E+02 -0.27031918892E+02 -0.21738878892E+03  0.23608821123E+03  0.47000000000E+01 0.  1.
         13    1    4    4    0    0  0.50679776801E+02  0.73044006002E+02 -0.49653833328E+03  0.50443451806E+03  0.00000000000E+00 0. -1.
        -14    1    4    4    0    0  0.40513106523E+02  0.40024851582E+02 -0.10415925972E+03  0.11871163350E+03  0.00000000000E+00 0.  1.
<mgrwt>
<rscale>  2 0.26318286E+03</rscale>
<asrwt>0</asrwt>
<pdfrwt beam="1">  1       21 0.17690828E-01 0.26333951E+03</pdfrwt>
<pdfrwt beam="2">  1       21 0.15727420E+00 0.26333951E+03</pdfrwt>
<totfact> 0.72697750E+03</totfact>
</mgrwt>
</event>
<event>
11    1  0.1019868E-001  0.2214556E+03  0.7546771E-02  0.1133098E+00
         21   -1    0    0  503  502  0.00000000000E+00  0.00000000000E+00  0.99960627154E+02  0.99960627154E+02  0.00000000000E+00 0. -1.
         21   -1    0    0  501  503 -0.00000000000E+00 -0.00000000000E+00 -0.55791321963E+03  0.55791321963E+03  0.00000000000E+00 0.  1.
          6    2    1    2  501    0  0.97928353366E+02 -0.92784877863E+02 -0.34544960747E+03  0.40948002371E+03  0.17360720769E+03 0.  0.
         24    2    3    3    0    0  0.46008128089E+02  0.14104491876E+02 -0.95916676606E+02  0.13305675996E+03  0.78666434888E+02 0.  0.
         -6    2    1    2    0  502 -0.97928353366E+02  0.92784877863E+02 -0.11250298500E+03  0.24839382308E+03  0.17562338612E+03 0.  0.
          5    1    3    3  501    0  0.51920225277E+02 -0.10688936974E+03 -0.24953293086E+03  0.27642326375E+03  0.47000000000E+01 0. -1.
        -11    1    4    4    0    0  0.38402837280E+02  0.71782012428E+01 -0.10936028276E+03  0.11612913471E+03  0.00000000000E+00 0.  1.
         12    1    4    4    0    0  0.76052908089E+01  0.69262906330E+01  0.13443606149E+02  0.16927625247E+02  0.00000000000E+00 0. -1.
         -5    1    5    5    0  502 -0.79063689243E+02  0.11519506429E+03 -0.19126927261E+02  0.14109889844E+03  0.47000000000E+01 0.  1.
         13    1    5    5    0    0  0.14197115964E+02 -0.10643357675E+02 -0.30245372955E+02  0.35065962834E+02  0.00000000000E+00 0. -1.
        -14    1    5    5    0    0 -0.33061780087E+02 -0.11766828753E+02 -0.63130684788E+02  0.72228961804E+02  0.00000000000E+00 0.  1.
<mgrwt>
<rscale>  2 0.22105562E+03</rscale>
<asrwt>0</asrwt>
<pdfrwt beam="1">  1       21 0.15378558E-01 0.22145557E+03</pdfrwt>
<pdfrwt beam="2">  1       21 0.85832801E-01 0.22145557E+03</pdfrwt>
<totfact> 0.43293703E+04</totfact>
</mgrwt>
</event>
<event>
12    1  0.1019868E-001  0.1783199E+03  0.7546771E-02  0.1169679E+00
         21   -1    0    0  501  502  0.00000000000E+00  0.00000000000E+00  0.14219943848E+02  0.14219943848E+02  0.00000000000E+00 0. -1.
         21   -1    0    0  502  503 -0.00000000000E+00 -0.00000000000E+00 -0.22604890312E+04  0.22604890312E+04  0.00000000000E+00 0. -1.
         -6    2    1    2    0  503 -0.49296855087E+01  0.40072771723E+02 -0.97538580325E+03  0.99137647636E+03  0.17268388422E+03 0.  0.
        -24    2    3    3    0    0 -0.63372448180E+01  0.16739851485E+02 -0.20777420532E+03  0.22339466560E+03  0.80091653256E+02 0.  0.
          6    2    1    2  501    0  0.49296855087E+01 -0.40072771723E+02 -0.12708832841E+04  0.12833324987E+04  0.17368895054E+03 0.  0.
         24    2    5    5    0    0  0.38699582038E+02 -0.63645306785E+02 -0.54041949535E+03  0.55169358023E+03  0.82244712823E+02 0.  0.
          5    1    5    5  501    0 -0.33769896530E+02  0.23572535061E+02 -0.73046378876E+03  0.73163891846E+03  0.47000000000E+01 0. -1.
        -11    1    6    6    0    0 -0.16146918692E+02 -0.39236990472E+02 -0.12608562454E+03  0.13303326321E+03  0.00000000000E+00 0.  1.
         12    1    6    6    0    0  0.54846500731E+02 -0.24408316313E+02 -0.41433387081E+03  0.41866031702E+03  0.00000000000E+00 0. -1.
         -5    1    3    3    0  503  0.14075593094E+01  0.23332920238E+02 -0.76761159792E+03  0.76798181076E+03  0.47000000000E+01 0.  1.
         11    1    4    4    0    0 -0.34926857421E+02  0.33478026427E+02 -0.11028601537E+03  0.12043117872E+03  0.00000000000E+00 0. -1.
        -12    1    4    4    0    0  0.28589612603E+02 -0.16738174942E+02 -0.97488189955E+02  0.10296348688E+03  0.00000000000E+00 0.  1.
<mgrwt>
<rscale>  2 0.17807467E+03</rscale>
<asrwt>0</asrwt>
<pdfrwt beam="1">  1       21 0.21876830E-02 0.17831988E+03</pdfrwt>
<pdfrwt beam="2">  1       21 0.34776764E+00 0.17831988E+03</pdfrwt>
<totfact> 0.19488579E+04</totfact>
</mgrwt>
</event>
<event>
12    1  0.1019868E-001  0.2489705E+03  0.7546771E-02  0.1114788E+00
         21   -1    0    0  501  502  0.00000000000E+00  0.00000000000E+00  0.15747659860E+03  0.15747659860E+03  0.00000000000E+00 0. -1.
         21   -1    0    0  502  503 -0.00000000000E+00 -0.00000000000E+00 -0.46038542311E+03  0.46038542311E+03  0.00000000000E+00 0.  1.
         -6    2    1    2    0  503  0.16411061368E+03  0.72655283989E+02 -0.27738820274E+03  0.37273381976E+03  0.17255492331E+03 0.  0.
        -24    2    3    3    0    0  0.99583284524E+02  0.90633123534E+02 -0.12177627308E+03  0.20325183967E+03  0.91381923844E+02 0.  0.
          6    2    1    2  501    0 -0.16411061368E+03 -0.72655283989E+02 -0.25520621762E+02  0.24512820195E+03  0.16500136194E+03 0.  0.
         24    2    5    5    0    0 -0.11609645135E+03 -0.37447077457E+02 -0.74066274950E+02  0.16816231318E+03  0.88949878368E+02 0.  0.
          5    1    5    5  501    0 -0.48014162332E+02 -0.35208206532E+02  0.48545653187E+02  0.76965888776E+02  0.47000000000E+01 0. -1.
        -13    1    6    6    0    0 -0.10707340407E+03  0.17596539565E+01 -0.36552117961E+02  0.11315417610E+03  0.00000000000E+00 0.  1.
         14    1    6    6    0    0 -0.90230472821E+01 -0.39206731414E+02 -0.37514156988E+02  0.55008137079E+02  0.00000000000E+00 0. -1.
         -5    1    3    3    0  503  0.64527329157E+02 -0.17977839545E+02 -0.15561192966E+03  0.16948198009E+03  0.47000000000E+01 0.  1.
         13    1    4    4    0    0  0.30206712898E+02  0.67147719403E+02 -0.17258424642E+02  0.75624830223E+02  0.00000000000E+00 0. -1.
        -14    1    4    4    0    0  0.69376571627E+02  0.23485404131E+02 -0.10451784844E+03  0.12762700945E+03  0.00000000000E+00 0.  1.
<mgrwt>
<rscale>  2 0.24766665E+03</rscale>
<asrwt>0</asrwt>
<pdfrwt beam="1">  1       21 0.24227169E-01 0.24897045E+03</pdfrwt>
<pdfrwt beam="2">  1       21 0.70828526E-01 0.24897045E+03</pdfrwt>
<totfact> 0.28205519E+04</totfact>
</mgrwt>
</event>
<event>
12    1  0.1019868E-001  0.2911532E+03  0.7546771E-02  0.1090213E+00
         21   -1    0    0  503  502  0.00000000000E+00  0.00000000000E+00  0.23260382606E+03  0.23260382606E+03  0.00000000000E+00 0. -1.
         21   -1    0    0  501  503 -0.00000000000E+00 -0.00000000000E+00 -0.47406398497E+03  0.47406398497E+03  0.00000000000E+00 0.  1.
          6    2    1    2  501    0  0.13269222278E+03 -0.18793240906E+03  0.52018972326E+02  0.29576369082E+03  0.17844991165E+03 0.  0.
         24    2    3    3    0    0  0.11178418382E+03 -0.43204325413E+02  0.21402108655E+02  0.14628845331E+03  0.81116852934E+02 0.  0.
         -6    2    1    2    0  502 -0.13269222278E+03  0.18793240906E+03 -0.29347913124E+03  0.41090412021E+03  0.17258730885E+03 0.  0.
        -24    2    5    5    0    0 -0.61209769772E+02  0.13695274590E+03 -0.27226929987E+03  0.32045737295E+03  0.77843854636E+02 0.  0.
          5    1    3    3  501    0  0.20908038956E+02 -0.14472808364E+03  0.30616863672E+02  0.14947523751E+03  0.47000000000E+01 0. -1.
        -13    1    4    4    0    0 -0.12114747578E+02 -0.66928404172E+01  0.90406115566E+01  0.16531602435E+02  0.00000000000E+00 0.  1.
         14    1    4    4    0    0  0.12389893140E+03 -0.36511484996E+02  0.12361497098E+02  0.12975685088E+03  0.00000000000E+00 0. -1.
         -5    1    5    5    0  502 -0.71482453005E+02  0.50979663159E+02 -0.21209831375E+02  0.90446747263E+02  0.47000000000E+01 0.  1.
         11    1    6    6    0    0  0.27117456176E+01  0.59570662620E+02 -0.15514491274E+03  0.16621059340E+03  0.00000000000E+00 0. -1.
        -12    1    6    6    0    0 -0.63921515389E+02  0.77382083276E+02 -0.11712438712E+03  0.15424677955E+03  0.00000000000E+00 0.  1.
<mgrwt>
<rscale>  2 0.29026012E+03</rscale>
<asrwt>0</asrwt>
<pdfrwt beam="1">  1       21 0.35785205E-01 0.29115320E+03</pdfrwt>
<pdfrwt beam="2">  1       21 0.72932920E-01 0.29115320E+03</pdfrwt>
<totfact> 0.12062054E+04</totfact>
</mgrwt>
</event>
<event>
12    1  0.1019868E-001  0.2192148E+03  0.7546771E-02  0.1135388E+00
         21   -1    0    0  503  502  0.00000000000E+00  0.00000000000E+00  0.15972036583E+03  0.15972036583E+03  0.00000000000E+00 0.  1.
         21   -1    0    0  501  503 -0.00000000000E+00 -0.00000000000E+00 -0.32700991982E+03  0.32700991982E+03  0.00000000000E+00 0.  1.
          6    2    1    2  501    0 -0.12317330235E+03 -0.34611006607E+02 -0.74673955467E+01  0.21934191134E+03  0.17800429176E+03 0.  0.
         24    2    3    3    0    0 -0.12544765673E+03 -0.14892791212E+01  0.46625615869E+02  0.15569943022E+03  0.79555213429E+02 0.  0.
         -6    2    1    2    0  502  0.12317330235E+03  0.34611006607E+02 -0.15982215845E+03  0.26738837431E+03  0.17199952382E+03 0.  0.
        -24    2    5    5    0    0  0.49017691507E+02 -0.47174882743E+02 -0.75093687897E+02  0.12814402061E+03  0.78445040713E+02 0.  0.
          5    1    3    3  501    0  0.22743543840E+01 -0.33121727486E+02 -0.54093011415E+02  0.63642481123E+02  0.47000000000E+01 0. -1.
        -11    1    4    4    0    0 -0.97071963708E+02  0.27460899452E+02  0.10545819564E+02  0.10143116605E+03  0.00000000000E+00 0.  1.
         12    1    4    4    0    0 -0.28375693022E+02 -0.28950178574E+02  0.36079796305E+02  0.54268264164E+02  0.00000000000E+00 0. -1.
         -5    1    5    5    0  502  0.74155610839E+02  0.81785889350E+02 -0.84728470552E+02  0.13924435370E+03  0.47000000000E+01 0.  1.
         11    1    6    6    0    0  0.82523635388E+01  0.59433242094E+01  0.13619952752E+02  0.16997873973E+02  0.00000000000E+00 0. -1.
        -12    1    6    6    0    0  0.40765327968E+02 -0.53118206952E+02 -0.88713640649E+02  0.11114614663E+03  0.00000000000E+00 0.  1.
<mgrwt>
<rscale>  2 0.21799276E+03</rscale>
<asrwt>0</asrwt>
<pdfrwt beam="1">  1       21 0.24572364E-01 0.21921476E+03</pdfrwt>
<pdfrwt beam="2">  1       21 0.50309218E-01 0.21921476E+03</pdfrwt>
<totfact> 0.58172748E+04</totfact>
</mgrwt>
</event>
<event>
12    1  0.1019868E-001  0.1973246E+03  0.7546771E-02  0.1152121E+00
         21   -1    0    0  503  502  0.00000000000E+00  0.00000000000E+00  0.99432846576E+02  0.99432846576E+02  0.00000000000E+00 0. -1.
         21   -1    0    0  501  503 -0.00000000000E+00 -0.00000000000E+00 -0.39622135104E+03  0.39622135104E+03  0.00000000000E+00 0. -1.
          6    2    1    2  501    0 -0.93409232197E+02 -0.14829152975E+02 -0.17803346685E+03  0.26576850521E+03  0.17318139220E+03 0.  0.
         24    2    3    3    0    0 -0.11085291485E+03  0.97664431080E+00 -0.68717584058E+02  0.15384818747E+03  0.81595562762E+02 0.  0.
         -6    2    1    2    0  502  0.93409232197E+02  0.14829152975E+02 -0.11875503762E+03  0.22988569241E+03  0.17262527097E+03 0.  0.
        -24    2    5    5    0    0  0.13201921835E+03 -0.11574118752E+00 -0.10278751988E+03  0.18526358449E+03  0.79550198532E+02 0.  0.
          5    1    3    3  501    0  0.17443682658E+02 -0.15805797285E+02 -0.10931588279E+03  0.11192031774E+03  0.47000000000E+01 0. -1.
        -11    1    4    4    0    0 -0.87822947589E+02  0.35107231522E+02 -0.59229592860E+02  0.11159539640E+03  0.00000000000E+00 0.  1.
         12    1    4    4    0    0 -0.23029967266E+02 -0.34130587211E+02 -0.94879911974E+01  0.42252791063E+02  0.00000000000E+00 0. -1.
         -5    1    5    5    0  502 -0.38609986152E+02  0.14944894162E+02 -0.15967517734E+02  0.44622107915E+02  0.47000000000E+01 0.  1.
         11    1    6    6    0    0  0.10103631039E+03  0.30735093441E+02 -0.92399418887E+02  0.14032332164E+03  0.00000000000E+00 0. -1.
        -12    1    6    6    0    0  0.30982907961E+02 -0.30850834629E+02 -0.10388100995E+02  0.44940262853E+02  0.00000000000E+00 0.  1.
<mgrwt>
<rscale>  2 0.19720247E+03</rscale>
<asrwt>0</asrwt>
<pdfrwt beam="1">  1       21 0.15297361E-01 0.19732456E+03</pdfrwt>
<pdfrwt beam="2">  1       21 0.60957131E-01 0.19732456E+03</pdfrwt>
<totfact> 0.94613276E+04</totfact>
</mgrwt>
</event>
<event>
12    1  0.1019868E-001  0.1765478E+03  0.7546771E-02  0.1172233E+00
         21   -1    0    0  501  502  0.00000000000E+00  0.00000000000E+00  0.24056712874E+03  0.24056712874E+03  0.00000000000E+00 0. -1.
         21   -1    0    0  502  503 -0.00000000000E+00 -0.00000000000E+00 -0.17934126841E+03  0.17934126841E+03  0.00000000000E+00 0. -1.
         -6    2    1    2    0  503 -0.22269723511E+02  0.27445624304E+02 -0.83572773579E+02  0.19157581627E+03  0.16872368541E+03 0.  0.
        -24    2    3    3    0    0  0.34920002747E+02 -0.13932880339E+01 -0.90705396098E+02  0.12695916240E+03  0.81668918153E+02 0.  0.
          6    2    1    2  501    0  0.22269723511E+02 -0.27445624304E+02  0.14479863391E+03  0.22833258088E+03  0.17297375590E+03 0.  0.
         24    2    5    5    0    0  0.66012414555E+02 -0.25510137100E+01  0.14453738209E+03  0.17778237901E+03  0.79695501251E+02 0.  0.
          5    1    5    5  501    0 -0.43742691045E+02 -0.24894610594E+02  0.26125182023E+00  0.50550201869E+02  0.47000000000E+01 0. -1.
        -13    1    6    6    0    0  0.22115044654E+02  0.26118776912E+02  0.10949700340E+03  0.11472078914E+03  0.00000000000E+00 0.  1.
         14    1    6    6    0    0  0.43897369901E+02 -0.28669790622E+02  0.35040378690E+02  0.63061589873E+02  0.00000000000E+00 0. -1.
         -5    1    3    3    0  503 -0.57189726257E+02  0.28838912337E+02  0.71326225188E+01  0.64616653876E+02  0.47000000000E+01 0.  1.
         11    1    4    4    0    0  0.19881927973E+02  0.33924576189E+02 -0.15013431092E+02  0.42090034957E+02  0.00000000000E+00 0. -1.
        -12    1    4    4    0    0  0.15038074774E+02 -0.35317864223E+02 -0.75691965006E+02  0.84869127441E+02  0.00000000000E+00 0.  1.
<mgrwt>
<rscale>  2 0.17549798E+03</rscale>
<asrwt>0</asrwt>
<pdfrwt beam="1">  1       21 0.37010327E-01 0.17654779E+03</pdfrwt>
<pdfrwt beam="2">  1       21 0.27590964E-01 0.17654779E+03</pdfrwt>
<totfact> 0.88819953E+04</totfact>
</mgrwt>
</event>
<event>
12    1  0.1019868E-001  0.1914278E+03  0.7546771E-02  0.1157982E+00
         21   -1    0    0  501  502  0.00000000000E+00  0.00000000000E+00  0.41562674486E+03  0.41562674486E+03  0.00000000000E+00 0. -1.
         21   -1    0    0  502  503 -0.00000000000E+00 -0.00000000000E+00 -0.84547325848E+03  0.84547325848E+03  0.00000000000E+00 0. -1.
         -6    2    1    2    0  503 -0.36283362202E+01 -0.74723767253E+02 -0.81253623744E+03  0.83478124610E+03  0.17620381798E+03 0.  0.
        -24    2    3    3    0    0 -0.67585979233E+01 -0.65251878352E+02 -0.81614504801E+03  0.82317828391E+03  0.85007419885E+02 0.  0.
          6    2    1    2  501    0  0.36283362202E+01  0.74723767253E+02  0.38268972381E+03  0.42631875724E+03  0.17233528903E+03 0.  0.
         24    2    5    5    0    0  0.55829205084E+02  0.72514571723E+02  0.19084838405E+03  0.22743436646E+03  0.83234740932E+02 0.  0.
          5    1    5    5  501    0 -0.52200868864E+02  0.22091955303E+01  0.19184133976E+03  0.19888439078E+03  0.47000000000E+01 0. -1.
        -11    1    6    6    0    0  0.28553604215E+02 -0.11304374412E+02  0.24928392796E+02  0.39554038503E+02  0.00000000000E+00 0.  1.
         12    1    6    6    0    0  0.27275600869E+02  0.83818946134E+02  0.16591999125E+03  0.18788032795E+03  0.00000000000E+00 0. -1.
         -5    1    3    3    0  503  0.31302617031E+01 -0.94718889008E+01  0.36088105762E+01  0.11602962185E+02  0.47000000000E+01 0.  1.
         11    1    4    4    0    0 -0.26703418293E+02 -0.41437771636E+01 -0.49082770602E+03  0.49157103295E+03  0.00000000000E+00 0. -1.
        -12    1    4    4    0    0  0.19944820370E+02 -0.61108101189E+02 -0.32531734199E+03  0.33160725096E+03  0.00000000000E+00 0.  1.
<mgrwt>
<rscale>  2 0.19053282E+03</rscale>
<asrwt>0</asrwt>
<pdfrwt beam="1">  1       21 0.63942577E-01 0.19142777E+03</pdfrwt>
<pdfrwt beam="2">  1       21 0.13007281E+00 0.19142777E+03</pdfrwt>
<totfact> 0.97618201E+02</totfact>
</mgrwt>
</event>
<event>
12    1  0.1019868E-001  0.1917917E+03  0.7546771E-02  0.1159468E+00
         21   -1    0    0  503  502  0.00000000000E+00  0.00000000000E+00  0.93439381863E+02  0.93439381863E+02  0.00000000000E+00 0.  1.
         21   -1    0    0  501  503 -0.00000000000E+00 -0.00000000000E+00 -0.46286837405E+03  0.46286837405E+03  0.00000000000E+00 0. -1.
          6    2    1    2  501    0 -0.61093644866E+00 -0.82079948726E+02 -0.30427179787E+03  0.35375033637E+03  0.16068752993E+03 0.  0.
         24    2    3    3    0    0 -0.24469459889E+02 -0.64879856407E+02 -0.96488149606E+02  0.14384272144E+03  0.81071667451E+02 0.  0.
         -6    2    1    2    0  502  0.61093644866E+00  0.82079948726E+02 -0.65157194311E+02  0.20255741954E+03  0.17333942718E+03 0.  0.
        -24    2    5    5    0    0  0.23396198350E+02  0.70961309570E+02 -0.10760631051E+03  0.15289043088E+03  0.78825606504E+02 0.  0.
          5    1    3    3  501    0  0.23858523440E+02 -0.17200092319E+02 -0.20778364827E+03  0.20990761492E+03  0.47000000000E+01 0. -1.
        -13    1    4    4    0    0 -0.12065647341E+02 -0.79469519438E+01  0.13244108652E+02  0.19599497569E+02  0.00000000000E+00 0.  1.
         14    1    4    4    0    0 -0.12403812548E+02 -0.56932904464E+02 -0.10973225826E+03  0.12424322387E+03  0.00000000000E+00 0. -1.
         -5    1    5    5    0  502 -0.22785261902E+02  0.11118639157E+02  0.42449116197E+02  0.49666988660E+02  0.47000000000E+01 0.  1.
         13    1    6    6    0    0 -0.25463690487E+02  0.46703395215E+01 -0.31321714921E+02  0.40635716187E+02  0.00000000000E+00 0. -1.
        -14    1    6    6    0    0  0.48859888837E+02  0.66290970048E+02 -0.76284595587E+02  0.11225471469E+03  0.00000000000E+00 0.  1.
<mgrwt>
<rscale>  2 0.18888805E+03</rscale>
<asrwt>0</asrwt>
<pdfrwt beam="1">  1       21 0.14375289E-01 0.19179168E+03</pdfrwt>
<pdfrwt beam="2">  1       21 0.71210519E-01 0.19179168E+03</pdfrwt>
<totfact> 0.75643756E+04</totfact>
</mgrwt>
</event>
<event>
12    1  0.1019868E-001  0.1855764E+03  0.7546771E-02  0.1162729E+00
         21   -1    0    0  501  502  0.00000000000E+00  0.00000000000E+00  0.89432040040E+02  0.89432040040E+02  0.00000000000E+00 0. -1.
         21   -1    0    0  502  503 -0.00000000000E+00 -0.00000000000E+00 -0.49990212846E+03  0.49990212846E+03  0.00000000000E+00 0. -1.
         -6    2    1    2    0  503  0.48865543404E+02  0.46043515286E+02 -0.34724005673E+03  0.39328156054E+03  0.17200837837E+03 0.  0.
        -24    2    3    3    0    0  0.54968363749E+02  0.41522685107E+02 -0.36120859113E+03  0.37670168494E+03  0.81773215304E+02 0.  0.
          6    2    1    2  501    0 -0.48865543404E+02 -0.46043515286E+02 -0.63230031688E+02  0.19605260796E+03  0.17300503331E+03 0.  0.
         24    2    5    5    0    0 -0.39729161835E+02  0.19933015557E+02  0.13762875036E+02  0.94139047646E+02  0.81835274504E+02 0.  0.
          5    1    5    5  501    0 -0.91363815686E+01 -0.65976530843E+02 -0.76992906724E+02  0.10191356031E+03  0.47000000000E+01 0. -1.
        -13    1    6    6    0    0 -0.64224239907E+02  0.15833752313E+02  0.86279362642E+00  0.66152891975E+02  0.00000000000E+00 0.  1.
         14    1    6    6    0    0  0.24495078071E+02  0.40992632446E+01  0.12900081409E+02  0.27986155671E+02  0.00000000000E+00 0. -1.
         -5    1    3    3    0  503 -0.61028203447E+01  0.45208301790E+01  0.13968534397E+02  0.16579875598E+02  0.47000000000E+01 0.  1.
         11    1    4    4    0    0  0.64474800496E+01  0.26226002302E+02 -0.27703260705E+03  0.27834589733E+03  0.00000000000E+00 0. -1.
        -12    1    4    4    0    0  0.48520883699E+02  0.15296682804E+02 -0.84175984083E+02  0.98355787608E+02  0.00000000000E+00 0.  1.
<mgrwt>
<rscale>  2 0.18534373E+03</rscale>
<asrwt>0</asrwt>
<pdfrwt beam="1">  1       21 0.13758775E-01 0.18557637E+03</pdfrwt>
<pdfrwt beam="2">  1       21 0.76908019E-01 0.18557637E+03</pdfrwt>
<totfact> 0.69178815E+04</totfact>
</mgrwt>
</event>
<event>
12    1  0.1019868E-001  0.2316429E+03  0.7546771E-02  0.1125584E+00
         21   -1    0    0  501  502  0.00000000000E+00  0.00000000000E+00  0.17283833179E+03  0.17283833179E+03  0.00000000000E+00 0.  1.
         21   -1    0    0  502  503 -0.00000000000E+00 -0.00000000000E+00 -0.41976450955E+03  0.41976450955E+03  0.00000000000E+00 0.  1.
         -6    2    1    2    0  503 -0.12439606221E+03  0.91620105479E+02 -0.27527751555E+03  0.35977233371E+03  0.17259721178E+03 0.  0.
        -24    2    3    3    0    0 -0.11625652790E+02  0.11274632307E+02 -0.15312046171E+03  0.17506446679E+03  0.83303172812E+02 0.  0.
          6    2    1    2  501    0  0.12439606221E+03 -0.91620105479E+02  0.28351337785E+02  0.23283050763E+03  0.17186513000E+03 0.  0.
         24    2    5    5    0    0  0.14474204818E+03 -0.85943755050E+02 -0.11636403582E+02  0.18736305159E+03  0.81442726325E+02 0.  0.
          5    1    5    5  501    0 -0.20345985971E+02 -0.56763504292E+01  0.39987741367E+02  0.45467456042E+02  0.47000000000E+01 0. -1.
        -13    1    6    6    0    0  0.73533976834E+02  0.19469411917E+01  0.80636167264E+00  0.73564166196E+02  0.00000000000E+00 0.  1.
         14    1    6    6    0    0  0.71208071343E+02 -0.87890696242E+02 -0.12442765255E+02  0.11379888540E+03  0.00000000000E+00 0. -1.
         -5    1    3    3    0  503 -0.11277040942E+03  0.80345473172E+02 -0.12215705384E+03  0.18470786692E+03  0.47000000000E+01 0.  1.
         11    1    4    4    0    0 -0.27303222720E+01 -0.21131422485E+02 -0.13541442942E+03  0.13708048501E+03  0.00000000000E+00 0. -1.
        -12    1    4    4    0    0 -0.88953305184E+01  0.32406054792E+02 -0.17706032297E+02  0.37983981781E+02  0.00000000000E+00 0.  1.
<mgrwt>
<rscale>  2 0.23150651E+03</rscale>
<asrwt>0</asrwt>
<pdfrwt beam="1">  1       21 0.26590513E-01 0.23164287E+03</pdfrwt>
<pdfrwt beam="2">  1       21 0.64579154E-01 0.23164287E+03</pdfrwt>
<totfact> 0.29145335E+04</totfact>
</mgrwt>
</event>
<event>
12    1  0.1019868E-001  0.1763308E+03  0.7546771E-02  0.1171498E+00
         21   -1    0    0  501  502  0.00000000000E+00  0.00000000000E+00  0.10929840778E+03  0.10929840778E+03  0.00000000000E+00 0.  1.
         21   -1    0    0  502  503 -0.00000000000E+00 -0.00000000000E+00 -0.62687134284E+03  0.62687134284E+03  0.00000000000E+00 0.  1.
         -6    2    1    2    0  503 -0.32073630211E+02  0.10906656364E+02 -0.53093916319E+03  0.55933312812E+03  0.17265422177E+03 0.  0.
        -24    2    3    3    0    0 -0.41448725417E+02  0.67012881149E+02 -0.43753117764E+03  0.44986650017E+03  0.68830323929E+02 0.  0.
          6    2    1    2  501    0  0.32073630211E+02 -0.10906656364E+02  0.13366228130E+02  0.17683662249E+03  0.17304583812E+03 0.  0.
         24    2    5    5    0    0  0.36635056892E+02  0.37868671468E+02 -0.38384367325E+02  0.10542196469E+03  0.82850873936E+02 0.  0.
          5    1    5    5  501    0 -0.45614266812E+01 -0.48775327832E+02  0.51750595456E+02  0.71414657799E+02  0.47000000000E+01 0. -1.
        -11    1    6    6    0    0  0.22263249077E+02  0.46643090339E+02  0.11349014507E+02  0.52915312208E+02  0.00000000000E+00 0.  1.
         12    1    6    6    0    0  0.14371807815E+02 -0.87744188705E+01 -0.49733381833E+02  0.52506652482E+02  0.00000000000E+00 0. -1.
         -5    1    3    3    0  503  0.93750952066E+01 -0.56106224785E+02 -0.93407985555E+02  0.10946662795E+03  0.47000000000E+01 0.  1.
         13    1    4    4    0    0 -0.29984920579E+02  0.69603972878E+01 -0.60188720297E+02  0.67603436625E+02  0.00000000000E+00 0. -1.
        -14    1    4    4    0    0 -0.11463804838E+02  0.60052483861E+02 -0.37734245734E+03  0.38226306354E+03  0.00000000000E+00 0.  1.
<mgrwt>
<rscale>  2 0.17623460E+03</rscale>
<asrwt>0</asrwt>
<pdfrwt beam="1">  1       21 0.16815140E-01 0.17633075E+03</pdfrwt>
<pdfrwt beam="2">  1       21 0.96441746E-01 0.17633075E+03</pdfrwt>
<totfact> 0.28730390E+04</totfact>
</mgrwt>
</event>
<event>
12    1  0.1019868E-001  0.2212936E+03  0.7546771E-02  0.1132963E+00
         21   -1    0    0  503  502  0.00000000000E+00  0.00000000000E+00  0.18308049599E+03  0.18308049599E+03  0.00000000000E+00 0. -1.
         21   -1    0    0  501  503 -0.00000000000E+00 -0.00000000000E+00 -0.57611302250E+03  0.57611302250E+03  0.00000000000E+00 0. -1.
          6    2    1    2  501    0  0.10679422269E+03 -0.89072912177E+02 -0.47451786408E+03  0.52358195729E+03  0.17213910940E+03 0.  0.
         24    2    3    3    0    0  0.73026021188E+02 -0.12864031069E+03 -0.33579368102E+03  0.37535119319E+03  0.79056895426E+02 0.  0.
         -6    2    1    2    0  502 -0.10679422269E+03  0.89072912177E+02  0.81485337567E+02  0.23561156119E+03  0.17185446706E+03 0.  0.
        -24    2    5    5    0    0 -0.11181415374E+03  0.12189809391E+03  0.83645180569E+02  0.20200431220E+03  0.80297419885E+02 0.  0.
          5    1    3    3  501    0  0.33768201500E+02  0.39567398517E+02 -0.13872418306E+03  0.14823076410E+03  0.47000000000E+01 0. -1.
        -13    1    4    4    0    0 -0.13167615560E+02 -0.68169677233E+01 -0.59628381549E+02  0.61444292124E+02  0.00000000000E+00 0.  1.
         14    1    4    4    0    0  0.86193636748E+02 -0.12182334297E+03 -0.27616529947E+03  0.31390690107E+03  0.00000000000E+00 0. -1.
         -5    1    5    5    0  502  0.50199310514E+01 -0.32825181728E+02 -0.21598430024E+01  0.33607248996E+02  0.47000000000E+01 0.  1.
         13    1    6    6    0    0  0.91587014025E+01  0.20200877993E+02  0.25032224768E+02  0.33445022946E+02  0.00000000000E+00 0. -1.
        -14    1    6    6    0    0 -0.12097285514E+03  0.10169721591E+03  0.58612955802E+02  0.16855928925E+03  0.00000000000E+00 0.  1.
<mgrwt>
<rscale>  2 0.22123826E+03</rscale>
<asrwt>0</asrwt>
<pdfrwt beam="1">  1       21 0.28166230E-01 0.22129361E+03</pdfrwt>
<pdfrwt beam="2">  1       21 0.88632773E-01 0.22129361E+03</pdfrwt>
<totfact> 0.12870008E+04</totfact>
</mgrwt>
</event>
<event>
12    1  0.1019868E-001  0.3123879E+03  0.7546771E-02  0.1079217E+00
         21   -1    0    0  503  502  0.00000000000E+00  0.00000000000E+00  0.50371154227E+03  0.50371154227E+03  0.00000000000E+00 0.  1.
         21   -1    0    0  501  503 -0.00000000000E+00 -0.00000000000E+00 -0.23178843259E+03  0.23178843259E+03  0.00000000000E+00 0. -1.
          6    2    1    2  501    0  0.24133236444E+03 -0.96227049464E+02 -0.13164767243E+02  0.31258001720E+03  0.17329743473E+03 0.  0.
         24    2    3    3    0    0  0.12259656394E+03 -0.93928101980E+02 -0.60667204169E+02  0.18458764636E+03  0.80868310824E+02 0.  0.
         -6    2    1    2    0  502 -0.24133236444E+03  0.96227049464E+02  0.28508787693E+03  0.42291995766E+03  0.17345096666E+03 0.  0.
        -24    2    5    5    0    0 -0.11003728779E+03  0.69174248972E+02  0.23449067630E+03  0.27955881271E+03  0.79208402776E+02 0.  0.
          5    1    3    3  501    0  0.11873580050E+03 -0.22989474845E+01  0.47502436926E+02  0.12799237084E+03  0.47000000000E+01 0. -1.
        -13    1    4    4    0    0  0.44258539299E+02  0.88146000982E+01 -0.16283901518E+02  0.47975836880E+02  0.00000000000E+00 0.  1.
         14    1    4    4    0    0  0.78338024641E+02 -0.10274270208E+03 -0.44383302651E+02  0.13661180948E+03  0.00000000000E+00 0. -1.
         -5    1    5    5    0  502 -0.13129507665E+03  0.27052800493E+02  0.50597200632E+02  0.14336114494E+03  0.47000000000E+01 0.  1.
         13    1    6    6    0    0 -0.14351590326E+02  0.51827687107E+02  0.10070317534E+03  0.11416307117E+03  0.00000000000E+00 0. -1.
        -14    1    6    6    0    0 -0.95685697465E+02  0.17346561865E+02  0.13378750096E+03  0.16539574154E+03  0.00000000000E+00 0.  1.
<mgrwt>
<rscale>  2 0.31236658E+03</rscale>
<asrwt>0</asrwt>
<pdfrwt beam="1">  1       21 0.77494083E-01 0.31238789E+03</pdfrwt>
<pdfrwt beam="2">  1       21 0.35659759E-01 0.31238789E+03</pdfrwt>
<totfact> 0.10492419E+04</totfact>
</mgrwt>
</event>
<event>
12    1  0.1019868E-001  0.2171455E+03  0.7546771E-02  0.1138544E+00
         21   -1    0    0  503  502  0.00000000000E+00  0.00000000000E+00  0.43900357800E+03  0.43900357800E+03  0.00000000000E+00 0. -1.
         21   -1    0    0  501  503 -0.00000000000E+00 -0.00000000000E+00 -0.10259196062E+03  0.10259196062E+03  0.00000000000E+00 0.  1.
          6    2    1    2  501    0 -0.86820126170E+02  0.65538382155E+02  0.13104935103E+03  0.24272130131E+03  0.17293549046E+03 0.  0.
         24    2    3    3    0    0 -0.12652250681E+03  0.61695122707E+02  0.84618951485E+02  0.18132975732E+03  0.76849730274E+02 0.  0.
         -6    2    1    2    0  502  0.86820126170E+02 -0.65538382155E+02  0.20536226634E+03  0.29887423731E+03  0.18793385923E+03 0.  0.
        -24    2    5    5    0    0  0.23940999747E+02  0.30506044267E+02  0.14098106113E+03  0.16717250622E+03  0.81038244260E+02 0.  0.
          5    1    3    3  501    0  0.39702380638E+02  0.38432594484E+01  0.46430399548E+02  0.61391543992E+02  0.47000000000E+01 0. -1.
        -13    1    4    4    0    0 -0.20307150251E+02  0.98265875114E+01 -0.14711133481E+02  0.26932501216E+02  0.00000000000E+00 0.  1.
         14    1    4    4    0    0 -0.10621535656E+03  0.51868535195E+02  0.99330084966E+02  0.15439725610E+03  0.00000000000E+00 0. -1.
         -5    1    5    5    0  502  0.62879126423E+02 -0.96044426422E+02  0.64381205210E+02  0.13170173109E+03  0.47000000000E+01 0.  1.
         11    1    6    6    0    0 -0.14213895787E+02 -0.10784132209E+02  0.88443921856E+02  0.90225604206E+02  0.00000000000E+00 0. -1.
        -12    1    6    6    0    0  0.38154895533E+02  0.41290176477E+02  0.52537139278E+02  0.76946902018E+02  0.00000000000E+00 0.  1.
<mgrwt>
<rscale>  2 0.21386106E+03</rscale>
<asrwt>0</asrwt>
<pdfrwt beam="1">  1       21 0.67539011E-01 0.21714546E+03</pdfrwt>
<pdfrwt beam="2">  1       21 0.15783379E-01 0.21714546E+03</pdfrwt>
<totfact> 0.70887594E+04</totfact>
</mgrwt>
</event>
<event>
12    1  0.1019868E-001  0.3444945E+03  0.7546771E-02  0.1065226E+00
         21   -1    0    0  503  502  0.00000000000E+00  0.00000000000E+00  0.50833236477E+03  0.50833236477E+03  0.00000000000E+00 0.  1.
         21   -1    0    0  501  503 -0.00000000000E+00 -0.00000000000E+00 -0.36686557111E+03  0.36686557111E+03  0.00000000000E+00 0. -1.
          6    2    1    2  501    0  0.27156971610E+03  0.11603544702E+03 -0.19502127331E+03  0.39586581983E+03  0.17737563135E+03 0.  0.
         24    2    3    3    0    0  0.15908026528E+03  0.10941525447E+03 -0.19089905971E+03  0.28300844905E+03  0.79831713752E+02 0.  0.
         -6    2    1    2    0  502 -0.27156971610E+03 -0.11603544702E+03  0.33648806697E+03  0.47933211605E+03  0.17123294834E+03 0.  0.
        -24    2    5    5    0    0 -0.26732395896E+03 -0.10535566937E+03  0.24671836642E+03  0.38870776370E+03  0.87532034865E+02 0.  0.
          5    1    3    3  501    0  0.11248945082E+03  0.66201925533E+01 -0.41222135990E+01  0.11285737079E+03  0.47000000000E+01 0. -1.
        -11    1    4    4    0    0  0.10327634819E+03  0.25673595543E+02 -0.79148762427E+02  0.13262603137E+03  0.00000000000E+00 0.  1.
         12    1    4    4    0    0  0.55803917089E+02  0.83741658928E+02 -0.11175029728E+03  0.15038241767E+03  0.00000000000E+00 0. -1.
         -5    1    5    5    0  502 -0.42457571481E+01 -0.10679777657E+02  0.89769700543E+02  0.90624352358E+02  0.47000000000E+01 0.  1.
         11    1    6    6    0    0 -0.10351279216E+03 -0.74423095636E+02  0.68709236196E+02  0.14482629058E+03  0.00000000000E+00 0. -1.
        -12    1    6    6    0    0 -0.16381116680E+03 -0.30932573731E+02  0.17800913023E+03  0.24388147311E+03  0.00000000000E+00 0.  1.
<mgrwt>
<rscale>  2 0.34371128E+03</rscale>
<asrwt>0</asrwt>
<pdfrwt beam="1">  1       21 0.78204979E-01 0.34449449E+03</pdfrwt>
<pdfrwt beam="2">  1       21 0.56440857E-01 0.34449449E+03</pdfrwt>
<totfact> 0.38971601E+03</totfact>
</mgrwt>
</event>
<event>
12    1  0.1019868E-001  0.3921702E+03  0.7546771E-02  0.1046569E+00
         21   -1    0    0  501  502  0.00000000000E+00  0.00000000000E+00  0.77973654099E+03  0.77973654099E+03  0.00000000000E+00 0.  1.
         21   -1    0    0  502  503 -0.00000000000E+00 -0.00000000000E+00 -0.20540511920E+03  0.20540511920E+03  0.00000000000E+00 0. -1.
         -6    2    1    2    0  503 -0.30788522605E+03  0.17241526740E+03  0.38700905738E+03  0.55097499814E+03  0.17110552658E+03 0.  0.
        -24    2    3    3    0    0 -0.61139152646E+02  0.45054840989E+02  0.14491473574E+03  0.18255125633E+03  0.80973735688E+02 0.  0.
          6    2    1    2  501    0  0.30788522605E+03 -0.17241526740E+03  0.18732236441E+03  0.43416666205E+03  0.16997260186E+03 0.  0.
         24    2    5    5    0    0  0.17227457598E+03 -0.30355959880E+02  0.68241784168E+02  0.20444210992E+03  0.80867925481E+02 0.  0.
          5    1    5    5  501    0  0.13561065007E+03 -0.14205930752E+03  0.11908058024E+03  0.22972455213E+03  0.47000000000E+01 0. -1.
        -13    1    6    6    0    0  0.33227894098E+02 -0.37797437070E+02  0.34950208958E+02  0.61271986270E+02  0.00000000000E+00 0.  1.
         14    1    6    6    0    0  0.13904668188E+03  0.74414771893E+01  0.33291575210E+02  0.14317012365E+03  0.00000000000E+00 0. -1.
         -5    1    3    3    0  503 -0.24674607340E+03  0.12736042641E+03  0.24209432164E+03  0.36842374180E+03  0.47000000000E+01 0.  1.
         13    1    4    4    0    0 -0.24886404741E+02  0.21181460386E+02  0.15033978415E+01  0.32714639079E+02  0.00000000000E+00 0. -1.
        -14    1    4    4    0    0 -0.36252747905E+02  0.23873380603E+02  0.14341133790E+03  0.14983661726E+03  0.00000000000E+00 0.  1.
<mgrwt>
<rscale>  2 0.39204686E+03</rscale>
<asrwt>0</asrwt>
<pdfrwt beam="1">  1       21 0.11995947E+00 0.39217016E+03</pdfrwt>
<pdfrwt beam="2">  1       21 0.31600788E-01 0.39217016E+03</pdfrwt>
<totfact> 0.45433745E+03</totfact>
</mgrwt>
</event>
<event>
12    1  0.1019868E-001  0.1799937E+03  0.7546771E-02  0.1167944E+00
         21   -1    0    0  503  502  0.00000000000E+00  0.00000000000E+00  0.88096286500E+02  0.88096286500E+02  0.00000000000E+00 0.  1.
         21   -1    0    0  501  503 -0.00000000000E+00 -0.00000000000E+00 -0.66529479350E+03  0.66529479350E+03  0.00000000000E+00 0.  1.
          6    2    1    2  501    0  0.42640708051E+02 -0.24998315503E+02 -0.54124293929E+03  0.57038727151E+03  0.17307389870E+03 0.  0.
         24    2    3    3    0    0  0.11750884231E+02 -0.28713602096E+02 -0.53024203233E+03  0.53705418699E+03  0.79423124388E+02 0.  0.
         -6    2    1    2    0  502 -0.42640708051E+02  0.24998315503E+02 -0.35955567707E+02  0.18300380848E+03  0.17249476893E+03 0.  0.
        -24    2    5    5    0    0 -0.45816311222E+02  0.80616098801E+02 -0.18161221043E+02  0.12433396063E+03  0.80814689603E+02 0.  0.
          5    1    3    3  501    0  0.30889823820E+02  0.37152865935E+01 -0.11000906964E+02  0.33333084528E+02  0.47000000000E+01 0. -1.
        -13    1    4    4    0    0  0.39222821365E+02 -0.39354722559E+02 -0.36537663862E+03  0.36957720703E+03  0.00000000000E+00 0.  1.
         14    1    4    4    0    0 -0.27471937134E+02  0.10641120462E+02 -0.16486539370E+03  0.16747697996E+03  0.00000000000E+00 0. -1.
         -5    1    5    5    0  502  0.31756031707E+01 -0.55617783298E+02 -0.17794346664E+02  0.58669847858E+02  0.47000000000E+01 0.  1.
         11    1    6    6    0    0  0.60989320352E+01  0.62848421051E+01 -0.31497515472E+02  0.32692349154E+02  0.00000000000E+00 0. -1.
        -12    1    6    6    0    0 -0.51915243257E+02  0.74331256696E+02  0.13336294429E+02  0.91641611474E+02  0.00000000000E+00 0.  1.
<mgrwt>
<rscale>  2 0.17985431E+03</rscale>
<asrwt>0</asrwt>
<pdfrwt beam="1">  1       21 0.13553275E-01 0.17999367E+03</pdfrwt>
<pdfrwt beam="2">  1       21 0.10235305E+00 0.17999367E+03</pdfrwt>
<totfact> 0.36872800E+04</totfact>
</mgrwt>
</event>
<event>
12    1  0.1019868E-001  0.2170906E+03  0.7546771E-02  0.1138141E+00
         21   -1    0    0  503  502  0.00000000000E+00  0.00000000000E+00  0.52908086504E+03  0.52908086504E+03  0.00000000000E+00 0. -1.
         21   -1    0    0  501  503 -0.00000000000E+00 -0.00000000000E+00 -0.13901724271E+03  0.13901724271E+03  0.00000000000E+00 0.  1.
          6    2    1    2  501    0  0.11209295474E+03  0.15767077022E+02 -0.10619158356E+02  0.21735016146E+03  0.18524279998E+03 0.  0.
         24    2    3    3    0    0  0.96065639657E+02 -0.98464710210E+01 -0.74689407622E+02  0.14635709481E+03  0.80723797450E+02 0.  0.
         -6    2    1    2    0  502 -0.11209295474E+03 -0.15767077022E+02  0.40068278068E+03  0.45074794629E+03  0.17266612039E+03 0.  0.
        -24    2    5    5    0    0 -0.11608870629E+03 -0.58690358144E+02  0.35975223839E+03  0.39111764036E+03  0.81425976863E+02 0.  0.
          5    1    3    3  501    0  0.16027315083E+02  0.25613548043E+02  0.64070249267E+02  0.70993066656E+02  0.47000000000E+01 0. -1.
        -11    1    4    4    0    0  0.25465128328E+02  0.10177961681E+02 -0.67212416468E+02  0.72591821800E+02  0.00000000000E+00 0.  1.
         12    1    4    4    0    0  0.70600511329E+02 -0.20024432702E+02 -0.74769911545E+01  0.73765273006E+02  0.00000000000E+00 0. -1.
         -5    1    5    5    0  502  0.39957515492E+01  0.42923281122E+02  0.40930542291E+02  0.59630305927E+02  0.47000000000E+01 0.  1.
         13    1    6    6    0    0 -0.36901903601E+02  0.17780893079E+02  0.13101095424E+03  0.13726536628E+03  0.00000000000E+00 0. -1.
        -14    1    6    6    0    0 -0.79186802688E+02 -0.76471251223E+02  0.22874128415E+03  0.25385227409E+03  0.00000000000E+00 0.  1.
<mgrwt>
<rscale>  2 0.21438351E+03</rscale>
<asrwt>0</asrwt>
<pdfrwt beam="1">  1       21 0.81397055E-01 0.21709059E+03</pdfrwt>
<pdfrwt beam="2">  1       21 0.21387268E-01 0.21709059E+03</pdfrwt>
<totfact> 0.26555240E+04</totfact>
</mgrwt>
</event>
<event>
12    1  0.1019868E-001  0.2046940E+03  0.7546771E-02  0.1145904E+00
         21   -1    0    0  501  502  0.00000000000E+00  0.00000000000E+00  0.32386902790E+03  0.32386902790E+03  0.00000000000E+00 0. -1.
         21   -1    0    0  502  503 -0.00000000000E+00 -0.00000000000E+00 -0.17313265134E+03  0.17313265134E+03  0.00000000000E+00 0. -1.
         -6    2    1    2    0  503  0.92863492479E+02 -0.57484162361E+02 -0.49809999149E+02  0.21066718425E+03  0.17312298908E+03 0.  0.
        -24    2    3    3    0    0  0.72041830424E+01 -0.80258381271E+02 -0.47848663849E+02  0.12188588455E+03  0.77931804826E+02 0.  0.
          6    2    1    2  501    0 -0.92863492479E+02  0.57484162361E+02  0.20054637570E+03  0.28633449499E+03  0.17274413754E+03 0.  0.
         24    2    5    5    0    0 -0.59395393605E+02  0.58357397996E+02  0.38847145017E+02  0.12113883104E+03  0.78943758640E+02 0.  0.
          5    1    5    5  501    0 -0.33468098874E+02 -0.87323563438E+00  0.16169923068E+03  0.16519566395E+03  0.47000000000E+01 0. -1.
        -11    1    6    6    0    0  0.12787167485E+02  0.21737736463E+01  0.25620431353E+02  0.28716605768E+02  0.00000000000E+00 0.  1.
         12    1    6    6    0    0 -0.72182561089E+02  0.56183624349E+02  0.13226713665E+02  0.92422225275E+02  0.00000000000E+00 0. -1.
         -5    1    3    3    0  503  0.85659309436E+02  0.22774218910E+02 -0.19613352999E+01  0.88781299699E+02  0.47000000000E+01 0.  1.
         11    1    4    4    0    0  0.25560020119E+02 -0.53218801320E+02 -0.62583495042E+02  0.86036325434E+02  0.00000000000E+00 0. -1.
        -12    1    4    4    0    0 -0.18355837077E+02 -0.27039579951E+02  0.14734831193E+02  0.35849559119E+02  0.00000000000E+00 0.  1.
<mgrwt>
<rscale>  2 0.20461386E+03</rscale>
<asrwt>0</asrwt>
<pdfrwt beam="1">  1       21 0.49826004E-01 0.20469398E+03</pdfrwt>
<pdfrwt beam="2">  1       21 0.26635793E-01 0.20469398E+03</pdfrwt>
<totfact> 0.51190294E+04</totfact>
</mgrwt>
</event>
<event>
12    1  0.1019868E-001  0.1924847E+03  0.7546771E-02  0.1156402E+00
         21   -1    0    0  503  502  0.00000000000E+00  0.00000000000E+00  0.28944855711E+03  0.28944855711E+03  0.00000000000E+00 0.  1.
         21   -1    0    0  501  503 -0.00000000000E+00 -0.00000000000E+00 -0.20116470347E+03  0.20116470347E+03  0.00000000000E+00 0.  1.
          6    2    1    2  501    0 -0.15127117019E+02  0.82504650792E+02  0.19251619669E+03  0.27171885791E+03  0.17243202918E+03 0.  0.
         24    2    3    3    0    0  0.29611809737E+01  0.87966806011E+02  0.56142732650E+02  0.13396243027E+03  0.83946403979E+02 0.  0.
         -6    2    1    2    0  502  0.15127117019E+02 -0.82504650792E+02 -0.10423234305E+03  0.21889440267E+03  0.17324702338E+03 0.  0.
        -24    2    5    5    0    0  0.67689119288E+01 -0.10375713924E+03 -0.16323783763E+02  0.12794643594E+03  0.72749312298E+02 0.  0.
          5    1    3    3  501    0 -0.18088297993E+02 -0.54621552194E+01  0.13637346404E+03  0.13775642765E+03  0.47000000000E+01 0. -1.
        -11    1    4    4    0    0 -0.20787966675E+02  0.31713671873E+02  0.61941516231E+02  0.72626771752E+02  0.00000000000E+00 0.  1.
         12    1    4    4    0    0  0.23749147649E+02  0.56253134138E+02 -0.57987835804E+01  0.61335658515E+02  0.00000000000E+00 0. -1.
         -5    1    5    5    0  502  0.83582050906E+01  0.21252488451E+02 -0.87908559284E+02  0.90947966734E+02  0.47000000000E+01 0.  1.
         13    1    6    6    0    0 -0.47644967603E+01  0.11473043584E+01  0.16667826154E+02  0.17373346406E+02  0.00000000000E+00 0. -1.
        -14    1    6    6    0    0  0.11533408689E+02 -0.10490444360E+03 -0.32991609917E+02  0.11057308953E+03  0.00000000000E+00 0.  1.
<mgrwt>
<rscale>  2 0.19230118E+03</rscale>
<asrwt>0</asrwt>
<pdfrwt beam="1">  1       21 0.44530548E-01 0.19248475E+03</pdfrwt>
<pdfrwt beam="2">  1       21 0.30948416E-01 0.19248475E+03</pdfrwt>
<totfact> 0.48559370E+04</totfact>
</mgrwt>
</event>
<event>
12    1  0.1019868E-001  0.2584898E+03  0.7546771E-02  0.1109312E+00
         21   -1    0    0  503  502  0.00000000000E+00  0.00000000000E+00  0.18904305193E+04  0.18904305193E+04  0.00000000000E+00 0. -1.
         21   -1    0    0  501  503 -0.00000000000E+00 -0.00000000000E+00 -0.49867050636E+02  0.49867050636E+02  0.00000000000E+00 0. -1.
          6    2    1    2  501    0 -0.91984161532E+02 -0.16898708722E+03  0.38732338217E+03  0.46565690996E+03  0.17262454578E+03 0.  0.
         24    2    3    3    0    0 -0.81043407667E+02 -0.19594922974E+03  0.35947643448E+03  0.42510817731E+03  0.80805450963E+02 0.  0.
         -6    2    1    2    0  502  0.91984161532E+02  0.16898708722E+03  0.14532400865E+04  0.14746406599E+04  0.16012684164E+03 0.  0.
        -24    2    5    5    0    0  0.10843637440E+02  0.14008128548E+03  0.10007957106E+04  0.10140461167E+04  0.83409360323E+02 0.  0.
          5    1    3    3  501    0 -0.10940753865E+02  0.26962142523E+02  0.27846947691E+02  0.40548732659E+02  0.47000000000E+01 0. -1.
        -11    1    4    4    0    0  0.34084165911E+01 -0.26281687983E+02  0.11545858884E+02  0.28907633667E+02  0.00000000000E+00 0.  1.
         12    1    4    4    0    0 -0.84451824258E+02 -0.16966754176E+03  0.34793057559E+03  0.39620054364E+03  0.00000000000E+00 0. -1.
         -5    1    5    5    0  502  0.81140524092E+02  0.28905801737E+02  0.45244437586E+03  0.46059454325E+03  0.47000000000E+01 0.  1.
         13    1    6    6    0    0  0.23532051756E+02  0.10545444065E+01  0.12643189135E+03  0.12860751406E+03  0.00000000000E+00 0. -1.
        -14    1    6    6    0    0 -0.12688414317E+02  0.13902674108E+03  0.87436381926E+03  0.88543860262E+03  0.00000000000E+00 0.  1.
<mgrwt>
<rscale>  2 0.25642175E+03</rscale>
<asrwt>0</asrwt>
<pdfrwt beam="1">  1       21 0.29083541E+00 0.25848976E+03</pdfrwt>
<pdfrwt beam="2">  1       21 0.76718554E-02 0.25848976E+03</pdfrwt>
<totfact> 0.46602707E+03</totfact>
</mgrwt>
</event>
<event>
12    1  0.1019868E-001  0.1755600E+03  0.7546771E-02  0.1173039E+00
         21   -1    0    0  503  502  0.00000000000E+00  0.00000000000E+00  0.15475959919E+03  0.15475959919E+03  0.00000000000E+00 0. -1.
         21   -1    0    0  501  503 -0.00000000000E+00 -0.00000000000E+00 -0.34284483908E+03  0.34284483908E+03  0.00000000000E+00 0. -1.
          6    2    1    2  501    0 -0.20996943778E+02  0.22442600869E+02 -0.25674028147E+03  0.30909760673E+03  0.16935529627E+03 0.  0.
         24    2    3    3    0    0  0.47978580506E+02  0.20057977922E+02 -0.18787657109E+03  0.21148812981E+03  0.82008270447E+02 0.  0.
         -6    2    1    2    0  502  0.20996943778E+02 -0.22442600869E+02  0.68655041582E+02  0.18850683154E+03  0.17284897691E+03 0.  0.
        -24    2    5    5    0    0  0.56094273630E+02 -0.12433865957E+02 -0.11834776877E+02  0.10000429930E+03  0.80991538925E+02 0.  0.
          5    1    3    3  501    0 -0.68975524284E+02  0.23846229472E+01 -0.68863710378E+02  0.97609476916E+02  0.47000000000E+01 0. -1.
        -13    1    4    4    0    0  0.48971470023E+02 -0.55774492806E+01 -0.46360347205E+02  0.67665313194E+02  0.00000000000E+00 0.  1.
         14    1    4    4    0    0 -0.99288951776E+00  0.25635427202E+02 -0.14151622389E+03  0.14382281662E+03  0.00000000000E+00 0. -1.
         -5    1    5    5    0  502 -0.35097329851E+02 -0.10008734912E+02  0.80489818459E+02  0.88502532239E+02  0.47000000000E+01 0.  1.
         13    1    6    6    0    0  0.53437094683E+02 -0.36627309025E+02  0.12058445808E+02  0.65897564218E+02  0.00000000000E+00 0. -1.
        -14    1    6    6    0    0  0.26571789470E+01  0.24193443068E+02 -0.23893222685E+02  0.34106735079E+02  0.00000000000E+00 0.  1.
<mgrwt>
<rscale>  2 0.17469394E+03</rscale>
<asrwt>0</asrwt>
<pdfrwt beam="1">  1       21 0.23809169E-01 0.17555999E+03</pdfrwt>
<pdfrwt beam="2">  1       21 0.52745359E-01 0.17555999E+03</pdfrwt>
<totfact> 0.57077136E+04</totfact>
</mgrwt>
</event>
<event>
12    1  0.1019868E-001  0.2163527E+03  0.7546771E-02  0.1136951E+00
         21   -1    0    0  501  502  0.00000000000E+00  0.00000000000E+00  0.30935712764E+03  0.30935712764E+03  0.00000000000E+00 0. -1.
         21   -1    0    0  502  503 -0.00000000000E+00 -0.00000000000E+00 -0.18790893012E+03  0.18790893012E+03  0.00000000000E+00 0. -1.
         -6    2    1    2    0  503 -0.39865900570E+02 -0.12518646977E+03 -0.50926565913E+02  0.22064076983E+03  0.16978778505E+03 0.  0.
        -24    2    3    3    0    0  0.68226568250E+00 -0.39326199947E+01 -0.46174955026E+02  0.92612188343E+02  0.80180795528E+02 0.  0.
          6    2    1    2  501    0  0.39865900570E+02  0.12518646977E+03  0.17237476343E+03  0.27662528793E+03  0.17189400401E+03 0.  0.
         24    2    5    5    0    0 -0.22104809923E+02  0.12968506582E+03  0.11964626900E+03  0.19499814508E+03  0.80013798684E+02 0.  0.
          5    1    5    5  501    0  0.61970710493E+02 -0.44985960553E+01  0.52728494427E+02  0.81627142851E+02  0.47000000000E+01 0. -1.
        -11    1    6    6    0    0 -0.10744859224E+01  0.11418653627E+03  0.58068733765E+02  0.12810814739E+03  0.00000000000E+00 0.  1.
         12    1    6    6    0    0 -0.21030324000E+02  0.15498529554E+02  0.61577535240E+02  0.66889997698E+02  0.00000000000E+00 0. -1.
         -5    1    3    3    0  503 -0.40548166253E+02 -0.12125384977E+03 -0.47516108867E+01  0.12802858149E+03  0.47000000000E+01 0.  1.
         11    1    4    4    0    0 -0.64673499471E+01 -0.40477621060E+02 -0.13749866863E+02  0.43235671162E+02  0.00000000000E+00 0. -1.
        -12    1    4    4    0    0  0.71496156296E+01  0.36545001066E+02 -0.32425088163E+02  0.49376517181E+02  0.00000000000E+00 0.  1.
<mgrwt>
<rscale>  2 0.21593409E+03</rscale>
<asrwt>0</asrwt>
<pdfrwt beam="1">  1       21 0.47593404E-01 0.21635270E+03</pdfrwt>
<pdfrwt beam="2">  1       21 0.28909066E-01 0.21635270E+03</pdfrwt>
<totfact> 0.47797118E+04</totfact>
</mgrwt>
</event>
<event>
12    1  0.1019868E-001  0.1920709E+03  0.7546771E-02  0.1156935E+00
         21   -1    0    0  503  502  0.00000000000E+00  0.00000000000E+00  0.47883871535E+02  0.47883871535E+02  0.00000000000E+00 0. -1.
         21   -1    0    0  501  503 -0.00000000000E+00 -0.00000000000E+00 -0.76913863797E+03  0.76913863797E+03  0.00000000000E+00 0. -1.
          6    2    1    2  501    0 -0.65852577063E+02  0.52065579632E+02 -0.32764232219E+03  0.37904765206E+03  0.17111471227E+03 0.  0.
         24    2    3    3    0    0 -0.18202214415E+02 -0.13030429696E+02 -0.26361142949E+03  0.27594531110E+03  0.78445626097E+02 0.  0.
         -6    2    1    2    0  502  0.65852577063E+02 -0.52065579632E+02 -0.39361244425E+03  0.43797485745E+03  0.17275367724E+03 0.  0.
        -24    2    5    5    0    0  0.10891181545E+03 -0.58981283237E+02 -0.30680496625E+03  0.34071462301E+03  0.81342434809E+02 0.  0.
          5    1    3    3  501    0 -0.47650362647E+02  0.65096009328E+02 -0.64030892694E+02  0.10310234095E+03  0.47000000000E+01 0. -1.
        -13    1    4    4    0    0 -0.41865057176E+02 -0.16718802524E+02 -0.89679358575E+02  0.10037225077E+03  0.00000000000E+00 0.  1.
         14    1    4    4    0    0  0.23662842760E+02  0.36883728284E+01 -0.17393207092E+03  0.17557306033E+03  0.00000000000E+00 0. -1.
         -5    1    5    5    0  502 -0.43059238383E+02  0.69157036050E+01 -0.86807478002E+02  0.97260234442E+02  0.47000000000E+01 0.  1.
         11    1    6    6    0    0  0.20748430410E+01 -0.30858095320E+02 -0.31851526629E+02  0.44396472485E+02  0.00000000000E+00 0. -1.
        -12    1    6    6    0    0  0.10683697240E+03 -0.28123187917E+02 -0.27495343962E+03  0.29631815052E+03  0.00000000000E+00 0.  1.
<mgrwt>
<rscale>  2 0.19170161E+03</rscale>
<asrwt>0</asrwt>
<pdfrwt beam="1">  1       21 0.73667498E-02 0.19207087E+03</pdfrwt>
<pdfrwt beam="2">  1       21 0.11832902E+00 0.19207087E+03</pdfrwt>
<totfact> 0.75737331E+04</totfact>
</mgrwt>
</event>
<event>
12    1  0.1019868E-001  0.2106610E+03  0.7546771E-02  0.1141109E+00
         21   -1    0    0  503  502  0.00000000000E+00  0.00000000000E+00  0.45418623880E+03  0.45418623880E+03  0.00000000000E+00 0.  1.
         21   -1    0    0  501  503 -0.00000000000E+00 -0.00000000000E+00 -0.10504143893E+03  0.10504143893E+03  0.00000000000E+00 0.  1.
          6    2    1    2  501    0  0.11159425807E+03 -0.48455525163E+02  0.10005696790E+03  0.23321544083E+03  0.17197915183E+03 0.  0.
         24    2    3    3    0    0  0.32706058099E+02  0.87977174373E+01  0.10222043096E+03  0.13560369741E+03  0.82415169577E+02 0.  0.
         -6    2    1    2    0  502 -0.11159425807E+03  0.48455525163E+02  0.24908783197E+03  0.32601223690E+03  0.17157509791E+03 0.  0.
        -24    2    5    5    0    0 -0.98320109373E+02  0.52787377578E+02  0.85881564257E+02  0.16214233793E+03  0.80381238675E+02 0.  0.
          5    1    3    3  501    0  0.78888199967E+02 -0.57253242600E+02 -0.21634630580E+01  0.97611743426E+02  0.47000000000E+01 0. -1.
        -11    1    4    4    0    0  0.50660859565E+02  0.23746355592E+02  0.38991314447E+02  0.68196295340E+02  0.00000000000E+00 0.  1.
         12    1    4    4    0    0 -0.17954801467E+02 -0.14948638155E+02  0.63229116512E+02  0.67407402066E+02  0.00000000000E+00 0. -1.
         -5    1    5    5    0  502 -0.13274148693E+02 -0.43318524149E+01  0.16320626771E+03  0.16386989897E+03  0.47000000000E+01 0.  1.
         13    1    6    6    0    0 -0.30364819101E+02  0.51750972292E+02  0.70284053047E+02  0.92412301589E+02  0.00000000000E+00 0. -1.
        -14    1    6    6    0    0 -0.67955290273E+02  0.10364052853E+01  0.15597511210E+02  0.69730036339E+02  0.00000000000E+00 0.  1.
<mgrwt>
<rscale>  2 0.21057849E+03</rscale>
<asrwt>0</asrwt>
<pdfrwt beam="1">  1       21 0.69874805E-01 0.21066097E+03</pdfrwt>
<pdfrwt beam="2">  1       21 0.16160222E-01 0.21066097E+03</pdfrwt>
<totfact> 0.63162252E+04</totfact>
</mgrwt>
</event>
<event>
12    1  0.1019868E-001  0.1767902E+03  0.7546771E-02  0.1171090E+00
         21   -1    0    0  501  502  0.00000000000E+00  0.00000000000E+00  0.33671866046E+03  0.33671866046E+03  0.00000000000E+00 0. -1.
         21   -1    0    0  502  503 -0.00000000000E+00 -0.00000000000E+00 -0.97344462316E+02  0.97344462316E+02  0.00000000000E+00 0. -1.
         -6    2    1    2    0  503  0.10409921522E+02 -0.32101530306E+02  0.71545212894E+02  0.19071836635E+03  0.17353934153E+03 0.  0.
        -24    2    3    3    0    0  0.66583412415E+02  0.12667085919E+02  0.43346036737E+02  0.11340747699E+03  0.79928537212E+02 0.  0.
          6    2    1    2  501    0 -0.10409921522E+02  0.32101530306E+02  0.16782898525E+03  0.24334475643E+03  0.17294862670E+03 0.  0.
         24    2    5    5    0    0 -0.31387353914E+02  0.22919508156E+02  0.19086908647E+03  0.21052253126E+03  0.79863997888E+02 0.  0.
          5    1    5    5  501    0  0.20977432391E+02  0.91820221505E+01 -0.23040101223E+02  0.32822225166E+02  0.47000000000E+01 0. -1.
        -13    1    6    6    0    0 -0.95577169579E+00 -0.18957294105E+02  0.82296664970E+01  0.20688642052E+02  0.00000000000E+00 0.  1.
         14    1    6    6    0    0 -0.30431582218E+02  0.41876802261E+02  0.18263941997E+03  0.18983388921E+03  0.00000000000E+00 0. -1.
         -5    1    3    3    0  503 -0.56173490892E+02 -0.44768616226E+02  0.28199176157E+02  0.77310889361E+02  0.47000000000E+01 0.  1.
         11    1    4    4    0    0  0.45402923207E+02 -0.23861103964E+02 -0.21504011860E+01  0.51336166037E+02  0.00000000000E+00 0. -1.
        -12    1    4    4    0    0  0.21180489208E+02  0.36528189883E+02  0.45496437923E+02  0.62071310948E+02  0.00000000000E+00 0.  1.
<mgrwt>
<rscale>  2 0.17664508E+03</rscale>
<asrwt>0</asrwt>
<pdfrwt beam="1">  1       21 0.51802870E-01 0.17679021E+03</pdfrwt>
<pdfrwt beam="2">  1       21 0.14976071E-01 0.17679021E+03</pdfrwt>
<totfact> 0.13995772E+05</totfact>
</mgrwt>
</event>
<event>
12    1  0.1019868E-001  0.3920144E+03  0.7546771E-02  0.1046651E+00
         21   -1    0    0  501  502  0.00000000000E+00  0.00000000000E+00  0.18087224363E+04  0.18087224363E+04  0.00000000000E+00 0.  1.
         21   -1    0    0  502  503 -0.00000000000E+00 -0.00000000000E+00 -0.87659302216E+02  0.87659302216E+02  0.00000000000E+00 0. -1.
         -6    2    1    2    0  503  0.13712926853E+03 -0.32410109722E+03  0.10312090672E+04  0.11029247707E+04  0.17089456399E+03 0.  0.
        -24    2    3    3    0    0  0.11097407811E+02 -0.15631397343E+03  0.55322913331E+03  0.58088697892E+03  0.82522709523E+02 0.  0.
          6    2    1    2  501    0 -0.13712926853E+03  0.32410109722E+03  0.68985406688E+03  0.79345696783E+03  0.17271180824E+03 0.  0.
         24    2    5    5    0    0 -0.16077019955E+03  0.23274527708E+03  0.54217725128E+03  0.61814207583E+03  0.90144511956E+02 0.  0.
          5    1    5    5  501    0  0.23640931022E+02  0.91355820145E+02  0.14767681560E+03  0.17531489201E+03  0.47000000000E+01 0. -1.
        -13    1    6    6    0    0 -0.10064215036E+03  0.97508195506E+02  0.33860057579E+03  0.36645196213E+03  0.00000000000E+00 0.  1.
         14    1    6    6    0    0 -0.60128049187E+02  0.13523708157E+03  0.20357667549E+03  0.25169011370E+03  0.00000000000E+00 0. -1.
         -5    1    3    3    0  503  0.12603186072E+03 -0.16778712379E+03  0.47797993393E+03  0.52203779180E+03  0.47000000000E+01 0.  1.
         13    1    4    4    0    0 -0.19530449279E+02 -0.24384386736E+02  0.20285837765E+03  0.20524998940E+03  0.00000000000E+00 0. -1.
        -14    1    4    4    0    0  0.30627857090E+02 -0.13192958669E+03  0.35037075566E+03  0.37563698952E+03  0.00000000000E+00 0.  1.
<mgrwt>
<rscale>  2 0.39181499E+03</rscale>
<asrwt>0</asrwt>
<pdfrwt beam="1">  1       21 0.27826496E+00 0.39201445E+03</pdfrwt>
<pdfrwt beam="2">  1       21 0.13486048E-01 0.39201445E+03</pdfrwt>
<totfact> 0.18372172E+03</totfact>
</mgrwt>
</event>
<event>
12    1  0.1019868E-001  0.1939119E+03  0.7546771E-02  0.1155088E+00
         21   -1    0    0  503  502  0.00000000000E+00  0.00000000000E+00  0.36930452670E+02  0.36930452670E+02  0.00000000000E+00 0.  1.
         21   -1    0    0  501  503 -0.00000000000E+00 -0.00000000000E+00 -0.11435302609E+04  0.11435302609E+04  0.00000000000E+00 0. -1.
          6    2    1    2  501    0 -0.41158023148E+02  0.77039136001E+02 -0.75009464463E+03  0.77463101122E+03  0.17257524825E+03 0.  0.
         24    2    3    3    0    0 -0.72807377230E+02  0.53320277973E+01 -0.33780545329E+03  0.35493104902E+03  0.80834278540E+02 0.  0.
         -6    2    1    2    0  502  0.41158023148E+02 -0.77039136001E+02 -0.35650516363E+03  0.40582970237E+03  0.17312655570E+03 0.  0.
        -24    2    5    5    0    0  0.73426861566E+02 -0.74409936955E+02 -0.34785553292E+03  0.37199042442E+03  0.80281139506E+02 0.  0.
          5    1    3    3  501    0  0.31649354082E+02  0.71707108204E+02 -0.41228919134E+03  0.41969996220E+03  0.47000000000E+01 0. -1.
        -11    1    4    4    0    0 -0.72723543824E+02  0.19873990386E+01 -0.34195075314E+03  0.34960403481E+03  0.00000000000E+00 0.  1.
         12    1    4    4    0    0 -0.83833406466E-01  0.33446287588E+01  0.41452998501E+01  0.53270142126E+01  0.00000000000E+00 0. -1.
         -5    1    5    5    0  502 -0.32268838419E+02 -0.26291990464E+01 -0.86496307021E+01  0.33839277944E+02  0.47000000000E+01 0.  1.
         13    1    6    6    0    0  0.90912633329E+01 -0.63161251009E+02 -0.13464539542E+03  0.14900126578E+03  0.00000000000E+00 0. -1.
        -14    1    6    6    0    0  0.64335598234E+02 -0.11248685946E+02 -0.21321013751E+03  0.22298915864E+03  0.00000000000E+00 0.  1.
<mgrwt>
<rscale>  2 0.19378875E+03</rscale>
<asrwt>0</asrwt>
<pdfrwt beam="1">  1       21 0.56816085E-02 0.19391188E+03</pdfrwt>
<pdfrwt beam="2">  1       21 0.17592772E+00 0.19391188E+03</pdfrwt>
<totfact> 0.41964715E+04</totfact>
</mgrwt>
</event>
<event>
12    1  0.1019868E-001  0.1795315E+03  0.7546771E-02  0.1168581E+00
         21   -1    0    0  501  502  0.00000000000E+00  0.00000000000E+00  0.63701567652E+03  0.63701567652E+03  0.00000000000E+00 0. -1.
         21   -1    0    0  502  503 -0.00000000000E+00 -0.00000000000E+00 -0.15307583377E+03  0.15307583377E+03  0.00000000000E+00 0. -1.
         -6    2    1    2    0  503 -0.13839217053E+02  0.48465558509E+02 -0.82140145634E+02  0.19622443664E+03  0.17092861586E+03 0.  0.
        -24    2    3    3    0    0 -0.38718167314E+02 -0.20619037854E+02 -0.94809689897E+01  0.92817040523E+02  0.81245757036E+02 0.  0.
          6    2    1    2  501    0  0.13839217053E+02 -0.48465558509E+02  0.56607998839E+03  0.59386707365E+03  0.17231109546E+03 0.  0.
         24    2    5    5    0    0  0.52940352100E+02 -0.61094025764E+00  0.17413002057E+03  0.19704742882E+03  0.75520666124E+02 0.  0.
          5    1    5    5  501    0 -0.39101135048E+02 -0.47854618251E+02  0.39194996781E+03  0.39681964483E+03  0.47000000000E+01 0. -1.
        -11    1    6    6    0    0  0.57177809121E+02 -0.28519742144E+02  0.11634555480E+03  0.13273645193E+03  0.00000000000E+00 0.  1.
         12    1    6    6    0    0 -0.42374570210E+01  0.27908801886E+02  0.57784465769E+02  0.64310976893E+02  0.00000000000E+00 0. -1.
         -5    1    3    3    0  503  0.24878950262E+02  0.69084596363E+02 -0.72659176644E+02  0.10340739612E+03  0.47000000000E+01 0.  1.
         13    1    4    4    0    0 -0.23652379080E+02  0.16379195562E+02 -0.35081499576E+02  0.45369865505E+02  0.00000000000E+00 0. -1.
        -14    1    4    4    0    0 -0.15065788234E+02 -0.36998233415E+02  0.25600530586E+02  0.47447175019E+02  0.00000000000E+00 0.  1.
<mgrwt>
<rscale>  2 0.17919893E+03</rscale>
<asrwt>0</asrwt>
<pdfrwt beam="1">  1       21 0.98002410E-01 0.17953147E+03</pdfrwt>
<pdfrwt beam="2">  1       21 0.23550129E-01 0.17953147E+03</pdfrwt>
<totfact> 0.14739741E+04</totfact>
</mgrwt>
</event>
<event>
12    1  0.1019868E-001  0.2294324E+03  0.7546771E-02  0.1127721E+00
         21   -1    0    0  503  502  0.00000000000E+00  0.00000000000E+00  0.16294221286E+03  0.16294221286E+03  0.00000000000E+00 0. -1.
         21   -1    0    0  501  503 -0.00000000000E+00 -0.00000000000E+00 -0.32981078616E+03  0.32981078616E+03  0.00000000000E+00 0. -1.
          6    2    1    2  501    0 -0.12517961851E+03  0.71215455099E+02 -0.13132911927E+03  0.26436065983E+03  0.17859911243E+03 0.  0.
         24    2    3    3    0    0 -0.72267588659E+02  0.34234525575E+02  0.41090881839E+01  0.11425113285E+03  0.81497421062E+02 0.  0.
         -6    2    1    2    0  502  0.12517961851E+03 -0.71215455099E+02 -0.35539454027E+02  0.22839233919E+03  0.17366182618E+03 0.  0.
        -24    2    5    5    0    0  0.14793336556E+03 -0.23704740916E+02 -0.20365585348E+02  0.17337109550E+03  0.84832684158E+02 0.  0.
          5    1    3    3  501    0 -0.52912029853E+02  0.36980929524E+02 -0.13543820745E+03  0.15010952698E+03  0.47000000000E+01 0. -1.
        -13    1    4    4    0    0 -0.52324061338E+02 -0.86031815020E+01  0.29425516143E+02  0.60643904287E+02  0.00000000000E+00 0.  1.
         14    1    4    4    0    0 -0.19943527321E+02  0.42837707077E+02 -0.25316427959E+02  0.53607228563E+02  0.00000000000E+00 0. -1.
         -5    1    5    5    0  502 -0.22753747045E+02 -0.47510714183E+02 -0.15173868679E+02  0.55021243692E+02  0.47000000000E+01 0.  1.
         11    1    6    6    0    0  0.10151640102E+03 -0.47088083139E+02  0.11357456630E+02  0.11248048306E+03  0.00000000000E+00 0. -1.
        -12    1    6    6    0    0  0.46416964539E+02  0.23383342222E+02 -0.31723041978E+02  0.60890612436E+02  0.00000000000E+00 0.  1.
<mgrwt>
<rscale>  2 0.22847084E+03</rscale>
<asrwt>0</asrwt>
<pdfrwt beam="1">  1       21 0.25068033E-01 0.22943239E+03</pdfrwt>
<pdfrwt beam="2">  1       21 0.50740120E-01 0.22943239E+03</pdfrwt>
<totfact> 0.54758343E+04</totfact>
</mgrwt>
</event>
<event>
12    1  0.1019868E-001  0.2143180E+03  0.7546771E-02  0.1138331E+00
         21   -1    0    0  503  502  0.00000000000E+00  0.00000000000E+00  0.76439032726E+02  0.76439032726E+02  0.00000000000E+00 0.  1.
         21   -1    0    0  501  503 -0.00000000000E+00 -0.00000000000E+00 -0.60034663081E+03  0.60034663081E+03  0.00000000000E+00 0.  1.
          6    2    1    2  501    0  0.20080512237E+02  0.11605196688E+03 -0.24474785926E+03  0.32484482308E+03  0.17818910876E+03 0.  0.
         24    2    3    3    0    0  0.32533456047E+02  0.10273511671E+03 -0.26555222987E+03  0.29678549051E+03  0.77140849233E+02 0.  0.
         -6    2    1    2    0  502 -0.20080512237E+02 -0.11605196688E+03 -0.27915973882E+03  0.35194084046E+03  0.17905560426E+03 0.  0.
        -24    2    5    5    0    0 -0.73483860523E+01 -0.12666261241E+03 -0.12200981606E+03  0.19384947112E+03  0.81202254149E+02 0.  0.
          5    1    3    3  501    0 -0.12452943810E+02  0.13316850163E+02  0.20804370606E+02  0.28059332567E+02  0.47000000000E+01 0. -1.
        -11    1    4    4    0    0 -0.22313751642E+02  0.51206891960E+02 -0.13494375933E+03  0.14604748365E+03  0.00000000000E+00 0.  1.
         12    1    4    4    0    0  0.54847207689E+02  0.51528224753E+02 -0.13060847054E+03  0.15073800687E+03  0.00000000000E+00 0. -1.
         -5    1    5    5    0  502 -0.12732126185E+02  0.10610645533E+02 -0.15714992276E+03  0.15809136934E+03  0.47000000000E+01 0.  1.
         11    1    6    6    0    0 -0.39329517059E+02 -0.82258082898E+02 -0.98702053713E+02  0.13437000603E+03  0.00000000000E+00 0. -1.
        -12    1    6    6    0    0  0.31981131006E+02 -0.44404529510E+02 -0.23307762348E+02  0.59479465088E+02  0.00000000000E+00 0.  1.
<mgrwt>
<rscale>  2 0.21413690E+03</rscale>
<asrwt>0</asrwt>
<pdfrwt beam="1">  1       21 0.11759851E-01 0.21431798E+03</pdfrwt>
<pdfrwt beam="2">  1       21 0.92361018E-01 0.21431798E+03</pdfrwt>
<totfact> 0.59570066E+04</totfact>
</mgrwt>
</event>
<event>
12    1  0.1019868E-001  0.1988492E+03  0.7546771E-02  0.1153338E+00
         21   -1    0    0  503  502  0.00000000000E+00  0.00000000000E+00  0.13718523508E+04  0.13718523508E+04  0.00000000000E+00 0.  1.
         21   -1    0    0  501  503 -0.00000000000E+00 -0.00000000000E+00 -0.27309737315E+02  0.27309737315E+02  0.00000000000E+00 0. -1.
          6    2    1    2  501    0  0.49225638829E+02 -0.50178038164E+02  0.63429235467E+03  0.66473136670E+03  0.18601075143E+03 0.  0.
         24    2    3    3    0    0  0.13116383488E+02 -0.83680511192E+02  0.23860339289E+03  0.26596058230E+03  0.81418577527E+02 0.  0.
         -6    2    1    2    0  502 -0.49225638829E+02  0.50178038164E+02  0.71025025886E+03  0.73443072146E+03  0.17318214511E+03 0.  0.
        -24    2    5    5    0    0  0.65812540108E+01 -0.18694169092E+02  0.19323403695E+03  0.20984931316E+03  0.79401236352E+02 0.  0.
          5    1    3    3  501    0  0.36109255342E+02  0.33502473028E+02  0.39568896178E+03  0.39877078440E+03  0.47000000000E+01 0. -1.
        -13    1    4    4    0    0  0.47133472417E+02 -0.39725604658E+02  0.13437296789E+03  0.14783701292E+03  0.00000000000E+00 0.  1.
         14    1    4    4    0    0 -0.34017088929E+02 -0.43954906534E+02  0.10423042500E+03  0.11812356938E+03  0.00000000000E+00 0. -1.
         -5    1    5    5    0  502 -0.55806892840E+02  0.68872207256E+02  0.51701622191E+03  0.52458140830E+03  0.47000000000E+01 0.  1.
         13    1    6    6    0    0  0.36111598954E+02  0.12884154799E+02  0.99223777905E+02  0.10637390246E+03  0.00000000000E+00 0. -1.
        -14    1    6    6    0    0 -0.29530344943E+02 -0.31578323891E+02  0.94010259047E+02  0.10347541069E+03  0.00000000000E+00 0.  1.
<mgrwt>
<rscale>  2 0.19579312E+03</rscale>
<asrwt>0</asrwt>
<pdfrwt beam="1">  1       21 0.21105415E+00 0.19884919E+03</pdfrwt>
<pdfrwt beam="2">  1       21 0.42014991E-02 0.19884919E+03</pdfrwt>
<totfact> 0.41060284E+04</totfact>
</mgrwt>
</event>
<event>
12    1  0.1019868E-001  0.2926444E+03  0.7546771E-02  0.1089555E+00
         21   -1    0    0  503  502  0.00000000000E+00  0.00000000000E+00  0.54553208147E+03  0.54553208147E+03  0.00000000000E+00 0.  1.
         21   -1    0    0  501  503 -0.00000000000E+00 -0.00000000000E+00 -0.48599511210E+03  0.48599511210E+03  0.00000000000E+00 0.  1.
          6    2    1    2  501    0  0.20246699150E+03 -0.11167243503E+03 -0.39619302173E+03  0.48992721139E+03  0.17203530625E+03 0.  0.
         24    2    3    3    0    0  0.18911521918E+03 -0.14189144432E+03 -0.37494101446E+03  0.45036465131E+03  0.79685674563E+02 0.  0.
         -6    2    1    2    0  502 -0.20246699150E+03  0.11167243503E+03  0.45572999110E+03  0.54159998219E+03  0.17937976621E+03 0.  0.
        -24    2    5    5    0    0 -0.10062763286E+03  0.13666535327E+03  0.29640883006E+03  0.35080893605E+03  0.80033591668E+02 0.  0.
          5    1    3    3  501    0  0.13351772326E+02  0.30219009291E+02 -0.21252007268E+02  0.39562560075E+02  0.47000000000E+01 0. -1.
        -11    1    4    4    0    0  0.62992474738E+02 -0.28567478150E+02 -0.17521261865E+03  0.18837094897E+03  0.00000000000E+00 0.  1.
         12    1    4    4    0    0  0.12612274444E+03 -0.11332396617E+03 -0.19972839581E+03  0.26199370234E+03  0.00000000000E+00 0. -1.
         -5    1    5    5    0  502 -0.10183935865E+03 -0.24992918241E+02  0.15932116104E+03  0.19079104614E+03  0.47000000000E+01 0.  1.
         13    1    6    6    0    0 -0.74668793102E+02  0.11463565496E+03  0.16143939440E+03  0.21161153115E+03  0.00000000000E+00 0. -1.
        -14    1    6    6    0    0 -0.25958839754E+02  0.22029698319E+02  0.13496943566E+03  0.13919740490E+03  0.00000000000E+00 0.  1.
<mgrwt>
<rscale>  2 0.29152711E+03</rscale>
<asrwt>0</asrwt>
<pdfrwt beam="1">  1       21 0.83928013E-01 0.29264435E+03</pdfrwt>
<pdfrwt beam="2">  1       21 0.74768479E-01 0.29264435E+03</pdfrwt>
<totfact> 0.18319941E+03</totfact>
</mgrwt>
</event>
<event>
12    1  0.1019868E-001  0.1971081E+03  0.7546771E-02  0.1152226E+00
         21   -1    0    0  503  502  0.00000000000E+00  0.00000000000E+00  0.21193924605E+04  0.21193924605E+04  0.00000000000E+00 0.  1.
         21   -1    0    0  501  503 -0.00000000000E+00 -0.00000000000E+00 -0.25858402716E+02  0.25858402716E+02  0.00000000000E+00 0.  1.
          6    2    1    2  501    0  0.39328682680E+02  0.86639665779E+02  0.46746631466E+03  0.50728019901E+03  0.17249715359E+03 0.  0.
         24    2    3    3    0    0  0.72736121172E+02  0.80343392795E+02  0.44672224704E+03  0.46717899776E+03  0.83365735522E+02 0.  0.
         -6    2    1    2    0  502 -0.39328682680E+02 -0.86639665779E+02  0.16260677431E+04  0.16379706642E+04  0.17262217297E+03 0.  0.
        -24    2    5    5    0    0 -0.29726488265E+02  0.16699577226E+02  0.55199090914E+03  0.55888107729E+03  0.80570185543E+02 0.  0.
          5    1    3    3  501    0 -0.33407438492E+02  0.62962729834E+01  0.20744067616E+02  0.40101201246E+02  0.47000000000E+01 0. -1.
        -11    1    4    4    0    0  0.54152374608E+02  0.73137197432E+02  0.20090096069E+03  0.22055095858E+03  0.00000000000E+00 0.  1.
         12    1    4    4    0    0  0.18583746564E+02  0.72061953635E+01  0.24582128635E+03  0.24662803918E+03  0.00000000000E+00 0. -1.
         -5    1    5    5    0  502 -0.96021944156E+01 -0.10333924300E+03  0.10740768340E+04  0.10790895869E+04  0.47000000000E+01 0.  1.
         11    1    6    6    0    0 -0.43937518228E+01  0.21004330086E+02  0.50389154173E+03  0.50434826535E+03  0.00000000000E+00 0. -1.
        -12    1    6    6    0    0 -0.25332736442E+02 -0.43047528599E+01  0.48099367411E+02  0.54532811941E+02  0.00000000000E+00 0.  1.
<mgrwt>
<rscale>  2 0.19708070E+03</rscale>
<asrwt>0</asrwt>
<pdfrwt beam="1">  1       21 0.32606024E+00 0.19710807E+03</pdfrwt>
<pdfrwt beam="2">  1       21 0.39782175E-02 0.19710807E+03</pdfrwt>
<totfact> 0.94978216E+03</totfact>
</mgrwt>
</event>
<event>
12    1  0.1019868E-001  0.3143473E+03  0.7546771E-02  0.1078373E+00
         21   -1    0    0  503  502  0.00000000000E+00  0.00000000000E+00  0.89397220540E+02  0.89397220540E+02  0.00000000000E+00 0. -1.
         21   -1    0    0  501  503 -0.00000000000E+00 -0.00000000000E+00 -0.11664128121E+04  0.11664128121E+04  0.00000000000E+00 0. -1.
          6    2    1    2  501    0 -0.15420629758E+03 -0.21155345394E+03 -0.68603663867E+03  0.75462604515E+03  0.17401078225E+03 0.  0.
         24    2    3    3    0    0 -0.11031767925E+03 -0.12571186739E+03 -0.59056568286E+03  0.61886234528E+03  0.79052594359E+02 0.  0.
         -6    2    1    2    0  502  0.15420629758E+03  0.21155345394E+03 -0.39097895293E+03  0.50118398753E+03  0.17258737391E+03 0.  0.
        -24    2    5    5    0    0  0.14616348210E+03  0.93880943134E+02 -0.28852577921E+03  0.34488219776E+03  0.74291386302E+02 0.  0.
          5    1    3    3  501    0 -0.43888618323E+02 -0.85841586550E+02 -0.95470955808E+02  0.13576369987E+03  0.47000000000E+01 0. -1.
        -11    1    4    4    0    0 -0.26234640950E+02 -0.34022948974E+02 -0.29602568183E+03  0.29912709965E+03  0.00000000000E+00 0.  1.
         12    1    4    4    0    0 -0.84083038305E+02 -0.91688918416E+02 -0.29454000103E+03  0.31973524563E+03  0.00000000000E+00 0. -1.
         -5    1    5    5    0  502  0.80428154829E+01  0.11767251081E+03 -0.10245317372E+03  0.15630178977E+03  0.47000000000E+01 0.  1.
         13    1    6    6    0    0  0.12669416368E+03  0.10377007924E+03 -0.22944301063E+03  0.28189312795E+03  0.00000000000E+00 0. -1.
        -14    1    6    6    0    0  0.19469318411E+02 -0.98891361069E+01 -0.59082768575E+02  0.62989069805E+02  0.00000000000E+00 0.  1.
<mgrwt>
<rscale>  2 0.31415065E+03</rscale>
<asrwt>0</asrwt>
<pdfrwt beam="1">  1       21 0.13753419E-01 0.31434726E+03</pdfrwt>
<pdfrwt beam="2">  1       21 0.17944812E+00 0.31434726E+03</pdfrwt>
<totfact> 0.77787335E+03</totfact>
</mgrwt>
</event>
<event>
12    1  0.1019868E-001  0.1849846E+03  0.7546771E-02  0.1163065E+00
         21   -1    0    0  501  502  0.00000000000E+00  0.00000000000E+00  0.12705269908E+04  0.12705269908E+04  0.00000000000E+00 0. -1.
         21   -1    0    0  502  503 -0.00000000000E+00 -0.00000000000E+00 -0.43116775061E+02  0.43116775061E+02  0.00000000000E+00 0. -1.
         -6    2    1    2    0  503 -0.20691677969E+02  0.61567119204E+02  0.21128601711E+03  0.28081865678E+03  0.17320127386E+03 0.  0.
        -24    2    3    3    0    0 -0.71428399432E+02  0.35246174870E+02  0.87557508160E+02  0.14444475553E+03  0.82786841209E+02 0.  0.
          6    2    1    2  501    0  0.20691677969E+02 -0.61567119204E+02  0.10161241986E+04  0.10328251090E+04  0.17320699522E+03 0.  0.
         24    2    5    5    0    0  0.16024673766E+02 -0.87300151384E+02  0.98363822116E+03  0.99085608947E+03  0.79834411909E+02 0.  0.
          5    1    5    5  501    0  0.46670042029E+01  0.25733032180E+02  0.32485977437E+02  0.41969019567E+02  0.47000000000E+01 0. -1.
        -13    1    6    6    0    0 -0.14123003513E+02 -0.26267094305E+02  0.94005799424E+02  0.98623069293E+02  0.00000000000E+00 0.  1.
         14    1    6    6    0    0  0.30147677279E+02 -0.61033057078E+02  0.88963242173E+03  0.89223302018E+03  0.00000000000E+00 0. -1.
         -5    1    3    3    0  503  0.50736721463E+02  0.26320944334E+02  0.12372850895E+03  0.13637390125E+03  0.47000000000E+01 0.  1.
         13    1    4    4    0    0  0.16251748533E+02  0.14352075691E+02  0.50799340804E+01  0.22268972524E+02  0.00000000000E+00 0. -1.
        -14    1    4    4    0    0 -0.87680147966E+02  0.20894099179E+02  0.82477574079E+02  0.12217578301E+03  0.00000000000E+00 0.  1.
<mgrwt>
<rscale>  2 0.18498331E+03</rscale>
<asrwt>0</asrwt>
<pdfrwt beam="1">  1       21 0.19546566E+00 0.18498465E+03</pdfrwt>
<pdfrwt beam="2">  1       21 0.66333510E-02 0.18498465E+03</pdfrwt>
<totfact> 0.23974009E+04</totfact>
</mgrwt>
</event>
<event>
12    1  0.1019868E-001  0.1929409E+03  0.7546771E-02  0.1156038E+00
         21   -1    0    0  501  502  0.00000000000E+00  0.00000000000E+00  0.97632761295E+02  0.97632761295E+02  0.00000000000E+00 0. -1.
         21   -1    0    0  502  503 -0.00000000000E+00 -0.00000000000E+00 -0.64143608887E+03  0.64143608887E+03  0.00000000000E+00 0. -1.
         -6    2    1    2    0  503  0.25526574172E+01 -0.83992645848E+02 -0.50843729439E+03  0.54381492436E+03  0.17368047967E+03 0.  0.
        -24    2    3    3    0    0 -0.18676252069E+02  0.81403112213E+01 -0.34847492772E+03  0.35794078112E+03  0.79194447277E+02 0.  0.
          6    2    1    2  501    0 -0.25526574172E+01  0.83992645848E+02 -0.35366033181E+02  0.19525392580E+03  0.17266168834E+03 0.  0.
         24    2    5    5    0    0  0.53525807913E+02  0.26309805501E+02 -0.41371880371E+02  0.11444387355E+03  0.88479092045E+02 0.  0.
          5    1    5    5  501    0 -0.56078465330E+02  0.57682840347E+02  0.60058471895E+01  0.80810052251E+02  0.47000000000E+01 0. -1.
        -11    1    6    6    0    0  0.22994403895E+02  0.52080394006E+02 -0.47346612501E+02  0.74046011139E+02  0.00000000000E+00 0.  1.
         12    1    6    6    0    0  0.30531404018E+02 -0.25770588505E+02  0.59747321306E+01  0.40397862409E+02  0.00000000000E+00 0. -1.
         -5    1    3    3    0  503  0.21228909486E+02 -0.92132957069E+02 -0.15996236667E+03  0.18587414324E+03  0.47000000000E+01 0.  1.
         13    1    4    4    0    0 -0.23707933865E+02  0.38486360186E+02 -0.13760827763E+03  0.14484234229E+03  0.00000000000E+00 0. -1.
        -14    1    4    4    0    0  0.50316817957E+01 -0.30346048965E+02 -0.21086665010E+03  0.21309843883E+03  0.00000000000E+00 0.  1.
<mgrwt>
<rscale>  2 0.19271134E+03</rscale>
<asrwt>0</asrwt>
<pdfrwt beam="1">  1       21 0.15020425E-01 0.19294090E+03</pdfrwt>
<pdfrwt beam="2">  1       21 0.98682474E-01 0.19294090E+03</pdfrwt>
<totfact> 0.33145810E+04</totfact>
</mgrwt>
</event>
<event>
12    1  0.1019868E-001  0.1808960E+03  0.7546771E-02  0.1167289E+00
         21   -1    0    0  503  502  0.00000000000E+00  0.00000000000E+00  0.50696147846E+02  0.50696147846E+02  0.00000000000E+00 0. -1.
         21   -1    0    0  501  503 -0.00000000000E+00 -0.00000000000E+00 -0.11158800380E+04  0.11158800380E+04  0.00000000000E+00 0. -1.
          6    2    1    2  501    0  0.65216167073E+01  0.49382367781E+02 -0.91460176357E+03  0.93231954863E+03  0.17390286112E+03 0.  0.
         24    2    3    3    0    0 -0.40166624754E+02  0.43297430416E+02 -0.82667212767E+03  0.83246701124E+03  0.78271916546E+02 0.  0.
         -6    2    1    2    0  502 -0.65216167073E+01 -0.49382367781E+02 -0.15058212663E+03  0.23425663726E+03  0.17239502750E+03 0.  0.
        -24    2    5    5    0    0  0.50582355171E+02 -0.35987944052E+02 -0.14255359751E+03  0.17486958925E+03  0.80025860258E+02 0.  0.
          5    1    3    3  501    0  0.46688241461E+02  0.60849373650E+01 -0.87929635902E+02  0.99852537390E+02  0.47000000000E+01 0. -1.
        -11    1    4    4    0    0  0.10534065087E+02 -0.16549046019E+02 -0.16662009227E+03  0.16777095279E+03  0.00000000000E+00 0.  1.
         12    1    4    4    0    0 -0.50700689841E+02  0.59846476435E+02 -0.66005203540E+03  0.66469605846E+03  0.00000000000E+00 0. -1.
         -5    1    5    5    0  502 -0.57103971878E+02 -0.13394423729E+02 -0.80285291204E+01  0.59387048008E+02  0.47000000000E+01 0.  1.
         13    1    6    6    0    0  0.35131214793E+02 -0.48871761714E+02 -0.44705870131E+02  0.74975103668E+02  0.00000000000E+00 0. -1.
        -14    1    6    6    0    0  0.15451140377E+02  0.12883817662E+02 -0.97847727380E+02  0.99894485583E+02  0.00000000000E+00 0.  1.
<mgrwt>
<rscale>  2 0.18053262E+03</rscale>
<asrwt>0</asrwt>
<pdfrwt beam="1">  1       21 0.77994079E-02 0.18089598E+03</pdfrwt>
<pdfrwt beam="2">  1       21 0.17167384E+00 0.18089598E+03</pdfrwt>
<totfact> 0.26258372E+04</totfact>
</mgrwt>
</event>
<event>
12    1  0.1019868E-001  0.1819053E+03  0.7546771E-02  0.1166613E+00
         21   -1    0    0  503  502  0.00000000000E+00  0.00000000000E+00  0.65385057878E+02  0.65385057878E+02  0.00000000000E+00 0. -1.
         21   -1    0    0  501  503 -0.00000000000E+00 -0.00000000000E+00 -0.59411367158E+03  0.59411367158E+03  0.00000000000E+00 0.  1.
          6    2    1    2  501    0 -0.11844996952E+02 -0.49316843861E+02 -0.39487948364E+03  0.43365557408E+03  0.17191537246E+03 0.  0.
         24    2    3    3    0    0 -0.65341450006E+02 -0.13517397617E+02 -0.17084119257E+03  0.20050601541E+03  0.81016813139E+02 0.  0.
         -6    2    1    2    0  502  0.11844996952E+02  0.49316843861E+02 -0.13384913006E+03  0.22584315538E+03  0.17469140268E+03 0.  0.
        -24    2    5    5    0    0 -0.18748983815E+02  0.91416372311E+02 -0.63197529596E+02  0.13796767186E+03  0.79578095045E+02 0.  0.
          5    1    3    3  501    0  0.53496453054E+02 -0.35799446243E+02 -0.22403829107E+03  0.23314955866E+03  0.47000000000E+01 0. -1.
        -11    1    4    4    0    0 -0.20395345319E+02 -0.25089143157E+02 -0.14250654129E+03  0.14612853768E+03  0.00000000000E+00 0.  1.
         12    1    4    4    0    0 -0.44946104686E+02  0.11571745540E+02 -0.28334651282E+02  0.54377477733E+02  0.00000000000E+00 0. -1.
         -5    1    5    5    0  502  0.30593980767E+02 -0.42099528450E+02 -0.70651600467E+02  0.87875483517E+02  0.47000000000E+01 0.  1.
         11    1    6    6    0    0 -0.44313526800E+02  0.27153010917E+02 -0.16539395089E+02  0.54539217534E+02  0.00000000000E+00 0. -1.
        -12    1    6    6    0    0  0.25564542984E+02  0.64263361394E+02 -0.46658134507E+02  0.83428454327E+02  0.00000000000E+00 0.  1.
<mgrwt>
<rscale>  2 0.18123555E+03</rscale>
<asrwt>0</asrwt>
<pdfrwt beam="1">  1       21 0.10059240E-01 0.18190531E+03</pdfrwt>
<pdfrwt beam="2">  1       21 0.91402103E-01 0.18190531E+03</pdfrwt>
<totfact> 0.81769701E+04</totfact>
</mgrwt>
</event>
<event>
12    1  0.1019868E-001  0.1975728E+03  0.7546771E-02  0.1152037E+00
         21   -1    0    0  503  502  0.00000000000E+00  0.00000000000E+00  0.43945494997E+03  0.43945494997E+03  0.00000000000E+00 0. -1.
         21   -1    0    0  501  503 -0.00000000000E+00 -0.00000000000E+00 -0.12498971402E+03  0.12498971402E+03  0.00000000000E+00 0. -1.
          6    2    1    2  501    0  0.84725708471E+02 -0.46134354433E+02  0.47106168724E+01  0.19762898585E+03  0.17241868171E+03 0.  0.
         24    2    3    3    0    0  0.37867569684E+02 -0.52252917242E+02  0.64120028851E+02  0.12157183489E+03  0.80647459626E+02 0.  0.
         -6    2    1    2    0  502 -0.84725708471E+02  0.46134354433E+02  0.30975461907E+03  0.36681567814E+03  0.17116948723E+03 0.  0.
        -24    2    5    5    0    0 -0.11163743884E+03 -0.32935575527E+01  0.19886343390E+03  0.24237169611E+03  0.81997612535E+02 0.  0.
          5    1    3    3  501    0  0.46858138788E+02  0.61185628084E+01 -0.59409411979E+02  0.76057150966E+02  0.47000000000E+01 0. -1.
        -11    1    4    4    0    0 -0.97096644411E+01  0.78681089933E+01  0.38904896987E+02  0.40862889427E+02  0.00000000000E+00 0.  1.
         12    1    4    4    0    0  0.47577234125E+02 -0.60121026235E+02  0.25215131864E+02  0.80708945461E+02  0.00000000000E+00 0. -1.
         -5    1    5    5    0  502  0.26911730366E+02  0.49427911986E+02  0.11089118517E+03  0.12444398203E+03  0.47000000000E+01 0.  1.
         13    1    6    6    0    0 -0.71292164207E+02  0.37919616539E+02  0.12117804872E+03  0.14561795730E+03  0.00000000000E+00 0. -1.
        -14    1    6    6    0    0 -0.40345274630E+02 -0.41213174092E+02  0.77685385175E+02  0.96753738809E+02  0.00000000000E+00 0.  1.
<mgrwt>
<rscale>  2 0.19729997E+03</rscale>
<asrwt>0</asrwt>
<pdfrwt beam="1">  1       21 0.67608453E-01 0.19757284E+03</pdfrwt>
<pdfrwt beam="2">  1       21 0.19229187E-01 0.19757284E+03</pdfrwt>
<totfact> 0.49556997E+04</totfact>
</mgrwt>
</event>
<event>
12    1  0.1019868E-001  0.2064748E+03  0.7546771E-02  0.1144458E+00
         21   -1    0    0  501  502  0.00000000000E+00  0.00000000000E+00  0.47559524328E+02  0.47559524328E+02  0.00000000000E+00 0.  1.
         21   -1    0    0  502  503 -0.00000000000E+00 -0.00000000000E+00 -0.11642440597E+04  0.11642440597E+04  0.00000000000E+00 0.  1.
         -6    2    1    2    0  503 -0.97449550917E+02 -0.55269652629E+02 -0.26655608568E+03  0.33696060122E+03  0.17302933417E+03 0.  0.
        -24    2    3    3    0    0 -0.20451672725E+02  0.25830146773E+02 -0.16037609758E+03  0.18268120991E+03  0.81033723719E+02 0.  0.
          6    2    1    2  501    0  0.97449550917E+02  0.55269652629E+02 -0.85012844969E+03  0.87484298281E+03  0.17343792584E+03 0.  0.
         24    2    5    5    0    0  0.19449675373E+02 -0.89191190537E+01 -0.19923897286E+03  0.21614473623E+03  0.81021837409E+02 0.  0.
          5    1    5    5  501    0  0.77999875544E+02  0.64188771683E+02 -0.65088947683E+03  0.65869824658E+03  0.47000000000E+01 0. -1.
        -11    1    6    6    0    0  0.22567265152E+02  0.32645362202E+02 -0.12315739156E+03  0.12939375652E+03  0.00000000000E+00 0.  1.
         12    1    6    6    0    0 -0.31175897785E+01 -0.41564481256E+02 -0.76081581296E+02  0.86750979710E+02  0.00000000000E+00 0. -1.
         -5    1    3    3    0  503 -0.76997878192E+02 -0.81099799402E+02 -0.10617998810E+03  0.15427939131E+03  0.47000000000E+01 0.  1.
         13    1    4    4    0    0 -0.33741716579E+02  0.12130579843E+01 -0.14849891440E+03  0.15228887854E+03  0.00000000000E+00 0. -1.
        -14    1    4    4    0    0  0.13290043853E+02  0.24617088789E+02 -0.11877183178E+02  0.30392331373E+02  0.00000000000E+00 0.  1.
<mgrwt>
<rscale>  2 0.20638902E+03</rscale>
<asrwt>0</asrwt>
<pdfrwt beam="1">  1       21 0.73168508E-02 0.20647485E+03</pdfrwt>
<pdfrwt beam="2">  1       21 0.17911445E+00 0.20647485E+03</pdfrwt>
<totfact> 0.25608399E+04</totfact>
</mgrwt>
</event>
<event>
12    1  0.1019868E-001  0.2041047E+03  0.7546771E-02  0.1146891E+00
         21   -1    0    0  503  502  0.00000000000E+00  0.00000000000E+00  0.14796523747E+03  0.14796523747E+03  0.00000000000E+00 0. -1.
         21   -1    0    0  501  503 -0.00000000000E+00 -0.00000000000E+00 -0.35433460663E+03  0.35433460663E+03  0.00000000000E+00 0. -1.
          6    2    1    2  501    0  0.54774916277E+02 -0.86811439030E+02 -0.21938811899E+03  0.29778035380E+03  0.17322088488E+03 0.  0.
         24    2    3    3    0    0  0.55456175973E+02 -0.24400625769E+01 -0.65988609651E+02  0.12264471282E+03  0.87211740145E+02 0.  0.
         -6    2    1    2    0  502 -0.54774916277E+02  0.86811439030E+02  0.13018749825E+02  0.20451949030E+03  0.17641489922E+03 0.  0.
        -24    2    5    5    0    0 -0.24632245255E+02  0.80347038970E+02 -0.55776084238E+02  0.12898679355E+03  0.80400417666E+02 0.  0.
          5    1    3    3  501    0 -0.68125969590E+00 -0.84371376453E+02 -0.15339950934E+03  0.17513564099E+03  0.47000000000E+01 0. -1.
        -13    1    4    4    0    0  0.11876290590E+01  0.28114788698E+02 -0.51524767874E+02  0.58708206503E+02  0.00000000000E+00 0.  1.
         14    1    4    4    0    0  0.54268546914E+02 -0.30554851275E+02 -0.14463841777E+02  0.63936506313E+02  0.00000000000E+00 0. -1.
         -5    1    5    5    0  502 -0.30142671022E+02  0.64644000600E+01  0.68794834063E+02  0.75532696749E+02  0.47000000000E+01 0.  1.
         13    1    6    6    0    0 -0.12202017522E+02  0.40641177929E+02  0.16550631261E+02  0.45546876624E+02  0.00000000000E+00 0. -1.
        -14    1    6    6    0    0 -0.12430227734E+02  0.39705861042E+02 -0.72326715499E+02  0.83439916931E+02  0.00000000000E+00 0.  1.
<mgrwt>
<rscale>  2 0.20341263E+03</rscale>
<asrwt>0</asrwt>
<pdfrwt beam="1">  1       21 0.22763883E-01 0.20410471E+03</pdfrwt>
<pdfrwt beam="2">  1       21 0.54513016E-01 0.20410471E+03</pdfrwt>
<totfact> 0.57212798E+04</totfact>
</mgrwt>
</event>
<event>
12    1  0.1019868E-001  0.1849925E+03  0.7546771E-02  0.1163255E+00
         21   -1    0    0  503  502  0.00000000000E+00  0.00000000000E+00  0.86438084578E+02  0.86438084578E+02  0.00000000000E+00 0. -1.
         21   -1    0    0  501  503 -0.00000000000E+00 -0.00000000000E+00 -0.51261115901E+03  0.51261115901E+03  0.00000000000E+00 0. -1.
          6    2    1    2  501    0 -0.54024065681E+02  0.34249402991E+02 -0.35747253622E+03  0.40250320390E+03  0.17358166298E+03 0.  0.
         24    2    3    3    0    0 -0.34039977492E+02 -0.46663143584E+02 -0.22208554192E+03  0.24344996690E+03  0.81300242430E+02 0.  0.
         -6    2    1    2    0  502  0.54024065681E+02 -0.34249402991E+02 -0.68700538216E+02  0.19654603969E+03  0.17268167386E+03 0.  0.
        -24    2    5    5    0    0  0.76503751943E+02  0.15850235573E+02  0.13949619381E+00  0.10836242207E+03  0.75088887519E+02 0.  0.
          5    1    3    3  501    0 -0.19984088190E+02  0.80912546575E+02 -0.13538699430E+03  0.15905323700E+03  0.47000000000E+01 0. -1.
        -13    1    4    4    0    0 -0.59210640031E+02 -0.21165316449E+02 -0.15757254714E+03  0.16965546889E+03  0.00000000000E+00 0.  1.
         14    1    4    4    0    0  0.25170662539E+02 -0.25497827135E+02 -0.64512994779E+02  0.73794498010E+02  0.00000000000E+00 0. -1.
         -5    1    5    5    0  502 -0.22479686261E+02 -0.50099638565E+02 -0.68840034409E+02  0.88183617618E+02  0.47000000000E+01 0.  1.
         11    1    6    6    0    0  0.27830388213E+02  0.88039967230E+01  0.36836334491E+02  0.46999536222E+02  0.00000000000E+00 0. -1.
        -12    1    6    6    0    0  0.48673363730E+02  0.70462388504E+01 -0.36696838297E+02  0.61362885849E+02  0.00000000000E+00 0.  1.
<mgrwt>
<rscale>  2 0.18478106E+03</rscale>
<asrwt>0</asrwt>
<pdfrwt beam="1">  1       21 0.13298167E-01 0.18499247E+03</pdfrwt>
<pdfrwt beam="2">  1       21 0.78863256E-01 0.18499247E+03</pdfrwt>
<totfact> 0.69547029E+04</totfact>
</mgrwt>
</event>
<event>
12    1  0.1019868E-001  0.2084027E+03  0.7546771E-02  0.1144242E+00
         21   -1    0    0  501  502  0.00000000000E+00  0.00000000000E+00  0.55744470864E+03  0.55744470864E+03  0.00000000000E+00 0.  1.
         21   -1    0    0  502  503 -0.00000000000E+00 -0.00000000000E+00 -0.80860874170E+02  0.80860874170E+02  0.00000000000E+00 0.  1.
         -6    2    1    2    0  503  0.99819981865E+02  0.11643713796E+02  0.15127374373E+03  0.25196590534E+03  0.17465241785E+03 0.  0.
        -24    2    3    3    0    0  0.45681405546E+02  0.10508313729E+02  0.17062682269E+03  0.19426923087E+03  0.80186070931E+02 0.  0.
          6    2    1    2  501    0 -0.99819981865E+02 -0.11643713796E+02  0.32531009074E+03  0.38633967747E+03  0.18257077093E+03 0.  0.
         24    2    5    5    0    0 -0.60482219285E+02 -0.71158411146E+01  0.33038933768E+03  0.34614204141E+03  0.83357449153E+02 0.  0.
          5    1    5    5  501    0 -0.39337762580E+02 -0.45278726816E+01 -0.50792469384E+01  0.40197636066E+02  0.47000000000E+01 0. -1.
        -11    1    6    6    0    0 -0.69586335659E+02  0.80378879587E+01  0.15779262434E+03  0.17264234141E+03  0.00000000000E+00 0.  1.
         12    1    6    6    0    0  0.91041163740E+01 -0.15153729073E+02  0.17259671334E+03  0.17349969999E+03  0.00000000000E+00 0. -1.
         -5    1    3    3    0  503  0.54138576319E+02  0.11354000674E+01 -0.19353078966E+02  0.57696674468E+02  0.47000000000E+01 0.  1.
         11    1    4    4    0    0 -0.12795962320E+02  0.26759680212E+02  0.36377123430E+02  0.46937322525E+02  0.00000000000E+00 0. -1.
        -12    1    4    4    0    0  0.58477367866E+02 -0.16251366483E+02  0.13424969926E+03  0.14733190835E+03  0.00000000000E+00 0.  1.
<mgrwt>
<rscale>  2 0.20665570E+03</rscale>
<asrwt>0</asrwt>
<pdfrwt beam="1">  1       21 0.85760722E-01 0.20840271E+03</pdfrwt>
<pdfrwt beam="2">  1       21 0.12440135E-01 0.20840271E+03</pdfrwt>
<totfact> 0.64113584E+04</totfact>
</mgrwt>
</event>
<event>
12    1  0.1019868E-001  0.1869152E+03  0.7546771E-02  0.1161718E+00
         21   -1    0    0  503  502  0.00000000000E+00  0.00000000000E+00  0.37287415966E+03  0.37287415966E+03  0.00000000000E+00 0.  1.
         21   -1    0    0  501  503 -0.00000000000E+00 -0.00000000000E+00 -0.19048704537E+03  0.19048704537E+03  0.00000000000E+00 0.  1.
          6    2    1    2  501    0 -0.69255698692E+02  0.29365268014E+01 -0.11035725894E+03  0.21706223251E+03  0.17358661581E+03 0.  0.
         24    2    3    3    0    0 -0.84419092818E+02 -0.47115246175E+02 -0.10297469610E+03  0.16403676001E+03  0.83413673602E+02 0.  0.
         -6    2    1    2    0  502  0.69255698692E+02 -0.29365268014E+01  0.29274437323E+03  0.34629897251E+03  0.17151890657E+03 0.  0.
        -24    2    5    5    0    0  0.44169761517E+02 -0.67784294174E+02  0.18508781754E+03  0.21805482582E+03  0.82126295983E+02 0.  0.
          5    1    3    3  501    0  0.15163394126E+02  0.50051772977E+02 -0.73825628461E+01  0.53025472499E+02  0.47000000000E+01 0. -1.
        -13    1    4    4    0    0 -0.71317516607E+01 -0.25395587035E+02 -0.74208788433E+02  0.78757488553E+02  0.00000000000E+00 0.  1.
         14    1    4    4    0    0 -0.77287341158E+02 -0.21719659140E+02 -0.28765907665E+02  0.85279271457E+02  0.00000000000E+00 0. -1.
         -5    1    5    5    0  502  0.25085937175E+02  0.64847767373E+02  0.10765655569E+03  0.12824414669E+03  0.47000000000E+01 0.  1.
         11    1    6    6    0    0 -0.22424247692E+02 -0.25169793817E+02  0.36119425794E+02  0.49406257954E+02  0.00000000000E+00 0. -1.
        -12    1    6    6    0    0  0.66594009210E+02 -0.42614500357E+02  0.14896839175E+03  0.16864856787E+03  0.00000000000E+00 0.  1.
<mgrwt>
<rscale>  2 0.18643366E+03</rscale>
<asrwt>0</asrwt>
<pdfrwt beam="1">  1       21 0.57365255E-01 0.18691519E+03</pdfrwt>
<pdfrwt beam="2">  1       21 0.29305699E-01 0.18691519E+03</pdfrwt>
<totfact> 0.31910940E+04</totfact>
</mgrwt>
</event>
<event>
12    1  0.1019868E-001  0.2131347E+03  0.7546771E-02  0.1140669E+00
         21   -1    0    0  501  502  0.00000000000E+00  0.00000000000E+00  0.37003211471E+03  0.37003211471E+03  0.00000000000E+00 0. -1.
         21   -1    0    0  502  503 -0.00000000000E+00 -0.00000000000E+00 -0.27952356617E+03  0.27952356617E+03  0.00000000000E+00 0.  1.
         -6    2    1    2    0  503 -0.61038062601E+01  0.12486863637E+03 -0.20104842879E+03  0.29299636434E+03  0.17261797704E+03 0.  0.
        -24    2    3    3    0    0  0.55491339801E+02  0.61652103415E+02 -0.15686834362E+03  0.19418208408E+03  0.78858949388E+02 0.  0.
          6    2    1    2  501    0  0.61038062601E+01 -0.12486863637E+03  0.29155697733E+03  0.35655931655E+03  0.16278710756E+03 0.  0.
         24    2    5    5    0    0  0.26380719245E+02 -0.92379159286E+02  0.98504046265E+02  0.15968818227E+03  0.81039601471E+02 0.  0.
          5    1    5    5  501    0 -0.20276912985E+02 -0.32489477087E+02  0.19305293106E+03  0.19687113428E+03  0.47000000000E+01 0. -1.
        -13    1    6    6    0    0 -0.78349995456E+01 -0.86735450897E+02  0.51164852502E+02  0.10100627600E+03  0.00000000000E+00 0.  1.
         14    1    6    6    0    0  0.34215718790E+02 -0.56437083894E+01  0.47339193763E+02  0.58681906264E+02  0.00000000000E+00 0. -1.
         -5    1    3    3    0  503 -0.61595146061E+02  0.63216532958E+02 -0.44180085167E+02  0.98814280258E+02  0.47000000000E+01 0.  1.
         13    1    4    4    0    0  0.16886889868E+02  0.51687641548E+02 -0.31978245800E+02  0.63082386945E+02  0.00000000000E+00 0. -1.
        -14    1    4    4    0    0  0.38604449933E+02  0.99644618670E+01 -0.12489009782E+03  0.13109969714E+03  0.00000000000E+00 0.  1.
<mgrwt>
<rscale>  2 0.21113652E+03</rscale>
<asrwt>0</asrwt>
<pdfrwt beam="1">  1       21 0.56928017E-01 0.21313470E+03</pdfrwt>
<pdfrwt beam="2">  1       21 0.43003626E-01 0.21313470E+03</pdfrwt>
<totfact> 0.14883926E+04</totfact>
</mgrwt>
</event>
<event>
12    1  0.1019868E-001  0.1878525E+03  0.7546771E-02  0.1160604E+00
         21   -1    0    0  503  502  0.00000000000E+00  0.00000000000E+00  0.15049233729E+03  0.15049233729E+03  0.00000000000E+00 0. -1.
         21   -1    0    0  501  503 -0.00000000000E+00 -0.00000000000E+00 -0.36153094089E+03  0.36153094089E+03  0.00000000000E+00 0. -1.
          6    2    1    2  501    0 -0.47648838800E+02 -0.53690210015E+02 -0.25805415329E+03  0.31918727280E+03  0.17359584845E+03 0.  0.
         24    2    3    3    0    0 -0.81041352733E+02  0.10538068592E+02 -0.15169522353E+03  0.19044472467E+03  0.81111038525E+02 0.  0.
         -6    2    1    2    0  502  0.47648838800E+02  0.53690210015E+02  0.47015549700E+02  0.19283600538E+03  0.17269109000E+03 0.  0.
        -24    2    5    5    0    0  0.60487567697E+02  0.35181553331E+02 -0.31910296907E+02  0.11062418996E+03  0.79517022167E+02 0.  0.
          5    1    3    3  501    0  0.33392513932E+02 -0.64228278607E+02 -0.10635892977E+03  0.12874254814E+03  0.47000000000E+01 0. -1.
        -13    1    4    4    0    0 -0.29713018426E+01  0.12508450362E+02  0.62141123070E+01  0.14279536297E+02  0.00000000000E+00 0.  1.
         14    1    4    4    0    0 -0.78070050890E+02 -0.19703817697E+01 -0.15790933583E+03  0.17616518837E+03  0.00000000000E+00 0. -1.
         -5    1    5    5    0  502 -0.12838728896E+02  0.18508656684E+02  0.78925846607E+02  0.82211815420E+02  0.47000000000E+01 0.  1.
         13    1    6    6    0    0  0.74975017951E+02  0.45562677683E+02 -0.23001645720E+02  0.90698878826E+02  0.00000000000E+00 0. -1.
        -14    1    6    6    0    0 -0.14487450254E+02 -0.10381124352E+02 -0.89086511877E+01  0.19925311131E+02  0.00000000000E+00 0.  1.
<mgrwt>
<rscale>  2 0.18764323E+03</rscale>
<asrwt>0</asrwt>
<pdfrwt beam="1">  1       21 0.23152667E-01 0.18785252E+03</pdfrwt>
<pdfrwt beam="2">  1       21 0.55620145E-01 0.18785252E+03</pdfrwt>
<totfact> 0.53507335E+04</totfact>
</mgrwt>
</event>
<event>
12    1  0.1019868E-001  0.1880123E+03  0.7546771E-02  0.1160741E+00
         21   -1    0    0  501  502  0.00000000000E+00  0.00000000000E+00  0.17701437694E+03  0.17701437694E+03  0.00000000000E+00 0.  1.
         21   -1    0    0  502  503 -0.00000000000E+00 -0.00000000000E+00 -0.21341191987E+03  0.21341191987E+03  0.00000000000E+00 0.  1.
         -6    2    1    2    0  503  0.68154053906E+02 -0.11237008215E+02 -0.71400183060E+02  0.19918345662E+03  0.17264071893E+03 0.  0.
        -24    2    3    3    0    0  0.85015790520E+02  0.46172715469E+02 -0.38389178612E+02  0.13068520154E+03  0.79027138217E+02 0.  0.
          6    2    1    2  501    0 -0.68154053906E+02  0.11237008215E+02  0.35002640126E+02  0.19124284019E+03  0.17486392907E+03 0.  0.
         24    2    5    5    0    0 -0.34347063586E+01 -0.34143124031E+02  0.63459101159E+02  0.10710123025E+03  0.79158485797E+02 0.  0.
          5    1    5    5  501    0 -0.64719347547E+02  0.45380132246E+02 -0.28456461034E+02  0.84141609945E+02  0.47000000000E+01 0. -1.
        -11    1    6    6    0    0 -0.27081391321E+02 -0.14836465870E+02 -0.57942481162E+01  0.31418080569E+02  0.00000000000E+00 0.  1.
         12    1    6    6    0    0  0.23646684962E+02 -0.19306658161E+02  0.69253349276E+02  0.75683149676E+02  0.00000000000E+00 0. -1.
         -5    1    3    3    0  503 -0.16861736614E+02 -0.57409723684E+02 -0.33011004448E+02  0.68498255085E+02  0.47000000000E+01 0.  1.
         13    1    4    4    0    0  0.36110170187E+02 -0.15565336434E+02 -0.33695278503E+02  0.51784127710E+02  0.00000000000E+00 0. -1.
        -14    1    4    4    0    0  0.48905620333E+02  0.61738051903E+02 -0.46939001088E+01  0.78901073827E+02  0.00000000000E+00 0.  1.
<mgrwt>
<rscale>  2 0.18749371E+03</rscale>
<asrwt>0</asrwt>
<pdfrwt beam="1">  1       21 0.27232981E-01 0.18801234E+03</pdfrwt>
<pdfrwt beam="2">  1       21 0.32832603E-01 0.18801234E+03</pdfrwt>
<totfact> 0.11497906E+05</totfact>
</mgrwt>
</event>
<event>
12    1  0.1019868E-001  0.2196217E+03  0.7546771E-02  0.1137285E+00
         21   -1    0    0  501  502  0.00000000000E+00  0.00000000000E+00  0.25057086819E+03  0.25057086819E+03  0.00000000000E+00 0. -1.
         21   -1    0    0  502  503 -0.00000000000E+00 -0.00000000000E+00 -0.44867190706E+03  0.44867190706E+03  0.00000000000E+00 0. -1.
         -6    2    1    2    0  503  0.10667373634E+03  0.66065109194E+00 -0.36868195766E+03  0.42115729030E+03  0.17339940826E+03 0.  0.
        -24    2    3    3    0    0  0.12241151501E+03 -0.23026135920E+02 -0.36250404062E+03  0.39167851463E+03  0.80548726951E+02 0.  0.
          6    2    1    2  501    0 -0.10667373634E+03 -0.66065109194E+00  0.17058091879E+03  0.27808548495E+03  0.19197386436E+03 0.  0.
         24    2    5    5    0    0 -0.15065498102E+03 -0.16897634668E+02  0.13953093565E+03  0.22165693746E+03  0.81734096659E+02 0.  0.
          5    1    5    5  501    0  0.43981244675E+02  0.16236983576E+02  0.31049983134E+02  0.56428547487E+02  0.47000000000E+01 0. -1.
        -13    1    6    6    0    0  0.15306725052E+01 -0.16626815573E+02  0.29370783904E+02  0.33785158007E+02  0.00000000000E+00 0.  1.
         14    1    6    6    0    0 -0.15218565353E+03 -0.27081909524E+00  0.11016015175E+03  0.18787177946E+03  0.00000000000E+00 0. -1.
         -5    1    3    3    0  503 -0.15737778664E+02  0.23686787012E+02 -0.61779170417E+01  0.29478775673E+02  0.47000000000E+01 0.  1.
         11    1    4    4    0    0  0.87596605124E+02 -0.43413143180E+02 -0.18069861499E+03  0.20545037282E+03  0.00000000000E+00 0. -1.
        -12    1    4    4    0    0  0.34814909885E+02  0.20387007260E+02 -0.18180542563E+03  0.18622814181E+03  0.00000000000E+00 0.  1.
<mgrwt>
<rscale>  2 0.21549796E+03</rscale>
<asrwt>0</asrwt>
<pdfrwt beam="1">  1       21 0.38549364E-01 0.21962169E+03</pdfrwt>
<pdfrwt beam="2">  1       21 0.69026447E-01 0.21962169E+03</pdfrwt>
<totfact> 0.12186147E+04</totfact>
</mgrwt>
</event>
<event>
12    1  0.1019868E-001  0.2799227E+03  0.7546771E-02  0.1095784E+00
         21   -1    0    0  501  502  0.00000000000E+00  0.00000000000E+00  0.12794544201E+04  0.12794544201E+04  0.00000000000E+00 0.  1.
         21   -1    0    0  502  503 -0.00000000000E+00 -0.00000000000E+00 -0.10464460438E+03  0.10464460438E+03  0.00000000000E+00 0.  1.
         -6    2    1    2    0  503  0.11865830234E+03  0.18493766089E+03  0.14104557587E+03  0.31310638432E+03  0.17280052749E+03 0.  0.
        -24    2    3    3    0    0  0.50760711208E+02  0.46046235927E+02  0.11543272447E+03  0.15632941227E+03  0.80107837417E+02 0.  0.
          6    2    1    2  501    0 -0.11865830234E+03 -0.18493766089E+03  0.10337642399E+04  0.10709926402E+04  0.17342145356E+03 0.  0.
         24    2    5    5    0    0 -0.76004453091E+01 -0.13338145424E+03  0.63580519166E+03  0.65459693403E+03  0.80003282355E+02 0.  0.
          5    1    5    5  501    0 -0.11105785703E+03 -0.51556206651E+02  0.39795904820E+03  0.41639570615E+03  0.47000000000E+01 0. -1.
        -11    1    6    6    0    0 -0.17521081098E+02 -0.58158968817E+02  0.13446229765E+03  0.14754512336E+03  0.00000000000E+00 0.  1.
         12    1    6    6    0    0  0.99206357884E+01 -0.75222485420E+02  0.50134289401E+03  0.50705181067E+03  0.00000000000E+00 0. -1.
         -5    1    3    3    0  503  0.67897591133E+02  0.13889142496E+03  0.25612851404E+02  0.15677697205E+03  0.47000000000E+01 0.  1.
         13    1    4    4    0    0 -0.20001975510E+02  0.23272387071E+02  0.27719189545E+02  0.41352587504E+02  0.00000000000E+00 0. -1.
        -14    1    4    4    0    0  0.70762686719E+02  0.22773848856E+02  0.87713534923E+02  0.11497682476E+03  0.00000000000E+00 0.  1.
<mgrwt>
<rscale>  2 0.27982661E+03</rscale>
<asrwt>0</asrwt>
<pdfrwt beam="1">  1       21 0.19683913E+00 0.27992272E+03</pdfrwt>
<pdfrwt beam="2">  1       21 0.16099171E-01 0.27992272E+03</pdfrwt>
<totfact> 0.45306948E+03</totfact>
</mgrwt>
</event>
<event>
12    1  0.1019868E-001  0.2342518E+03  0.7546771E-02  0.1124228E+00
         21   -1    0    0  501  502  0.00000000000E+00  0.00000000000E+00  0.66033875983E+03  0.66033875983E+03  0.00000000000E+00 0.  1.
         21   -1    0    0  502  503 -0.00000000000E+00 -0.00000000000E+00 -0.95883816632E+02  0.95883816632E+02  0.00000000000E+00 0. -1.
         -6    2    1    2    0  503 -0.29836555628E+02  0.15337015330E+03  0.13991117907E+03  0.27285356342E+03  0.17453167354E+03 0.  0.
        -24    2    3    3    0    0 -0.40593004365E+02  0.18127893527E+03  0.11376749153E+03  0.23285126726E+03  0.82260720641E+02 0.  0.
          6    2    1    2  501    0  0.29836555628E+02 -0.15337015330E+03  0.42454376414E+03  0.48336901304E+03  0.17028085955E+03 0.  0.
         24    2    5    5    0    0 -0.46249551160E+02 -0.64874990885E+02  0.19362326647E+03  0.22458946273E+03  0.81256827568E+02 0.  0.
          5    1    5    5  501    0  0.76086106788E+02 -0.88495162417E+02  0.23092049767E+03  0.25877955031E+03  0.47000000000E+01 0. -1.
        -13    1    6    6    0    0 -0.43796160967E+02 -0.82027341604E+02  0.13860227446E+03  0.16690470027E+03  0.00000000000E+00 0.  1.
         14    1    6    6    0    0 -0.24533901931E+01  0.17152350720E+02  0.55020992006E+02  0.57684762459E+02  0.00000000000E+00 0. -1.
         -5    1    3    3    0  503  0.10756448737E+02 -0.27908781966E+02  0.26143687539E+02  0.40002296164E+02  0.47000000000E+01 0.  1.
         13    1    4    4    0    0  0.38604368189E+01  0.86177353189E+02  0.91084406070E+02  0.12545042130E+03  0.00000000000E+00 0. -1.
        -14    1    4    4    0    0 -0.44453441184E+02  0.95101582079E+02  0.22683085459E+02  0.10740084596E+03  0.00000000000E+00 0.  1.
<mgrwt>
<rscale>  2 0.23346042E+03</rscale>
<asrwt>0</asrwt>
<pdfrwt beam="1">  1       21 0.10159058E+00 0.23425185E+03</pdfrwt>
<pdfrwt beam="2">  1       21 0.14751357E-01 0.23425185E+03</pdfrwt>
<totfact> 0.31269134E+04</totfact>
</mgrwt>
</event>
<event>
12    1  0.1019868E-001  0.2338077E+03  0.7546771E-02  0.1124070E+00
         21   -1    0    0  501  502  0.00000000000E+00  0.00000000000E+00  0.20914451517E+03  0.20914451517E+03  0.00000000000E+00 0. -1.
         21   -1    0    0  502  503 -0.00000000000E+00 -0.00000000000E+00 -0.26363971787E+03  0.26363971787E+03  0.00000000000E+00 0. -1.
         -6    2    1    2    0  503 -0.10721488760E+03 -0.11486189192E+03 -0.51602655972E+02  0.23943447599E+03  0.17314083243E+03 0.  0.
        -24    2    3    3    0    0 -0.14144703896E+03 -0.93729891559E+02 -0.61975995332E+02  0.19762421654E+03  0.80135819489E+02 0.  0.
          6    2    1    2  501    0  0.10721488760E+03  0.11486189192E+03 -0.28925467307E+01  0.23334975705E+03  0.17249769840E+03 0.  0.
         24    2    5    5    0    0  0.27879769395E+02  0.62114453835E+02  0.57874913574E+02  0.12025189042E+03  0.80470644415E+02 0.  0.
          5    1    5    5  501    0  0.79335118200E+02  0.52747438080E+02 -0.60767460305E+02  0.11309786663E+03  0.47000000000E+01 0. -1.
        -13    1    6    6    0    0 -0.33215381231E+00 -0.19229514161E+02  0.87952727325E+01  0.21148081791E+02  0.00000000000E+00 0.  1.
         14    1    6    6    0    0  0.28211923207E+02  0.81343967996E+02  0.49079640842E+02  0.99103808633E+02  0.00000000000E+00 0. -1.
         -5    1    3    3    0  503  0.34232151362E+02 -0.21132000357E+02  0.10373339360E+02  0.41810259452E+02  0.47000000000E+01 0.  1.
         11    1    4    4    0    0 -0.87464232407E+02 -0.10256313129E+02 -0.24760735207E+02  0.91478292056E+02  0.00000000000E+00 0. -1.
        -12    1    4    4    0    0 -0.53982806551E+02 -0.83473578429E+02 -0.37215260125E+02  0.10614592449E+03  0.00000000000E+00 0.  1.
<mgrwt>
<rscale>  2 0.23368863E+03</rscale>
<asrwt>0</asrwt>
<pdfrwt beam="1">  1       21 0.32176079E-01 0.23380769E+03</pdfrwt>
<pdfrwt beam="2">  1       21 0.40559956E-01 0.23380769E+03</pdfrwt>
<totfact> 0.53413488E+04</totfact>
</mgrwt>
</event>
<event>
12    1  0.1019868E-001  0.1983513E+03  0.7546771E-02  0.1151269E+00
         21   -1    0    0  503  502  0.00000000000E+00  0.00000000000E+00  0.85376431014E+02  0.85376431014E+02  0.00000000000E+00 0. -1.
         21   -1    0    0  501  503 -0.00000000000E+00 -0.00000000000E+00 -0.49201737445E+03  0.49201737445E+03  0.00000000000E+00 0. -1.
          6    2    1    2  501    0  0.91929745591E+02 -0.27806662668E+02 -0.27736236615E+03  0.34063192747E+03  0.17284657718E+03 0.  0.
         24    2    3    3    0    0  0.42419633971E+02  0.51280780515E+02 -0.15427198112E+03  0.18610229372E+03  0.80031717280E+02 0.  0.
         -6    2    1    2    0  502 -0.91929745591E+02  0.27806662668E+02 -0.12927857728E+03  0.23676187799E+03  0.17354811354E+03 0.  0.
        -24    2    5    5    0    0 -0.78838423601E+02  0.54647098984E+02 -0.28655673079E+02  0.13169594353E+03  0.85562091374E+02 0.  0.
          5    1    3    3  501    0  0.49510111620E+02 -0.79087443183E+02 -0.12309038503E+03  0.15452963376E+03  0.47000000000E+01 0. -1.
        -11    1    4    4    0    0  0.40393391663E+02  0.45837489859E+02 -0.43075597602E+02  0.74754322118E+02  0.00000000000E+00 0.  1.
         12    1    4    4    0    0  0.20262423078E+01  0.54432906564E+01 -0.11119638352E+03  0.11134797160E+03  0.00000000000E+00 0. -1.
         -5    1    5    5    0  502 -0.13091321990E+02 -0.26840436316E+02 -0.10062290420E+03  0.10506593446E+03  0.47000000000E+01 0.  1.
         11    1    6    6    0    0 -0.56913931895E+02  0.50801287617E+02 -0.57306215448E+02  0.95414720018E+02  0.00000000000E+00 0. -1.
        -12    1    6    6    0    0 -0.21924491707E+02  0.38458113669E+01  0.28650542369E+02  0.36281223515E+02  0.00000000000E+00 0.  1.
<mgrwt>
<rscale>  2 0.19819774E+03</rscale>
<asrwt>0</asrwt>
<pdfrwt beam="1">  1       21 0.13134836E-01 0.19835130E+03</pdfrwt>
<pdfrwt beam="2">  1       21 0.75694980E-01 0.19835130E+03</pdfrwt>
<totfact> 0.77514109E+04</totfact>
</mgrwt>
</event>
<event>
12    1  0.1019868E-001  0.2011660E+03  0.7546771E-02  0.1149352E+00
         21   -1    0    0  503  502  0.00000000000E+00  0.00000000000E+00  0.48142507836E+02  0.48142507836E+02  0.00000000000E+00 0. -1.
         21   -1    0    0  501  503 -0.00000000000E+00 -0.00000000000E+00 -0.14877698954E+04  0.14877698954E+04  0.00000000000E+00 0. -1.
          6    2    1    2  501    0 -0.59995082254E+02  0.77832183320E+02 -0.12336985088E+04  0.12499919096E+04  0.17552921373E+03 0.  0.
         24    2    3    3    0    0 -0.52385982601E+02  0.89182564648E+01 -0.36652310555E+03  0.38003656726E+03  0.85233673416E+02 0.  0.
         -6    2    1    2    0  502  0.59995082254E+02 -0.77832183320E+02 -0.20592887873E+03  0.28592049357E+03  0.17229790159E+03 0.  0.
        -24    2    5    5    0    0  0.10513287137E+03 -0.43183944207E+02 -0.12485288551E+03  0.18675735951E+03  0.79826653642E+02 0.  0.
          5    1    3    3  501    0 -0.76090996529E+01  0.68913926856E+02 -0.86717540327E+03  0.86995534238E+03  0.47000000000E+01 0. -1.
        -13    1    4    4    0    0 -0.18022055249E+02 -0.38128060504E+02 -0.15645108542E+03  0.16203544552E+03  0.00000000000E+00 0.  1.
         14    1    4    4    0    0 -0.34363927352E+02  0.47046316969E+02 -0.21007202013E+03  0.21800112175E+03  0.00000000000E+00 0. -1.
         -5    1    5    5    0  502 -0.45137789115E+02 -0.34648239114E+02 -0.81075993224E+02  0.99163134063E+02  0.47000000000E+01 0.  1.
         11    1    6    6    0    0  0.89398910528E+02 -0.65903573579E+02 -0.10375577804E+03  0.15198916965E+03  0.00000000000E+00 0. -1.
        -12    1    6    6    0    0  0.15733960841E+02  0.22719629373E+02 -0.21097107464E+02  0.34768189857E+02  0.00000000000E+00 0.  1.
<mgrwt>
<rscale>  2 0.20045898E+03</rscale>
<asrwt>0</asrwt>
<pdfrwt beam="1">  1       21 0.74065402E-02 0.20116601E+03</pdfrwt>
<pdfrwt beam="2">  1       21 0.22888766E+00 0.20116601E+03</pdfrwt>
<totfact> 0.12094606E+04</totfact>
</mgrwt>
</event>
<event>
12    1  0.1019868E-001  0.2059762E+03  0.7546771E-02  0.1145924E+00
         21   -1    0    0  501  502  0.00000000000E+00  0.00000000000E+00  0.67978452726E+02  0.67978452726E+02  0.00000000000E+00 0. -1.
         21   -1    0    0  502  503 -0.00000000000E+00 -0.00000000000E+00 -0.86626204826E+03  0.86626204826E+03  0.00000000000E+00 0. -1.
         -6    2    1    2    0  503  0.79713424941E+02  0.63161535190E+02 -0.65817249871E+03  0.68965008055E+03  0.17911612408E+03 0.  0.
        -24    2    3    3    0    0  0.53656913289E+02 -0.58251881344E+00 -0.56883408912E+03  0.57675327967E+03  0.78693843470E+02 0.  0.
          6    2    1    2  501    0 -0.79713424941E+02 -0.63161535190E+02 -0.14011109682E+03  0.24459042043E+03  0.17277078651E+03 0.  0.
         24    2    5    5    0    0 -0.73565099854E+02 -0.94707966890E+01 -0.15365253123E+03  0.18868015529E+03  0.80557934077E+02 0.  0.
          5    1    5    5  501    0 -0.61483250878E+01 -0.53690738501E+02  0.13541434404E+02  0.55910265139E+02  0.47000000000E+01 0. -1.
        -11    1    6    6    0    0  0.11188802481E+02  0.30226426083E+01 -0.62587504120E+02  0.63651561970E+02  0.00000000000E+00 0.  1.
         12    1    6    6    0    0 -0.84753902334E+02 -0.12493439297E+02 -0.91065027107E+02  0.12502859332E+03  0.00000000000E+00 0. -1.
         -5    1    3    3    0  503  0.26056511652E+02  0.63744054004E+02 -0.89338409597E+02  0.11289680088E+03  0.47000000000E+01 0.  1.
         13    1    4    4    0    0  0.60750676720E+02  0.46778711284E+01 -0.56272675043E+03  0.56601583269E+03  0.00000000000E+00 0. -1.
        -14    1    4    4    0    0 -0.70937634308E+01 -0.52603899418E+01 -0.61073386828E+01  0.10737446984E+02  0.00000000000E+00 0.  1.
<mgrwt>
<rscale>  2 0.20458890E+03</rscale>
<asrwt>0</asrwt>
<pdfrwt beam="1">  1       21 0.10458224E-01 0.20597620E+03</pdfrwt>
<pdfrwt beam="2">  1       21 0.13327108E+00 0.20597620E+03</pdfrwt>
<totfact> 0.30184640E+04</totfact>
</mgrwt>
</event>
<event>
12    1  0.1019868E-001  0.1925304E+03  0.7546771E-02  0.1157113E+00
         21   -1    0    0  503  502  0.00000000000E+00  0.00000000000E+00  0.39072938771E+02  0.39072938771E+02  0.00000000000E+00 0. -1.
         21   -1    0    0  501  503 -0.00000000000E+00 -0.00000000000E+00 -0.10545618637E+04  0.10545618637E+04  0.00000000000E+00 0. -1.
          6    2    1    2  501    0  0.25524651883E+02  0.69832703924E+02 -0.70143238412E+03  0.72737566587E+03  0.17759463791E+03 0.  0.
         24    2    3    3    0    0  0.50423163996E+02  0.10849281078E+03 -0.51559190495E+03  0.53587288921E+03  0.83735031411E+02 0.  0.
         -6    2    1    2    0  502 -0.25524651883E+02 -0.69832703924E+02 -0.31405654085E+03  0.36625913665E+03  0.17316503669E+03 0.  0.
        -24    2    5    5    0    0  0.23753288739E+02 -0.14036178249E+02 -0.63147477740E+02  0.10449776505E+03  0.78555368557E+02 0.  0.
          5    1    3    3  501    0 -0.24898512113E+02 -0.38660106861E+02 -0.18584047917E+03  0.19150277666E+03  0.47000000000E+01 0. -1.
        -11    1    4    4    0    0  0.53394450488E+02  0.11049958448E+03 -0.51747119738E+03  0.53182475086E+03  0.00000000000E+00 0.  1.
         12    1    4    4    0    0 -0.29712864917E+01 -0.20067736978E+01  0.18792924278E+01  0.40481383523E+01  0.00000000000E+00 0. -1.
         -5    1    5    5    0  502 -0.49277940622E+02 -0.55796525675E+02 -0.25090906311E+03  0.26176137160E+03  0.47000000000E+01 0.  1.
         13    1    6    6    0    0  0.19908738234E+02 -0.45742803793E+02 -0.47689338710E+02  0.69014744682E+02  0.00000000000E+00 0. -1.
        -14    1    6    6    0    0  0.38445505050E+01  0.31706625544E+02 -0.15458139030E+02  0.35483020365E+02  0.00000000000E+00 0.  1.
<mgrwt>
<rscale>  2 0.19150269E+03</rscale>
<asrwt>0</asrwt>
<pdfrwt beam="1">  1       21 0.60112227E-02 0.19253044E+03</pdfrwt>
<pdfrwt beam="2">  1       21 0.16224025E+00 0.19253044E+03</pdfrwt>
<totfact> 0.47650615E+04</totfact>
</mgrwt>
</event>
<event>
12    1  0.1019868E-001  0.3007105E+03  0.7546771E-02  0.1084974E+00
         21   -1    0    0  501  502  0.00000000000E+00  0.00000000000E+00  0.40421794828E+03  0.40421794828E+03  0.00000000000E+00 0.  1.
         21   -1    0    0  502  503 -0.00000000000E+00 -0.00000000000E+00 -0.11528306613E+04  0.11528306613E+04  0.00000000000E+00 0. -1.
         -6    2    1    2    0  503 -0.19817948893E+03  0.14576220469E+03 -0.10735054186E+04  0.11148276403E+04  0.17293077681E+03 0.  0.
        -24    2    3    3    0    0 -0.98520343789E+02  0.14036022582E+03 -0.55166011336E+03  0.58350312625E+03  0.82096081121E+02 0.  0.
          6    2    1    2  501    0  0.19817948893E+03 -0.14576220469E+03  0.32489270560E+03  0.44222096929E+03  0.17170435457E+03 0.  0.
         24    2    5    5    0    0  0.19615495794E+03 -0.10178528291E+03  0.19643036930E+03  0.30634333970E+03  0.80151983489E+02 0.  0.
          5    1    5    5  501    0  0.20245309963E+01 -0.43976921781E+02  0.12846233630E+03  0.13587762959E+03  0.47000000000E+01 0. -1.
        -11    1    6    6    0    0  0.13412302929E+02 -0.17442289447E+02  0.58087963093E+02  0.62115495549E+02  0.00000000000E+00 0.  1.
         12    1    6    6    0    0  0.18274265501E+03 -0.84342993460E+02  0.13834240621E+03  0.24422784415E+03  0.00000000000E+00 0. -1.
         -5    1    3    3    0  503 -0.99659145143E+02  0.54019788706E+01 -0.52184530524E+03  0.53132451401E+03  0.47000000000E+01 0.  1.
         11    1    4    4    0    0 -0.26148916027E+02  0.23403509113E+02 -0.24385907416E+03  0.24637113893E+03  0.00000000000E+00 0. -1.
        -12    1    4    4    0    0 -0.72371427761E+02  0.11695671670E+03 -0.30780103920E+03  0.33713198731E+03  0.00000000000E+00 0.  1.
<mgrwt>
<rscale>  2 0.30053441E+03</rscale>
<asrwt>0</asrwt>
<pdfrwt beam="1">  1       21 0.62187377E-01 0.30071046E+03</pdfrwt>
<pdfrwt beam="2">  1       21 0.17735856E+00 0.30071046E+03</pdfrwt>
<totfact> 0.41027641E+02</totfact>
</mgrwt>
</event>
<event>
12    1  0.1019868E-001  0.2008475E+03  0.7546771E-02  0.1149094E+00
         21   -1    0    0  501  502  0.00000000000E+00  0.00000000000E+00  0.22462357053E+02  0.22462357053E+02  0.00000000000E+00 0.  1.
         21   -1    0    0  502  503 -0.00000000000E+00 -0.00000000000E+00 -0.17942874247E+04  0.17942874247E+04  0.00000000000E+00 0.  1.
         -6    2    1    2    0  503 -0.46464346719E+02  0.86475609901E+02 -0.90978016178E+03  0.93161638910E+03  0.17484904071E+03 0.  0.
        -24    2    3    3    0    0 -0.70919751379E+02  0.77537696801E+02 -0.88746333938E+03  0.89700304384E+03  0.77340651380E+02 0.  0.
          6    2    1    2  501    0  0.46464346719E+02 -0.86475609901E+02 -0.86204490591E+03  0.88513339270E+03  0.17522196336E+03 0.  0.
         24    2    5    5    0    0 -0.35402156235E+02 -0.74970939076E+02 -0.50834515971E+03  0.52187028940E+03  0.84022873001E+02 0.  0.
          5    1    5    5  501    0  0.81866502954E+02 -0.11504670825E+02 -0.35369974620E+03  0.36326310330E+03  0.47000000000E+01 0. -1.
        -13    1    6    6    0    0 -0.38547786184E+02 -0.86091776462E+01 -0.31419314438E+03  0.31666604133E+03  0.00000000000E+00 0.  1.
         14    1    6    6    0    0  0.31456299489E+01 -0.66361761430E+02 -0.19415201533E+03  0.20520424807E+03  0.00000000000E+00 0. -1.
         -5    1    3    3    0  503  0.24455404660E+02  0.89379131003E+01 -0.22316822401E+02  0.34613345255E+02  0.47000000000E+01 0.  1.
         13    1    4    4    0    0 -0.19202081946E+02 -0.12628353706E+02 -0.94431372750E+02  0.97187856381E+02  0.00000000000E+00 0. -1.
        -14    1    4    4    0    0 -0.51717669434E+02  0.90166050507E+02 -0.79303196663E+03  0.79981518746E+03  0.00000000000E+00 0.  1.
<mgrwt>
<rscale>  2 0.20076610E+03</rscale>
<asrwt>0</asrwt>
<pdfrwt beam="1">  1       21 0.34557472E-02 0.20084746E+03</pdfrwt>
<pdfrwt beam="2">  1       21 0.27604422E+00 0.20084746E+03</pdfrwt>
<totfact> 0.23292164E+04</totfact>
</mgrwt>
</event>
<event>
12    1  0.1019868E-001  0.2562801E+03  0.7546771E-02  0.1109631E+00
         21   -1    0    0  503  502  0.00000000000E+00  0.00000000000E+00  0.11813063685E+04  0.11813063685E+04  0.00000000000E+00 0.  1.
         21   -1    0    0  501  503 -0.00000000000E+00 -0.00000000000E+00 -0.56212066266E+02  0.56212066266E+02  0.00000000000E+00 0. -1.
          6    2    1    2  501    0 -0.18166840278E+03  0.34005212408E+02  0.48413075870E+03  0.54777923881E+03  0.17753799568E+03 0.  0.
         24    2    3    3    0    0 -0.50674283218E+02 -0.25315176192E+02  0.29110415269E+03  0.30703097092E+03  0.79483635194E+02 0.  0.
         -6    2    1    2    0  502  0.18166840278E+03 -0.34005212408E+02  0.64096354351E+03  0.68973919594E+03  0.17534574776E+03 0.  0.
        -24    2    5    5    0    0  0.13662659832E+03 -0.79483141630E+02  0.37042574597E+03  0.41169280395E+03  0.85389310677E+02 0.  0.
          5    1    3    3  501    0 -0.13099411956E+03  0.59320388600E+02  0.19302660601E+03  0.24074826789E+03  0.47000000000E+01 0. -1.
        -11    1    4    4    0    0 -0.36701158919E+02 -0.17206604680E+02  0.45662563140E+02  0.61058267115E+02  0.00000000000E+00 0.  1.
         12    1    4    4    0    0 -0.13973124299E+02 -0.81085715122E+01  0.24544158955E+03  0.24597270381E+03  0.00000000000E+00 0. -1.
         -5    1    5    5    0  502  0.45041804466E+02  0.45477929222E+02  0.27053779755E+03  0.27804639199E+03  0.47000000000E+01 0.  1.
         11    1    6    6    0    0  0.37308592859E+02 -0.46224281263E+02  0.61539969882E+02  0.85532351613E+02  0.00000000000E+00 0. -1.
        -12    1    6    6    0    0  0.99318005458E+02 -0.33258860367E+02  0.30888577608E+03  0.32616045233E+03  0.00000000000E+00 0.  1.
<mgrwt>
<rscale>  2 0.25590084E+03</rscale>
<asrwt>0</asrwt>
<pdfrwt beam="1">  1       21 0.18173942E+00 0.25628013E+03</pdfrwt>
<pdfrwt beam="2">  1       21 0.86480111E-02 0.25628013E+03</pdfrwt>
<totfact> 0.17788289E+04</totfact>
</mgrwt>
</event>
<event>
12    1  0.1019868E-001  0.2002893E+03  0.7546771E-02  0.1149520E+00
         21   -1    0    0  501  502  0.00000000000E+00  0.00000000000E+00  0.36549825368E+03  0.36549825368E+03  0.00000000000E+00 0.  1.
         21   -1    0    0  502  503 -0.00000000000E+00 -0.00000000000E+00 -0.37007775232E+03  0.37007775232E+03  0.00000000000E+00 0.  1.
         -6    2    1    2    0  503 -0.25510476262E+02  0.96988844976E+02 -0.31079307841E+03  0.36967633901E+03  0.17323578610E+03 0.  0.
        -24    2    3    3    0    0 -0.31969465191E+02  0.12136189233E+03 -0.16974316659E+03  0.22631340237E+03  0.81573634681E+02 0.  0.
          6    2    1    2  501    0  0.25510476262E+02 -0.96988844976E+02  0.30621357977E+03  0.36589966699E+03  0.17337297778E+03 0.  0.
         24    2    5    5    0    0  0.26730336838E+02 -0.24369953238E+02  0.27194213018E+03  0.28545332616E+03  0.78883925606E+02 0.  0.
          5    1    5    5  501    0 -0.12198605756E+01 -0.72618891738E+02  0.34271449586E+02  0.80446340835E+02  0.47000000000E+01 0. -1.
        -11    1    6    6    0    0 -0.66656705808E+01 -0.44906471081E+02  0.17712714907E+03  0.18285253415E+03  0.00000000000E+00 0.  1.
         12    1    6    6    0    0  0.33396007419E+02  0.20536517843E+02  0.94814981117E+02  0.10260079201E+03  0.00000000000E+00 0. -1.
         -5    1    3    3    0  503  0.64589889288E+01 -0.24373047357E+02 -0.14104991182E+03  0.14336293663E+03  0.47000000000E+01 0.  1.
         11    1    4    4    0    0 -0.13028837379E+01 -0.12367755102E+02 -0.12599983000E+02  0.17703627987E+02  0.00000000000E+00 0. -1.
        -12    1    4    4    0    0 -0.30666581453E+02  0.13372964743E+03 -0.15714318359E+03  0.20860977439E+03  0.00000000000E+00 0.  1.
<mgrwt>
<rscale>  2 0.20025962E+03</rscale>
<asrwt>0</asrwt>
<pdfrwt beam="1">  1       21 0.56230501E-01 0.20028932E+03</pdfrwt>
<pdfrwt beam="2">  1       21 0.56935038E-01 0.20028932E+03</pdfrwt>
<totfact> 0.85803683E+03</totfact>
</mgrwt>
</event>
<event>
12    1  0.1019868E-001  0.2209353E+03  0.7546771E-02  0.1133987E+00
         21   -1    0    0  503  502  0.00000000000E+00  0.00000000000E+00  0.51502607286E+03  0.51502607286E+03  0.00000000000E+00 0.  1.
         21   -1    0    0  501  503 -0.00000000000E+00 -0.00000000000E+00 -0.12003841198E+03  0.12003841198E+03  0.00000000000E+00 0.  1.
          6    2    1    2  501    0 -0.11443869602E+03  0.63720389505E+02  0.34682633711E+03  0.40894077958E+03  0.17259070052E+03 0.  0.
         24    2    3    3    0    0 -0.88341053221E+02  0.11011557069E+03  0.25065344101E+03  0.29891843758E+03  0.81212709828E+02 0.  0.
         -6    2    1    2    0  502  0.11443869602E+03 -0.63720389505E+02  0.48161323781E+02  0.22612370526E+03  0.17792108865E+03 0.  0.
        -24    2    5    5    0    0  0.89911975566E+02  0.26366369945E+02  0.50560296381E+02  0.13260884380E+03  0.79053229339E+02 0.  0.
          5    1    3    3  501    0 -0.26097642801E+02 -0.46395181187E+02  0.96172896093E+02  0.11002234200E+03  0.47000000000E+01 0. -1.
        -11    1    4    4    0    0 -0.69493441860E+02  0.10003461759E+03  0.13719048086E+03  0.18345978093E+03  0.00000000000E+00 0.  1.
         12    1    4    4    0    0 -0.18847611361E+02  0.10080953103E+02  0.11346296015E+03  0.11545865665E+03  0.00000000000E+00 0. -1.
         -5    1    5    5    0  502  0.24526720456E+02 -0.90086759450E+02 -0.23989725998E+01  0.93514861461E+02  0.47000000000E+01 0.  1.
         13    1    6    6    0    0  0.37018499212E+02  0.98501842810E+01  0.64908557806E+02  0.75369199882E+02  0.00000000000E+00 0. -1.
        -14    1    6    6    0    0  0.52893476354E+02  0.16516185664E+02 -0.14348261425E+02  0.57239643916E+02  0.00000000000E+00 0.  1.
<mgrwt>
<rscale>  2 0.21986011E+03</rscale>
<asrwt>0</asrwt>
<pdfrwt beam="1">  1       21 0.79234779E-01 0.22093532E+03</pdfrwt>
<pdfrwt beam="2">  1       21 0.18467448E-01 0.22093532E+03</pdfrwt>
<totfact> 0.37085131E+04</totfact>
</mgrwt>
</event>
<event>
12    1  0.1019868E-001  0.3211487E+03  0.7546771E-02  0.1075740E+00
         21   -1    0    0  503  502  0.00000000000E+00  0.00000000000E+00  0.20349821533E+03  0.20349821533E+03  0.00000000000E+00 0.  1.
         21   -1    0    0  501  503 -0.00000000000E+00 -0.00000000000E+00 -0.58899634456E+03  0.58899634456E+03  0.00000000000E+00 0. -1.
          6    2    1    2  501    0  0.31852042315E+02  0.25898130867E+03 -0.34676599807E+03  0.46901862012E+03  0.17789305149E+03 0.  0.
         24    2    3    3    0    0  0.55808219766E+02  0.24485290768E+03 -0.23372137342E+03  0.35250816001E+03  0.81048249143E+02 0.  0.
         -6    2    1    2    0  502 -0.31852042315E+02 -0.25898130867E+03 -0.38732131163E+02  0.32347593977E+03  0.18721814758E+03 0.  0.
        -24    2    5    5    0    0 -0.84751381660E+01 -0.27789576809E+03 -0.25369708804E+02  0.29023619316E+03  0.79344437762E+02 0.  0.
          5    1    3    3  501    0 -0.23956177451E+02  0.14128400982E+02 -0.11304462465E+03  0.11651046011E+03  0.47000000000E+01 0. -1.
        -13    1    4    4    0    0  0.13044176710E+02  0.20364530947E+03 -0.18930466059E+03  0.27834837369E+03  0.00000000000E+00 0.  1.
         14    1    4    4    0    0  0.42764043055E+02  0.41207598213E+02 -0.44416712826E+02  0.74159786321E+02  0.00000000000E+00 0. -1.
         -5    1    5    5    0  502 -0.23376904149E+02  0.18914459429E+02 -0.13362422359E+02  0.33239746605E+02  0.47000000000E+01 0.  1.
         13    1    6    6    0    0 -0.26235513685E+02 -0.10445328442E+03 -0.40886484260E+02  0.11519763626E+03  0.00000000000E+00 0. -1.
        -14    1    6    6    0    0  0.17760375519E+02 -0.17344248367E+03  0.15516775457E+02  0.17503855690E+03  0.00000000000E+00 0.  1.
<mgrwt>
<rscale>  2 0.31980398E+03</rscale>
<asrwt>0</asrwt>
<pdfrwt beam="1">  1       21 0.31307418E-01 0.32114873E+03</pdfrwt>
<pdfrwt beam="2">  1       21 0.90614823E-01 0.32114873E+03</pdfrwt>
<totfact> 0.94415938E+03</totfact>
</mgrwt>
</event>
<event>
12    1  0.1019868E-001  0.1835310E+03  0.7546771E-02  0.1165073E+00
         21   -1    0    0  503  502  0.00000000000E+00  0.00000000000E+00  0.35141424036E+02  0.35141424036E+02  0.00000000000E+00 0.  1.
         21   -1    0    0  501  503 -0.00000000000E+00 -0.00000000000E+00 -0.94474883343E+03  0.94474883343E+03  0.00000000000E+00 0. -1.
          6    2    1    2  501    0 -0.55584363836E+02 -0.28801455337E+02 -0.46729887051E+03  0.50204766602E+03  0.17252385123E+03 0.  0.
         24    2    3    3    0    0 -0.17963360193E+02  0.28002827813E+02 -0.12013914876E+03  0.14823411497E+03  0.80206590140E+02 0.  0.
         -6    2    1    2    0  502  0.55584363836E+02  0.28801455337E+02 -0.44230853888E+03  0.47784259144E+03  0.16963948036E+03 0.  0.
        -24    2    5    5    0    0  0.60239042270E+02  0.61234534625E+02 -0.42391254053E+03  0.43997342960E+03  0.80600039023E+02 0.  0.
          5    1    3    3  501    0 -0.37621003642E+02 -0.56804283150E+02 -0.34715972175E+03  0.35381355104E+03  0.47000000000E+01 0. -1.
        -11    1    4    4    0    0  0.13623353481E+02  0.11609599236E+02 -0.10969519506E+03  0.11114591479E+03  0.00000000000E+00 0.  1.
         12    1    4    4    0    0 -0.31586713675E+02  0.16393228578E+02 -0.10443953698E+02  0.37088200183E+02  0.00000000000E+00 0. -1.
         -5    1    5    5    0  502 -0.46546784345E+01 -0.32433079288E+02 -0.18395998352E+02  0.37869161844E+02  0.47000000000E+01 0.  1.
         13    1    6    6    0    0  0.33182296156E+02  0.24338418546E+01 -0.28248682984E+03  0.28443944417E+03  0.00000000000E+00 0. -1.
        -14    1    6    6    0    0  0.27056746115E+02  0.58800692770E+02 -0.14142571069E+03  0.15553398543E+03  0.00000000000E+00 0.  1.
<mgrwt>
<rscale>  2 0.18285003E+03</rscale>
<asrwt>0</asrwt>
<pdfrwt beam="1">  1       21 0.54063736E-02 0.18353099E+03</pdfrwt>
<pdfrwt beam="2">  1       21 0.14534596E+00 0.18353099E+03</pdfrwt>
<totfact> 0.76818837E+04</totfact>
</mgrwt>
</event>
<event>
12    1  0.1019868E-001  0.1821242E+03  0.7546771E-02  0.1166563E+00
         21   -1    0    0  501  502  0.00000000000E+00  0.00000000000E+00  0.12752584850E+03  0.12752584850E+03  0.00000000000E+00 0. -1.
         21   -1    0    0  502  503 -0.00000000000E+00 -0.00000000000E+00 -0.42374971727E+03  0.42374971727E+03  0.00000000000E+00 0. -1.
         -6    2    1    2    0  503 -0.46731933616E+02  0.30053138300E+02 -0.32103569622E+03  0.36746901993E+03  0.16994851461E+03 0.  0.
        -24    2    3    3    0    0 -0.67933393218E+02  0.55712563946E+02 -0.30981299465E+03  0.33202967675E+03  0.80875082056E+02 0.  0.
          6    2    1    2  501    0  0.46731933616E+02 -0.30053138300E+02  0.24811827452E+02  0.18380654585E+03  0.17344207902E+03 0.  0.
         24    2    5    5    0    0 -0.58883175557E+01  0.38033602792E+02  0.36552690726E+02  0.96831647077E+02  0.80987909292E+02 0.  0.
          5    1    5    5  501    0  0.52620251172E+02 -0.68086741091E+02 -0.11740863274E+02  0.86974898771E+02  0.47000000000E+01 0. -1.
        -11    1    6    6    0    0 -0.17453512919E+01  0.63248250930E+02  0.31899172940E+02  0.70858624959E+02  0.00000000000E+00 0.  1.
         12    1    6    6    0    0 -0.41429662639E+01 -0.25214648138E+02  0.46535177853E+01  0.25973022118E+02  0.00000000000E+00 0. -1.
         -5    1    3    3    0  503  0.21201459602E+02 -0.25659425647E+02 -0.11222701571E+02  0.35439343170E+02  0.47000000000E+01 0.  1.
         11    1    4    4    0    0 -0.59481461819E+02  0.76529691088E+02 -0.24915627746E+03  0.26734563493E+03  0.00000000000E+00 0. -1.
        -12    1    4    4    0    0 -0.84519313997E+01 -0.20817127142E+02 -0.60656717186E+02  0.64684041824E+02  0.00000000000E+00 0.  1.
<mgrwt>
<rscale>  2 0.18128748E+03</rscale>
<asrwt>0</asrwt>
<pdfrwt beam="1">  1       21 0.19619362E-01 0.18212419E+03</pdfrwt>
<pdfrwt beam="2">  1       21 0.65192263E-01 0.18212419E+03</pdfrwt>
<totfact> 0.52068695E+04</totfact>
</mgrwt>
</event>
<event>
12    1  0.1019868E-001  0.2435330E+03  0.7546771E-02  0.1117674E+00
         21   -1    0    0  503  502  0.00000000000E+00  0.00000000000E+00  0.55322097877E+02  0.55322097877E+02  0.00000000000E+00 0.  1.
         21   -1    0    0  501  503 -0.00000000000E+00 -0.00000000000E+00 -0.31402495285E+04  0.31402495285E+04  0.00000000000E+00 0. -1.
          6    2    1    2  501    0  0.16820252437E+03 -0.14836909574E+02 -0.28423303889E+04  0.28527443532E+04  0.17548812482E+03 0.  0.
         24    2    3    3    0    0  0.40639121026E+02  0.36743665137E+02 -0.81224482346E+03  0.81799560445E+03  0.79834331979E+02 0.  0.
         -6    2    1    2    0  502 -0.16820252437E+03  0.14836909574E+02 -0.24259704169E+03  0.34282727315E+03  0.17368071708E+03 0.  0.
        -24    2    5    5    0    0 -0.14451194925E+03 -0.14523233390E+02 -0.25344194918E+03  0.30329294170E+03  0.81603670852E+02 0.  0.
          5    1    3    3  501    0  0.12756340334E+03 -0.51580574711E+02 -0.20300855654E+04  0.20347487488E+04  0.47000000000E+01 0. -1.
        -11    1    4    4    0    0 -0.20516726433E+02  0.19939578340E+02 -0.38592253292E+03  0.38698155545E+03  0.00000000000E+00 0.  1.
         12    1    4    4    0    0  0.61155847459E+02  0.16804086797E+02 -0.42632229055E+03  0.43101404899E+03  0.00000000000E+00 0. -1.
         -5    1    5    5    0  502 -0.23690575122E+02  0.29360142964E+02  0.10844907491E+02  0.39534331447E+02  0.47000000000E+01 0.  1.
         11    1    6    6    0    0 -0.36599094437E+02 -0.38678220167E+02 -0.58013066945E+02  0.78746519702E+02  0.00000000000E+00 0. -1.
        -12    1    6    6    0    0 -0.10791285481E+03  0.24154986776E+02 -0.19542888224E+03  0.22454642200E+03  0.00000000000E+00 0.  1.
<mgrwt>
<rscale>  2 0.24320752E+03</rscale>
<asrwt>0</asrwt>
<pdfrwt beam="1">  1       21 0.85110892E-02 0.24353297E+03</pdfrwt>
<pdfrwt beam="2">  1       21 0.48311547E+00 0.24353297E+03</pdfrwt>
<totfact> 0.24708720E+02</totfact>
</mgrwt>
</event>
<event>
12    1  0.1019868E-001  0.3048798E+03  0.7546771E-02  0.1083015E+00
         21   -1    0    0  503  502  0.00000000000E+00  0.00000000000E+00  0.34238562446E+03  0.34238562446E+03  0.00000000000E+00 0. -1.
         21   -1    0    0  501  503 -0.00000000000E+00 -0.00000000000E+00 -0.28620544822E+03  0.28620544822E+03  0.00000000000E+00 0.  1.
          6    2    1    2  501    0  0.18263576055E+03  0.16932348532E+03 -0.46503441181E+02  0.30688375347E+03  0.17317275879E+03 0.  0.
         24    2    3    3    0    0  0.17286791537E+03  0.87603870381E+02  0.40106387872E+01  0.21020248051E+03  0.81309552465E+02 0.  0.
         -6    2    1    2    0  502 -0.18263576055E+03 -0.16932348532E+03  0.10268361742E+03  0.32170731921E+03  0.17585622035E+03 0.  0.
        -24    2    5    5    0    0 -0.70283202627E+02 -0.11659538567E+03  0.20316666492E+01  0.16184408091E+03  0.87493807362E+02 0.  0.
          5    1    3    3  501    0  0.97678451886E+01  0.81719614934E+02 -0.50514079968E+02  0.96681272952E+02  0.47000000000E+01 0. -1.
        -11    1    4    4    0    0  0.71419356826E+02  0.23609507429E+02 -0.36488682432E+02  0.83603572389E+02  0.00000000000E+00 0.  1.
         12    1    4    4    0    0  0.10144855854E+03  0.63994362952E+02  0.40499321219E+02  0.12659890812E+03  0.00000000000E+00 0. -1.
         -5    1    5    5    0  502 -0.11235255793E+03 -0.52728099645E+02  0.10065195077E+03  0.15986323830E+03  0.47000000000E+01 0.  1.
         13    1    6    6    0    0  0.45425092901E+01 -0.32879039669E+02  0.31499883895E+02  0.45759243062E+02  0.00000000000E+00 0. -1.
        -14    1    6    6    0    0 -0.74825711917E+02 -0.83716346001E+02 -0.29468217246E+02  0.11608483785E+03  0.00000000000E+00 0.  1.
<mgrwt>
<rscale>  2 0.30449406E+03</rscale>
<asrwt>0</asrwt>
<pdfrwt beam="1">  1       21 0.52674712E-01 0.30487977E+03</pdfrwt>
<pdfrwt beam="2">  1       21 0.44031607E-01 0.30487977E+03</pdfrwt>
<totfact> 0.15986731E+04</totfact>
</mgrwt>
</event>
<event>
12    1  0.1019868E-001  0.1875249E+03  0.7546771E-02  0.1160994E+00
         21   -1    0    0  503  502  0.00000000000E+00  0.00000000000E+00  0.16246104246E+03  0.16246104246E+03  0.00000000000E+00 0. -1.
         21   -1    0    0  501  503 -0.00000000000E+00 -0.00000000000E+00 -0.38437210395E+03  0.38437210395E+03  0.00000000000E+00 0.  1.
          6    2    1    2  501    0  0.61326333830E+01 -0.73173182191E+02 -0.29222424721E+03  0.34655951321E+03  0.17122079825E+03 0.  0.
         24    2    3    3    0    0  0.48639983956E+02 -0.99728665600E+02 -0.21554436255E+03  0.25483185509E+03  0.78538190470E+02 0.  0.
         -6    2    1    2    0  502 -0.61326333830E+01  0.73173182191E+02  0.70313185719E+02  0.20027363320E+03  0.17255045722E+03 0.  0.
        -24    2    5    5    0    0 -0.63120263376E+02  0.27084135132E+02  0.31163931289E+02  0.11704776971E+03  0.89505707955E+02 0.  0.
          5    1    3    3  501    0 -0.42507350573E+02  0.26555483409E+02 -0.76679884663E+02  0.91727658118E+02  0.47000000000E+01 0. -1.
        -13    1    4    4    0    0  0.46352387589E+02 -0.61852583004E+02 -0.19891187799E+03  0.21340154889E+03  0.00000000000E+00 0.  1.
         14    1    4    4    0    0  0.22875963669E+01 -0.37876082596E+02 -0.16632484552E+02  0.41430306206E+02  0.00000000000E+00 0. -1.
         -5    1    5    5    0  502  0.56987629993E+02  0.46089047059E+02  0.39149254430E+02  0.83225863489E+02  0.47000000000E+01 0.  1.
         13    1    6    6    0    0 -0.46834232450E+01 -0.21231322653E+02  0.34915254764E+02  0.41131235456E+02  0.00000000000E+00 0. -1.
        -14    1    6    6    0    0 -0.58436840131E+02  0.48315457785E+02 -0.37513234754E+01  0.75916534255E+02  0.00000000000E+00 0.  1.
<mgrwt>
<rscale>  2 0.18721845E+03</rscale>
<asrwt>0</asrwt>
<pdfrwt beam="1">  1       21 0.24994007E-01 0.18752489E+03</pdfrwt>
<pdfrwt beam="2">  1       21 0.59134169E-01 0.18752489E+03</pdfrwt>
<totfact> 0.40613485E+04</totfact>
</mgrwt>
</event>
<event>
12    1  0.1019868E-001  0.3700079E+03  0.7546771E-02  0.1054712E+00
         21   -1    0    0  501  502  0.00000000000E+00  0.00000000000E+00  0.70670168168E+03  0.70670168168E+03  0.00000000000E+00 0. -1.
         21   -1    0    0  502  503 -0.00000000000E+00 -0.00000000000E+00 -0.19546131320E+03  0.19546131320E+03  0.00000000000E+00 0.  1.
         -6    2    1    2    0  503  0.28505491434E+03 -0.15930325707E+03  0.21171131388E+03  0.42629512152E+03  0.17398855799E+03 0.  0.
        -24    2    3    3    0    0  0.12587259557E+03 -0.14565212060E+03  0.13323435780E+03  0.24823309085E+03  0.82521650140E+02 0.  0.
          6    2    1    2  501    0 -0.28505491434E+03  0.15930325707E+03  0.29952905460E+03  0.47586787335E+03  0.17348990298E+03 0.  0.
         24    2    5    5    0    0 -0.30094474623E+03  0.13337611324E+03  0.27534191700E+03  0.43672951404E+03  0.81009686493E+02 0.  0.
          5    1    5    5  501    0  0.15889831891E+02  0.25927143827E+02  0.24187137598E+02  0.39138359313E+02  0.47000000000E+01 0. -1.
        -11    1    6    6    0    0 -0.97631528332E+02  0.32374482335E+02  0.41791340404E+02  0.11102494568E+03  0.00000000000E+00 0.  1.
         12    1    6    6    0    0 -0.20331321790E+03  0.10100163091E+03  0.23355057660E+03  0.32570456835E+03  0.00000000000E+00 0. -1.
         -5    1    3    3    0  503  0.15918231876E+03 -0.13651136473E+02  0.78476956073E+02  0.17806203068E+03  0.47000000000E+01 0.  1.
         11    1    4    4    0    0  0.93390324065E+02 -0.74314991987E+02  0.11905244764E+03  0.16857626153E+03  0.00000000000E+00 0. -1.
        -12    1    4    4    0    0  0.32482271510E+02 -0.71337128610E+02  0.14181910162E+02  0.79656829316E+02  0.00000000000E+00 0.  1.
<mgrwt>
<rscale>  2 0.36994934E+03</rscale>
<asrwt>0</asrwt>
<pdfrwt beam="1">  1       21 0.10872333E+00 0.37000791E+03</pdfrwt>
<pdfrwt beam="2">  1       21 0.30070972E-01 0.37000791E+03</pdfrwt>
<totfact> 0.64622370E+03</totfact>
</mgrwt>
</event>
<event>
12    1  0.1019868E-001  0.1878874E+03  0.7546771E-02  0.1160447E+00
         21   -1    0    0  503  502  0.00000000000E+00  0.00000000000E+00  0.46596892106E+03  0.46596892106E+03  0.00000000000E+00 0.  1.
         21   -1    0    0  501  503 -0.00000000000E+00 -0.00000000000E+00 -0.11616033144E+03  0.11616033144E+03  0.00000000000E+00 0.  1.
          6    2    1    2  501    0  0.36066340131E+02 -0.63888277524E+02  0.29166112071E+01  0.18762231382E+03  0.17265900824E+03 0.  0.
         24    2    3    3    0    0 -0.29799599751E+01 -0.20766730842E+02 -0.59883471918E+02  0.10189004579E+03  0.79720850164E+02 0.  0.
         -6    2    1    2    0  502 -0.36066340131E+02  0.63888277524E+02  0.34689197841E+03  0.39450693868E+03  0.17297163667E+03 0.  0.
        -24    2    5    5    0    0 -0.66118363120E+02  0.18077371858E+02  0.11207732977E+03  0.15333941935E+03  0.79077306260E+02 0.  0.
          5    1    3    3  501    0  0.39046300106E+02 -0.43121546682E+02  0.62800083126E+02  0.85732268026E+02  0.47000000000E+01 0. -1.
        -13    1    4    4    0    0 -0.39794803147E+02 -0.11190145078E+02 -0.17361457214E+02  0.44835988904E+02  0.00000000000E+00 0.  1.
         14    1    4    4    0    0  0.36814843172E+02 -0.95765857631E+01 -0.42522014705E+02  0.57054056887E+02  0.00000000000E+00 0. -1.
         -5    1    5    5    0  502  0.30052022989E+02  0.45810905666E+02  0.23481464864E+03  0.24116751933E+03  0.47000000000E+01 0.  1.
         13    1    6    6    0    0 -0.54490285203E+02  0.46257150052E+02  0.61537173646E+02  0.94317224582E+02  0.00000000000E+00 0. -1.
        -14    1    6    6    0    0 -0.11628077917E+02 -0.28179778194E+02  0.50540156119E+02  0.59022194772E+02  0.00000000000E+00 0.  1.
<mgrwt>
<rscale>  2 0.18781543E+03</rscale>
<asrwt>0</asrwt>
<pdfrwt beam="1">  1       21 0.71687526E-01 0.18788741E+03</pdfrwt>
<pdfrwt beam="2">  1       21 0.17870820E-01 0.18788741E+03</pdfrwt>
<totfact> 0.50129731E+04</totfact>
</mgrwt>
</event>
<event>
12    1  0.1019868E-001  0.1901626E+03  0.7546771E-02  0.1158469E+00
         21   -1    0    0  503  502  0.00000000000E+00  0.00000000000E+00  0.23575346803E+03  0.23575346803E+03  0.00000000000E+00 0.  1.
         21   -1    0    0  501  503 -0.00000000000E+00 -0.00000000000E+00 -0.21417767538E+03  0.21417767538E+03  0.00000000000E+00 0.  1.
          6    2    1    2  501    0 -0.57438379416E+02 -0.52594205708E+02 -0.10959047387E+03  0.21948097812E+03  0.17348345711E+03 0.  0.
         24    2    3    3    0    0  0.24370950906E+02 -0.14879454931E+01 -0.31792860445E+02  0.95468176303E+02  0.86644269756E+02 0.  0.
         -6    2    1    2    0  502  0.57438379416E+02  0.52594205708E+02  0.13116626652E+03  0.23045016529E+03  0.17273497419E+03 0.  0.
        -24    2    5    5    0    0  0.14823108582E+02  0.24168573081E+01 -0.33470900216E+01  0.80617723252E+02  0.79135633841E+02 0.  0.
          5    1    3    3  501    0 -0.81809330322E+02 -0.51106260215E+02 -0.77797613423E+02  0.12401280182E+03  0.47000000000E+01 0. -1.
        -13    1    4    4    0    0 -0.12597086611E+02 -0.30165391066E+02  0.84394649429E+01  0.33761842037E+02  0.00000000000E+00 0.  1.
         14    1    4    4    0    0  0.36968037517E+02  0.28677445573E+02 -0.40232325388E+02  0.61706334266E+02  0.00000000000E+00 0. -1.
         -5    1    5    5    0  502  0.42615270835E+02  0.50177348400E+02  0.13451335654E+03  0.14983244204E+03  0.47000000000E+01 0.  1.
         13    1    6    6    0    0  0.58996990924E+01 -0.32375343148E+02  0.19305114151E+02  0.38153069676E+02  0.00000000000E+00 0. -1.
        -14    1    6    6    0    0  0.89234094891E+01  0.34792200456E+02 -0.22652204172E+02  0.42464653576E+02  0.00000000000E+00 0.  1.
<mgrwt>
<rscale>  2 0.18999176E+03</rscale>
<asrwt>0</asrwt>
<pdfrwt beam="1">  1       21 0.36269764E-01 0.19016264E+03</pdfrwt>
<pdfrwt beam="2">  1       21 0.32950412E-01 0.19016264E+03</pdfrwt>
<totfact> 0.65073137E+04</totfact>
</mgrwt>
</event>
<event>
12    1  0.1019868E-001  0.3395413E+03  0.7546771E-02  0.1067036E+00
         21   -1    0    0  503  502  0.00000000000E+00  0.00000000000E+00  0.57511100653E+03  0.57511100653E+03  0.00000000000E+00 0. -1.
         21   -1    0    0  501  503 -0.00000000000E+00 -0.00000000000E+00 -0.32947720321E+03  0.32947720321E+03  0.00000000000E+00 0. -1.
          6    2    1    2  501    0 -0.29014335838E+03  0.33123890316E+02 -0.16043415227E+03  0.37553616294E+03  0.17322797679E+03 0.  0.
         24    2    3    3    0    0 -0.91924210982E+02  0.47038492476E+02 -0.10449680733E+03  0.16905245146E+03  0.83644893837E+02 0.  0.
         -6    2    1    2    0  502  0.29014335838E+03 -0.33123890316E+02  0.40606795559E+03  0.52905204680E+03  0.17240801356E+03 0.  0.
        -24    2    5    5    0    0  0.89941704109E+02  0.32283187513E+02  0.11480270851E+03  0.16958532739E+03  0.80298238158E+02 0.  0.
          5    1    3    3  501    0 -0.19821914740E+03 -0.13914602160E+02 -0.55937344939E+02  0.20648371148E+03  0.47000000000E+01 0. -1.
        -11    1    4    4    0    0 -0.62627769767E+02  0.59629954798E+02 -0.36331608825E+02  0.93797413904E+02  0.00000000000E+00 0.  1.
         12    1    4    4    0    0 -0.29296441215E+02 -0.12591462322E+02 -0.68165198501E+02  0.75255037559E+02  0.00000000000E+00 0. -1.
         -5    1    5    5    0  502  0.20020165427E+03 -0.65407077829E+02  0.29126524709E+03  0.35946671941E+03  0.47000000000E+01 0.  1.
         11    1    6    6    0    0  0.77458771749E+02 -0.11344379255E+02  0.61295247917E+02  0.99426674885E+02  0.00000000000E+00 0. -1.
        -12    1    6    6    0    0  0.12482932359E+02  0.43627566768E+02  0.53507460588E+02  0.70158652503E+02  0.00000000000E+00 0.  1.
<mgrwt>
<rscale>  2 0.33943685E+03</rscale>
<asrwt>0</asrwt>
<pdfrwt beam="1">  1       21 0.88478617E-01 0.33954130E+03</pdfrwt>
<pdfrwt beam="2">  1       21 0.50688800E-01 0.33954130E+03</pdfrwt>
<totfact> 0.36935421E+03</totfact>
</mgrwt>
</event>
<event>
12    1  0.1019868E-001  0.2250573E+03  0.7546771E-02  0.1130582E+00
         21   -1    0    0  501  502  0.00000000000E+00  0.00000000000E+00  0.50120751563E+03  0.50120751563E+03  0.00000000000E+00 0.  1.
         21   -1    0    0  502  503 -0.00000000000E+00 -0.00000000000E+00 -0.10311010770E+03  0.10311010770E+03  0.00000000000E+00 0.  1.
         -6    2    1    2    0  503 -0.11079450530E+03 -0.84728688553E+02  0.25021873328E+03  0.33502430169E+03  0.17371670952E+03 0.  0.
        -24    2    3    3    0    0 -0.32956958483E+01  0.91781814415E+00  0.65988594864E+02  0.10512399276E+03  0.81760963795E+02 0.  0.
          6    2    1    2  501    0  0.11079450530E+03  0.84728688553E+02  0.14787867465E+03  0.26929332164E+03  0.17662507636E+03 0.  0.
         24    2    5    5    0    0 -0.18182958725E+01  0.19275324155E+02  0.88770422313E+02  0.12617916653E+03  0.87556552402E+02 0.  0.
          5    1    5    5  501    0  0.11261280117E+03  0.65453364398E+02  0.59108252335E+02  0.14311415511E+03  0.47000000000E+01 0. -1.
        -11    1    6    6    0    0  0.13883798937E+02  0.49614496082E+02  0.34338407995E+02  0.61915138359E+02  0.00000000000E+00 0.  1.
         12    1    6    6    0    0 -0.15702094810E+02 -0.30339171927E+02  0.54432014317E+02  0.64264028175E+02  0.00000000000E+00 0. -1.
         -5    1    3    3    0  503 -0.10749880945E+03 -0.85646506697E+02  0.18423013842E+03  0.22990030892E+03  0.47000000000E+01 0.  1.
         11    1    4    4    0    0 -0.13708492741E+02 -0.28698129218E+02  0.66513774206E+02  0.73726437273E+02  0.00000000000E+00 0. -1.
        -12    1    4    4    0    0  0.10412796893E+02  0.29615947362E+02 -0.52517934249E+00  0.31397555488E+02  0.00000000000E+00 0.  1.
<mgrwt>
<rscale>  2 0.22448634E+03</rscale>
<asrwt>0</asrwt>
<pdfrwt beam="1">  1       21 0.77108847E-01 0.22505731E+03</pdfrwt>
<pdfrwt beam="2">  1       21 0.15863094E-01 0.22505731E+03</pdfrwt>
<totfact> 0.52119723E+04</totfact>
</mgrwt>
</event>
<event>
12    1  0.1019868E-001  0.3069820E+03  0.7546771E-02  0.1081996E+00
         21   -1    0    0  501  502  0.00000000000E+00  0.00000000000E+00  0.64781296333E+03  0.64781296333E+03  0.00000000000E+00 0.  1.
         21   -1    0    0  502  503 -0.00000000000E+00 -0.00000000000E+00 -0.15444071630E+03  0.15444071630E+03  0.00000000000E+00 0. -1.
         -6    2    1    2    0  503 -0.24826094120E+03  0.42160053016E+02  0.14661973432E+03  0.34019887491E+03  0.17557608892E+03 0.  0.
        -24    2    3    3    0    0 -0.22515064940E+03  0.73004776525E+02  0.16234973338E+03  0.29830609002E+03  0.81280840862E+02 0.  0.
          6    2    1    2  501    0  0.24826094120E+03 -0.42160053016E+02  0.34675251272E+03  0.46205480473E+03  0.17276102715E+03 0.  0.
         24    2    5    5    0    0  0.26289362199E+03 -0.59543420600E+02  0.30955270953E+03  0.41821176454E+03  0.80123183937E+02 0.  0.
          5    1    5    5  501    0 -0.14632680791E+02  0.17383367585E+02  0.37199803192E+02  0.43843040192E+02  0.47000000000E+01 0. -1.
        -11    1    6    6    0    0  0.17272917808E+03  0.61963746658E+00  0.18519083217E+03  0.25324177624E+03  0.00000000000E+00 0.  1.
         12    1    6    6    0    0  0.90164443909E+02 -0.60163058067E+02  0.12436187736E+03  0.16496998830E+03  0.00000000000E+00 0. -1.
         -5    1    3    3    0  503 -0.23110291797E+02 -0.30844723510E+02 -0.15729999063E+02  0.41892784890E+02  0.47000000000E+01 0.  1.
         13    1    4    4    0    0 -0.68967328770E+02 -0.11762734450E+02  0.27268792889E+02  0.75089556032E+02  0.00000000000E+00 0. -1.
        -14    1    4    4    0    0 -0.15618332063E+03  0.84767510976E+02  0.13508094049E+03  0.22321653398E+03  0.00000000000E+00 0.  1.
<mgrwt>
<rscale>  2 0.30658085E+03</rscale>
<asrwt>0</asrwt>
<pdfrwt beam="1">  1       21 0.99663531E-01 0.30698197E+03</pdfrwt>
<pdfrwt beam="2">  1       21 0.23760111E-01 0.30698197E+03</pdfrwt>
<totfact> 0.12977353E+04</totfact>
</mgrwt>
</event>
<event>
12    1  0.1019868E-001  0.1799580E+03  0.7546771E-02  0.1167885E+00
         21   -1    0    0  503  502  0.00000000000E+00  0.00000000000E+00  0.44068754170E+02  0.44068754170E+02  0.00000000000E+00 0. -1.
         21   -1    0    0  501  503 -0.00000000000E+00 -0.00000000000E+00 -0.14644198230E+04  0.14644198230E+04  0.00000000000E+00 0. -1.
          6    2    1    2  501    0  0.48744937259E+02  0.13908349534E+00 -0.12426219068E+04  0.12555606474E+04  0.17305273111E+03 0.  0.
         24    2    3    3    0    0 -0.32820319869E+02 -0.22520069765E+02 -0.77722489853E+03  0.78250378642E+03  0.81543276417E+02 0.  0.
         -6    2    1    2    0  502 -0.48744937259E+02 -0.13908349534E+00 -0.17772916206E+03  0.25292792982E+03  0.17323046609E+03 0.  0.
        -24    2    5    5    0    0 -0.41101483058E+02 -0.52819148000E+02 -0.52227583458E+02  0.11652284260E+03  0.79816402249E+02 0.  0.
          5    1    3    3  501    0  0.81565257128E+02  0.22659153261E+02 -0.46539700829E+03  0.47305686098E+03  0.47000000000E+01 0. -1.
        -13    1    4    4    0    0 -0.82869262105E+00 -0.37340483898E+02 -0.16118422397E+03  0.16545498640E+03  0.00000000000E+00 0.  1.
         14    1    4    4    0    0 -0.31991627248E+02  0.14820414133E+02 -0.61604067456E+03  0.61704880002E+03  0.00000000000E+00 0. -1.
         -5    1    5    5    0  502 -0.76434542007E+01  0.52680064505E+02 -0.12550157860E+03  0.13640508722E+03  0.47000000000E+01 0.  1.
         11    1    6    6    0    0 -0.15391441596E+02 -0.48597921111E+01  0.20247245647E+02  0.25893339106E+02  0.00000000000E+00 0. -1.
        -12    1    6    6    0    0 -0.25710041463E+02 -0.47959355889E+02 -0.72474829105E+02  0.90629503492E+02  0.00000000000E+00 0.  1.
<mgrwt>
<rscale>  2 0.17991522E+03</rscale>
<asrwt>0</asrwt>
<pdfrwt beam="1">  1       21 0.67798079E-02 0.17995800E+03</pdfrwt>
<pdfrwt beam="2">  1       21 0.22529537E+00 0.17995800E+03</pdfrwt>
<totfact> 0.15091382E+04</totfact>
</mgrwt>
</event>
<event>
12    1  0.1019868E-001  0.2189775E+03  0.7546771E-02  0.1135925E+00
         21   -1    0    0  501  502  0.00000000000E+00  0.00000000000E+00  0.53722933240E+03  0.53722933240E+03  0.00000000000E+00 0. -1.
         21   -1    0    0  502  503 -0.00000000000E+00 -0.00000000000E+00 -0.94193909655E+02  0.94193909655E+02  0.00000000000E+00 0. -1.
         -6    2    1    2    0  503 -0.44970568926E+02  0.12446644053E+03  0.31462755589E+03  0.38332966108E+03  0.17446169567E+03 0.  0.
        -24    2    3    3    0    0 -0.72245705282E+02  0.14639749885E+03  0.27544447372E+03  0.33058207051E+03  0.82238541099E+02 0.  0.
          6    2    1    2  501    0  0.44970568926E+02 -0.12446644053E+03  0.12840786685E+03  0.24809358097E+03  0.16597469012E+03 0.  0.
         24    2    5    5    0    0  0.22078610422E+02 -0.96395272954E+01  0.91043513635E+02  0.12509989552E+03  0.82344866025E+02 0.  0.
          5    1    5    5  501    0  0.22891958503E+02 -0.11482691324E+03  0.37364353218E+02  0.12299368544E+03  0.47000000000E+01 0. -1.
        -13    1    6    6    0    0  0.25925727836E+02  0.55493432175E+01 -0.56807674543E+01  0.27114750466E+02  0.00000000000E+00 0.  1.
         14    1    6    6    0    0 -0.38471174141E+01 -0.15188870513E+02  0.96724281089E+02  0.97985145058E+02  0.00000000000E+00 0. -1.
         -5    1    3    3    0  503  0.27275136357E+02 -0.21931058323E+02  0.39183082172E+02  0.52747590570E+02  0.47000000000E+01 0.  1.
         11    1    4    4    0    0 -0.32061529459E+02  0.13432488049E+03  0.18481711002E+03  0.23071298044E+03  0.00000000000E+00 0. -1.
        -12    1    4    4    0    0 -0.40184175824E+02  0.12072618366E+02  0.90627363696E+02  0.99869090069E+02  0.00000000000E+00 0.  1.
<mgrwt>
<rscale>  2 0.21728297E+03</rscale>
<asrwt>0</asrwt>
<pdfrwt beam="1">  1       21 0.82650664E-01 0.21897746E+03</pdfrwt>
<pdfrwt beam="2">  1       21 0.14491371E-01 0.21897746E+03</pdfrwt>
<totfact> 0.52680674E+04</totfact>
</mgrwt>
</event>
<event>
12    1  0.1019868E-001  0.2726300E+03  0.7546771E-02  0.1099819E+00
         21   -1    0    0  501  502  0.00000000000E+00  0.00000000000E+00  0.14500029558E+04  0.14500029558E+04  0.00000000000E+00 0.  1.
         21   -1    0    0  502  503 -0.00000000000E+00 -0.00000000000E+00 -0.78507082055E+02  0.78507082055E+02  0.00000000000E+00 0.  1.
         -6    2    1    2    0  503 -0.21094961497E+03  0.87945163123E+01  0.23532617510E+03  0.36014653788E+03  0.17248198888E+03 0.  0.
        -24    2    3    3    0    0 -0.63058919691E+02 -0.30679574328E+02  0.45884136077E+02  0.11654802037E+03  0.80996441133E+02 0.  0.
          6    2    1    2  501    0  0.21094961497E+03 -0.87945163123E+01  0.11361696986E+04  0.11683634999E+04  0.17208893161E+03 0.  0.
         24    2    5    5    0    0  0.22079756274E+03 -0.21688258694E+02  0.11210912857E+04  0.11457210795E+04  0.81296843883E+02 0.  0.
          5    1    5    5  501    0 -0.98479477699E+01  0.12893742382E+02  0.15078412885E+02  0.22642420432E+02  0.47000000000E+01 0. -1.
        -13    1    6    6    0    0  0.11964457027E+03 -0.47715643205E+02  0.70855297266E+03  0.72016589815E+03  0.00000000000E+00 0.  1.
         14    1    6    6    0    0  0.10115299246E+03  0.26027384511E+02  0.41253831307E+03  0.42555518135E+03  0.00000000000E+00 0. -1.
         -5    1    3    3    0  503 -0.14789069528E+03  0.39474090640E+02  0.18944203902E+03  0.24359851750E+03  0.47000000000E+01 0.  1.
         13    1    4    4    0    0 -0.11298795278E+02 -0.87055429727E+01  0.57403325958E+02  0.59148889121E+02  0.00000000000E+00 0. -1.
        -14    1    4    4    0    0 -0.51760124413E+02 -0.21974031355E+02 -0.11519189881E+02  0.57399131254E+02  0.00000000000E+00 0.  1.
<mgrwt>
<rscale>  2 0.27256786E+03</rscale>
<asrwt>0</asrwt>
<pdfrwt beam="1">  1       21 0.22307736E+00 0.27263001E+03</pdfrwt>
<pdfrwt beam="2">  1       21 0.12078014E-01 0.27263001E+03</pdfrwt>
<totfact> 0.52311020E+03</totfact>
</mgrwt>
</event>
<event>
12    1  0.1019868E-001  0.2671925E+03  0.7546771E-02  0.1102934E+00
         21   -1    0    0  503  502  0.00000000000E+00  0.00000000000E+00  0.10017746570E+04  0.10017746570E+04  0.00000000000E+00 0. -1.
         21   -1    0    0  501  503 -0.00000000000E+00 -0.00000000000E+00 -0.30923715627E+03  0.30923715627E+03  0.00000000000E+00 0.  1.
          6    2    1    2  501    0 -0.20119035561E+03 -0.35677849442E+02 -0.22888561039E+03  0.35163057007E+03  0.17177009937E+03 0.  0.
         24    2    3    3    0    0 -0.14497123480E+03 -0.89457951333E+02 -0.15604867451E+03  0.24495255860E+03  0.81432077045E+02 0.  0.
         -6    2    1    2    0  502  0.20119035561E+03  0.35677849442E+02  0.92142311114E+03  0.95938124322E+03  0.17216664012E+03 0.  0.
        -24    2    5    5    0    0  0.11731433939E+03  0.76510163019E+02  0.72006493072E+03  0.73741351865E+03  0.75290993919E+02 0.  0.
          5    1    3    3  501    0 -0.56219120806E+02  0.53780101891E+02 -0.72836935880E+02  0.10667801147E+03  0.47000000000E+01 0. -1.
        -11    1    4    4    0    0 -0.14689572323E+03 -0.64613198497E+02 -0.11688400207E+03  0.19853233707E+03  0.00000000000E+00 0.  1.
         12    1    4    4    0    0  0.19244884319E+01 -0.24844752836E+02 -0.39164672439E+02  0.46420221525E+02  0.00000000000E+00 0. -1.
         -5    1    5    5    0  502  0.83876016218E+02 -0.40832313577E+02  0.20135818042E+03  0.22196772457E+03  0.47000000000E+01 0.  1.
         11    1    6    6    0    0  0.31174537440E+02 -0.13842718839E+02  0.16360760765E+03  0.16712546763E+03  0.00000000000E+00 0. -1.
        -12    1    6    6    0    0  0.86139801949E+02  0.90352881858E+02  0.55645732307E+03  0.57028805102E+03  0.00000000000E+00 0.  1.
<mgrwt>
<rscale>  2 0.26712862E+03</rscale>
<asrwt>0</asrwt>
<pdfrwt beam="1">  1       21 0.15411918E+00 0.26719248E+03</pdfrwt>
<pdfrwt beam="2">  1       21 0.47574948E-01 0.26719248E+03</pdfrwt>
<totfact> 0.10999493E+03</totfact>
</mgrwt>
</event>
<event>
11    1  0.1019868E-001  0.2191567E+03  0.7546771E-02  0.1134689E+00
         21   -1    0    0  503  502  0.00000000000E+00  0.00000000000E+00  0.21989090733E+03  0.21989090733E+03  0.00000000000E+00 0. -1.
         21   -1    0    0  501  503 -0.00000000000E+00 -0.00000000000E+00 -0.21867887441E+03  0.21867887441E+03  0.00000000000E+00 0.  1.
          6    2    1    2  501    0 -0.45522645268E+02 -0.12587154373E+03 -0.15544404192E+02  0.21877346400E+03  0.17234919001E+03 0.  0.
         -6    2    1    2    0  502  0.45522645268E+02  0.12587154373E+03  0.16756437116E+02  0.21979631773E+03  0.17353295465E+03 0.  0.
        -24    2    4    4    0    0  0.41741580926E+02 -0.23504614697E+01 -0.39531805199E+00  0.90291677772E+02  0.80028410901E+02 0.  0.
          5    1    3    3  501    0  0.15044129131E+02 -0.13338905711E+03  0.17101710451E+02  0.13540134740E+03  0.47000000000E+01 0. -1.
        -13    1    3    3    0    0 -0.53527036125E+02 -0.70344217194E+01 -0.38358840549E+02  0.66227089122E+02  0.00000000000E+00 0.  1.
         14    1    3    3    0    0 -0.70397382746E+01  0.14551935097E+02  0.57127259060E+01  0.17145027481E+02  0.00000000000E+00 0. -1.
         -5    1    4    4    0  502  0.37810643428E+01  0.12822200520E+03  0.17151755168E+02  0.12950463996E+03  0.47000000000E+01 0.  1.
         13    1    5    5    0    0  0.11250261080E+02 -0.26430909614E+02  0.29569813542E+02  0.41225419711E+02  0.00000000000E+00 0. -1.
        -14    1    5    5    0    0  0.30491319845E+02  0.24080448144E+02 -0.29965131594E+02  0.49066258062E+02  0.00000000000E+00 0.  1.
<mgrwt>
<rscale>  2 0.21892225E+03</rscale>
<asrwt>0</asrwt>
<pdfrwt beam="1">  1       21 0.33829370E-01 0.21915666E+03</pdfrwt>
<pdfrwt beam="2">  1       21 0.33642904E-01 0.21915666E+03</pdfrwt>
<totfact> 0.70822661E+04</totfact>
</mgrwt>
</event>
<event>
12    1  0.1019868E-001  0.2270140E+03  0.7546771E-02  0.1129056E+00
         21   -1    0    0  501  502  0.00000000000E+00  0.00000000000E+00  0.10619776866E+03  0.10619776866E+03  0.00000000000E+00 0. -1.
         21   -1    0    0  502  503 -0.00000000000E+00 -0.00000000000E+00 -0.71246259023E+03  0.71246259023E+03  0.00000000000E+00 0.  1.
         -6    2    1    2    0  503  0.14274598448E+02  0.14562881073E+03 -0.53531275950E+03  0.58081678787E+03  0.17139683755E+03 0.  0.
        -24    2    3    3    0    0  0.12716447758E+01  0.14208218901E+02 -0.11240769451E+03  0.13774655332E+03  0.78327087274E+02 0.  0.
          6    2    1    2  501    0 -0.14274598448E+02 -0.14562881073E+03 -0.70952062080E+02  0.23784357102E+03  0.17356224960E+03 0.  0.
         24    2    5    5    0    0 -0.27463436211E+02 -0.14764528113E+02 -0.21701065096E+02  0.97318994483E+02  0.89598096196E+02 0.  0.
          5    1    5    5  501    0  0.13188837762E+02 -0.13086428261E+03 -0.49250996984E+02  0.14052457653E+03  0.47000000000E+01 0. -1.
        -13    1    6    6    0    0  0.21325544995E+02 -0.25321428574E+01 -0.38671425150E+02  0.44234259799E+02  0.00000000000E+00 0.  1.
         14    1    6    6    0    0 -0.48788981206E+02 -0.12232385255E+02  0.16970360054E+02  0.53084734684E+02  0.00000000000E+00 0. -1.
         -5    1    3    3    0  503  0.13002953673E+02  0.13142059183E+03 -0.42290506499E+03  0.44307023456E+03  0.47000000000E+01 0.  1.
         13    1    4    4    0    0  0.25247800324E+02 -0.20201504776E+02 -0.74499627778E+02  0.81214202917E+02  0.00000000000E+00 0. -1.
        -14    1    4    4    0    0 -0.23976155548E+02  0.34409723677E+02 -0.37908066734E+02  0.56532350401E+02  0.00000000000E+00 0.  1.
<mgrwt>
<rscale>  2 0.22660009E+03</rscale>
<asrwt>0</asrwt>
<pdfrwt beam="1">  1       21 0.16338118E-01 0.22701403E+03</pdfrwt>
<pdfrwt beam="2">  1       21 0.10960963E+00 0.22701403E+03</pdfrwt>
<totfact> 0.21660605E+04</totfact>
</mgrwt>
</event>
<event>
12    1  0.1019868E-001  0.2344083E+03  0.7546771E-02  0.1123765E+00
         21   -1    0    0  503  502  0.00000000000E+00  0.00000000000E+00  0.10546350394E+04  0.10546350394E+04  0.00000000000E+00 0. -1.
         21   -1    0    0  501  503 -0.00000000000E+00 -0.00000000000E+00 -0.11116744120E+03  0.11116744120E+03  0.00000000000E+00 0. -1.
          6    2    1    2  501    0  0.76611396180E+02  0.13828644057E+03  0.45443104394E+02  0.23768866450E+03  0.17157616334E+03 0.  0.
         24    2    3    3    0    0  0.13015826237E+02  0.23752636860E+02 -0.25224539683E+02  0.88764540773E+02  0.80680027306E+02 0.  0.
         -6    2    1    2    0  502 -0.76611396180E+02 -0.13828644057E+03  0.89802449376E+03  0.92811381605E+03  0.17307460382E+03 0.  0.
        -24    2    5    5    0    0 -0.78869938509E+02 -0.10580413859E+03  0.39702625561E+03  0.42603660527E+03  0.80388795530E+02 0.  0.
          5    1    3    3  501    0  0.63595569943E+02  0.11453380371E+03  0.70667644076E+02  0.14892412373E+03  0.47000000000E+01 0. -1.
        -11    1    4    4    0    0 -0.73934487783E+01 -0.27176067598E+02  0.49783555314E+00  0.28168236990E+02  0.00000000000E+00 0.  1.
         12    1    4    4    0    0  0.20409275016E+02  0.50928704458E+02 -0.25722375236E+02  0.60596303783E+02  0.00000000000E+00 0. -1.
         -5    1    5    5    0  502  0.22585423297E+01 -0.32482301980E+02  0.50099823815E+03  0.50207721078E+03  0.47000000000E+01 0.  1.
         11    1    6    6    0    0 -0.89757842649E+02 -0.61300899501E+02  0.28187568702E+03  0.30210622888E+03  0.00000000000E+00 0. -1.
        -12    1    6    6    0    0  0.10887904139E+02 -0.44503239092E+02  0.11515056859E+03  0.12393037639E+03  0.00000000000E+00 0.  1.
<mgrwt>
<rscale>  2 0.23413179E+03</rscale>
<asrwt>0</asrwt>
<pdfrwt beam="1">  1       21 0.16225154E+00 0.23440833E+03</pdfrwt>
<pdfrwt beam="2">  1       21 0.17102684E-01 0.23440833E+03</pdfrwt>
<totfact> 0.72437124E+03</totfact>
</mgrwt>
</event>
<event>
12    1  0.1019868E-001  0.1857151E+03  0.7546771E-02  0.1162889E+00
         21   -1    0    0  501  502  0.00000000000E+00  0.00000000000E+00  0.43006576377E+03  0.43006576377E+03  0.00000000000E+00 0.  1.
         21   -1    0    0  502  503 -0.00000000000E+00 -0.00000000000E+00 -0.14827352711E+03  0.14827352711E+03  0.00000000000E+00 0.  1.
         -6    2    1    2    0  503  0.52685273886E+02  0.39535572089E+02 -0.56817104451E+02  0.19214454075E+03  0.17132583470E+03 0.  0.
        -24    2    3    3    0    0  0.51380765980E+02 -0.50884556467E+01  0.24866375621E+02  0.98938926599E+02  0.80651714591E+02 0.  0.
          6    2    1    2  501    0 -0.52685273886E+02 -0.39535572089E+02  0.33860934111E+03  0.38619475014E+03  0.17364129578E+03 0.  0.
         24    2    5    5    0    0 -0.98061072966E+02 -0.40141123132E+02  0.19771651671E+03  0.23809948417E+03  0.79826434123E+02 0.  0.
          5    1    5    5  501    0  0.45375799080E+02  0.60555104322E+00  0.14089282440E+03  0.14809526597E+03  0.47000000000E+01 0. -1.
        -13    1    6    6    0    0 -0.35814089319E+02 -0.57551928477E+02  0.10838177742E+03  0.12783381064E+03  0.00000000000E+00 0.  1.
         14    1    6    6    0    0 -0.62246983647E+02  0.17410805344E+02  0.89334739287E+02  0.11026567353E+03  0.00000000000E+00 0. -1.
         -5    1    3    3    0  503  0.13045079060E+01  0.44624027736E+02 -0.81683480071E+02  0.93205614148E+02  0.47000000000E+01 0.  1.
         13    1    4    4    0    0  0.53489016106E+02  0.95959601035E+01 -0.15022169403E+02  0.56381050610E+02  0.00000000000E+00 0. -1.
        -14    1    4    4    0    0 -0.21082501262E+01 -0.14684415750E+02  0.39888545024E+02  0.42557875988E+02  0.00000000000E+00 0.  1.
<mgrwt>
<rscale>  2 0.18517195E+03</rscale>
<asrwt>0</asrwt>
<pdfrwt beam="1">  1       21 0.66163963E-01 0.18571510E+03</pdfrwt>
<pdfrwt beam="2">  1       21 0.22811312E-01 0.18571510E+03</pdfrwt>
<totfact> 0.37933315E+04</totfact>
</mgrwt>
</event>
<event>
12    1  0.1019868E-001  0.2143446E+03  0.7546771E-02  0.1138519E+00
         21   -1    0    0  503  502  0.00000000000E+00  0.00000000000E+00  0.90902951649E+02  0.90902951649E+02  0.00000000000E+00 0.  1.
         21   -1    0    0  501  503 -0.00000000000E+00 -0.00000000000E+00 -0.80230072731E+03  0.80230072731E+03  0.00000000000E+00 0. -1.
          6    2    1    2  501    0  0.59563157880E+02  0.10988079484E+03 -0.63023410524E+03  0.66568657509E+03  0.17413221990E+03 0.  0.
         24    2    3    3    0    0  0.88955262347E+02  0.35772888728E+02 -0.47783125710E+03  0.49362671437E+03  0.78433950627E+02 0.  0.
         -6    2    1    2    0  502 -0.59563157880E+02 -0.10988079484E+03 -0.81163670424E+02  0.22751710386E+03  0.17191548011E+03 0.  0.
        -24    2    5    5    0    0 -0.31660684715E+02 -0.29237040468E+02 -0.10473920240E+03  0.13886125896E+03  0.80342673767E+02 0.  0.
          5    1    3    3  501    0 -0.29392104467E+02  0.74107906110E+02 -0.15240284814E+03  0.17205986073E+03  0.47000000000E+01 0. -1.
        -11    1    4    4    0    0  0.48081817849E+02 -0.97354025176E+01 -0.10605098370E+03  0.11684797993E+03  0.00000000000E+00 0.  1.
         12    1    4    4    0    0  0.40873444498E+02  0.45508291246E+02 -0.37178027340E+03  0.37677873444E+03  0.00000000000E+00 0. -1.
         -5    1    5    5    0  502 -0.27902473165E+02 -0.80643754369E+02  0.23575531977E+02  0.88655844903E+02  0.47000000000E+01 0.  1.
         11    1    6    6    0    0 -0.19559088621E+02 -0.33039429791E+02 -0.11581997625E+03  0.12201814934E+03  0.00000000000E+00 0. -1.
        -12    1    6    6    0    0 -0.12101596094E+02  0.38023893224E+01  0.11080773851E+02  0.16843109621E+02  0.00000000000E+00 0.  1.
<mgrwt>
<rscale>  2 0.21389390E+03</rscale>
<asrwt>0</asrwt>
<pdfrwt beam="1">  1       21 0.13985070E-01 0.21434456E+03</pdfrwt>
<pdfrwt beam="2">  1       21 0.12343088E+00 0.21434456E+03</pdfrwt>
<totfact> 0.21640146E+04</totfact>
</mgrwt>
</event>
<event>
12    1  0.1019868E-001  0.1719140E+03  0.7546771E-02  0.1176121E+00
         21   -1    0    0  501  502  0.00000000000E+00  0.00000000000E+00  0.14063328501E+03  0.14063328501E+03  0.00000000000E+00 0. -1.
         21   -1    0    0  502  503 -0.00000000000E+00 -0.00000000000E+00 -0.21144028933E+03  0.21144028933E+03  0.00000000000E+00 0. -1.
         -6    2    1    2    0  503  0.12585719706E+01  0.35962790231E+01 -0.54418361568E+02  0.17938016105E+03  0.17088407437E+03 0.  0.
        -24    2    3    3    0    0 -0.54586656578E+02  0.87162109684E+01 -0.71368956251E+02  0.12060673240E+03  0.79979876055E+02 0.  0.
          6    2    1    2  501    0 -0.12585719706E+01 -0.35962790231E+01 -0.16388642750E+02  0.17269341329E+03  0.17187178406E+03 0.  0.
         24    2    5    5    0    0 -0.55566683654E+02  0.11524386249E+02 -0.46138176819E+02  0.10877838931E+03  0.80520424804E+02 0.  0.
          5    1    5    5  501    0  0.54308111683E+02 -0.15120665272E+02  0.29749534069E+02  0.63915023978E+02  0.47000000000E+01 0. -1.
        -13    1    6    6    0    0 -0.55464385955E+02 -0.25516828128E+02 -0.33505570029E+02  0.69642155697E+02  0.00000000000E+00 0.  1.
         14    1    6    6    0    0 -0.10229769833E+00  0.37041214377E+02 -0.12632606789E+02  0.39136233616E+02  0.00000000000E+00 0. -1.
         -5    1    3    3    0  503  0.55845228548E+02 -0.51199319453E+01  0.16950594683E+02  0.58773428646E+02  0.47000000000E+01 0.  1.
         11    1    4    4    0    0 -0.10389852869E+02 -0.16928370639E+01  0.17721712302E+02  0.20612467753E+02  0.00000000000E+00 0. -1.
        -12    1    4    4    0    0 -0.44196803708E+02  0.10409048032E+02 -0.89090668553E+02  0.99994264646E+02  0.00000000000E+00 0.  1.
<mgrwt>
<rscale>  2 0.17166661E+03</rscale>
<asrwt>0</asrwt>
<pdfrwt beam="1">  1       21 0.21635890E-01 0.17191401E+03</pdfrwt>
<pdfrwt beam="2">  1       21 0.32529276E-01 0.17191401E+03</pdfrwt>
<totfact> 0.18228217E+05</totfact>
</mgrwt>
</event>
<event>
12    1  0.1019868E-001  0.3153836E+03  0.7546771E-02  0.1077803E+00
         21   -1    0    0  501  502  0.00000000000E+00  0.00000000000E+00  0.44810783750E+03  0.44810783750E+03  0.00000000000E+00 0.  1.
         21   -1    0    0  502  503 -0.00000000000E+00 -0.00000000000E+00 -0.33117157436E+03  0.33117157436E+03  0.00000000000E+00 0. -1.
         -6    2    1    2    0  503 -0.16598941803E+03 -0.20470458975E+03 -0.16533849538E+03  0.35602317484E+03  0.17308733924E+03 0.  0.
        -24    2    3    3    0    0 -0.14152649706E+03 -0.97909667734E+02 -0.15626143711E+03  0.24598648615E+03  0.80471499522E+02 0.  0.
          6    2    1    2  501    0  0.16598941803E+03  0.20470458975E+03  0.28227475853E+03  0.42325623702E+03  0.17323494714E+03 0.  0.
         24    2    5    5    0    0  0.11901082128E+03  0.15478084421E+03  0.28487601901E+03  0.35449414370E+03  0.79944145471E+02 0.  0.
          5    1    5    5  501    0  0.46978596751E+02  0.49923745548E+02 -0.26012604779E+01  0.68762093324E+02  0.47000000000E+01 0. -1.
        -11    1    6    6    0    0  0.66589108036E+02  0.14212172889E+03  0.21675285367E+03  0.26760884646E+03  0.00000000000E+00 0.  1.
         12    1    6    6    0    0  0.52421713241E+02  0.12659115319E+02  0.68123165339E+02  0.86885297234E+02  0.00000000000E+00 0. -1.
         -5    1    3    3    0  503 -0.24462920963E+02 -0.10679492202E+03 -0.90770582762E+01  0.11003668869E+03  0.47000000000E+01 0.  1.
         13    1    4    4    0    0 -0.35154438640E+02 -0.72337943488E+02 -0.61428012968E+02  0.10120283297E+03  0.00000000000E+00 0. -1.
        -14    1    4    4    0    0 -0.10637205842E+03 -0.25571724245E+02 -0.94833424139E+02  0.14478365318E+03  0.00000000000E+00 0.  1.
<mgrwt>
<rscale>  2 0.31536331E+03</rscale>
<asrwt>0</asrwt>
<pdfrwt beam="1">  1       21 0.68939667E-01 0.31538358E+03</pdfrwt>
<pdfrwt beam="2">  1       21 0.50949473E-01 0.31538358E+03</pdfrwt>
<totfact> 0.65311588E+03</totfact>
</mgrwt>
</event>
<event>
12    1  0.1019868E-001  0.1964753E+03  0.7546771E-02  0.1153048E+00
         21   -1    0    0  503  502  0.00000000000E+00  0.00000000000E+00  0.16631859838E+03  0.16631859838E+03  0.00000000000E+00 0. -1.
         21   -1    0    0  501  503 -0.00000000000E+00 -0.00000000000E+00 -0.27124487618E+03  0.27124487618E+03  0.00000000000E+00 0. -1.
          6    2    1    2  501    0  0.29746117173E+02 -0.85176472978E+02 -0.13745280236E+03  0.23978284086E+03  0.17453559768E+03 0.  0.
         24    2    3    3    0    0 -0.37002499649E+02 -0.82161953399E+02 -0.43535237509E+02  0.12442659195E+03  0.73938408909E+02 0.  0.
         -6    2    1    2    0  502 -0.29746117173E+02  0.85176472978E+02  0.32526524555E+02  0.19778063370E+03  0.17297208223E+03 0.  0.
        -24    2    5    5    0    0  0.45182951533E+02  0.81476980611E+02  0.21916592455E+02  0.12186810350E+03  0.75442031707E+02 0.  0.
          5    1    3    3  501    0  0.66748616822E+02 -0.30145195793E+01 -0.93917564850E+02  0.11535624891E+03  0.47000000000E+01 0. -1.
        -13    1    4    4    0    0 -0.32555259885E+02 -0.12997616125E+02  0.10446210996E+02  0.36577401428E+02  0.00000000000E+00 0.  1.
         14    1    4    4    0    0 -0.44472397643E+01 -0.69164337274E+02 -0.53981448505E+02  0.87849190519E+02  0.00000000000E+00 0. -1.
         -5    1    5    5    0  502 -0.74929068706E+02  0.36994923670E+01  0.10609932100E+02  0.75912530191E+02  0.47000000000E+01 0.  1.
         11    1    6    6    0    0 -0.55842286082E+01  0.45109592909E+02  0.35841894597E+02  0.57885234645E+02  0.00000000000E+00 0. -1.
        -12    1    6    6    0    0  0.50767180141E+02  0.36367387702E+02 -0.13925302142E+02  0.63982868859E+02  0.00000000000E+00 0.  1.
<mgrwt>
<rscale>  2 0.19612746E+03</rscale>
<asrwt>0</asrwt>
<pdfrwt beam="1">  1       21 0.25587477E-01 0.19647529E+03</pdfrwt>
<pdfrwt beam="2">  1       21 0.41729981E-01 0.19647529E+03</pdfrwt>
<totfact> 0.79969509E+04</totfact>
</mgrwt>
</event>
<event>
12    1  0.1019868E-001  0.2173450E+03  0.7546771E-02  0.1139029E+00
         21   -1    0    0  503  502  0.00000000000E+00  0.00000000000E+00  0.23511522438E+03  0.23511522438E+03  0.00000000000E+00 0. -1.
         21   -1    0    0  501  503 -0.00000000000E+00 -0.00000000000E+00 -0.24338232391E+03  0.24338232391E+03  0.00000000000E+00 0. -1.
          6    2    1    2  501    0 -0.96668915234E+02 -0.87408639564E+02 -0.11969246351E+03  0.23425496335E+03  0.15350554579E+03 0.  0.
         24    2    3    3    0    0 -0.97857701701E+02 -0.87651095590E+01 -0.88561255668E+02  0.14953507119E+03  0.69747290865E+02 0.  0.
         -6    2    1    2    0  502  0.96668915234E+02  0.87408639564E+02  0.11142536398E+03  0.24424258495E+03  0.17393584772E+03 0.  0.
        -24    2    5    5    0    0  0.11205083568E+03  0.10389629034E+03  0.12883339298E+03  0.21537087598E+03  0.80229309805E+02 0.  0.
          5    1    3    3  501    0  0.11887864671E+01 -0.78643530005E+02 -0.31131207841E+02  0.84719892153E+02  0.47000000000E+01 0. -1.
        -13    1    4    4    0    0 -0.31871842710E+02  0.29871807317E+02 -0.26852924469E+02  0.51275908404E+02  0.00000000000E+00 0.  1.
         14    1    4    4    0    0 -0.65985858991E+02 -0.38636916876E+02 -0.61708331199E+02  0.98259162788E+02  0.00000000000E+00 0. -1.
         -5    1    5    5    0  502 -0.15381920442E+02 -0.16487650781E+02 -0.17408029004E+02  0.28871708965E+02  0.47000000000E+01 0.  1.
         11    1    6    6    0    0  0.71496974377E+02  0.16354452238E+02  0.74946280912E+02  0.10486291277E+03  0.00000000000E+00 0. -1.
        -12    1    6    6    0    0  0.40553861299E+02  0.87541838107E+02  0.53887112068E+02  0.11050796321E+03  0.00000000000E+00 0.  1.
<mgrwt>
<rscale>  2 0.21323566E+03</rscale>
<asrwt>0</asrwt>
<pdfrwt beam="1">  1       21 0.36171573E-01 0.21734495E+03</pdfrwt>
<pdfrwt beam="2">  1       21 0.37443434E-01 0.21734495E+03</pdfrwt>
<totfact> 0.50110431E+04</totfact>
</mgrwt>
</event>
<event>
12    1  0.1019868E-001  0.2082772E+03  0.7546771E-02  0.1142991E+00
         21   -1    0    0  503  502  0.00000000000E+00  0.00000000000E+00  0.28089005021E+03  0.28089005021E+03  0.00000000000E+00 0. -1.
         21   -1    0    0  501  503 -0.00000000000E+00 -0.00000000000E+00 -0.31835201608E+03  0.31835201608E+03  0.00000000000E+00 0.  1.
          6    2    1    2  501    0 -0.11481753361E+03  0.57078821198E+01 -0.23386154690E+03  0.31316227838E+03  0.17367712439E+03 0.  0.
         24    2    3    3    0    0 -0.52429103714E+02 -0.48794934425E+02 -0.19359668651E+03  0.22093309548E+03  0.78752772063E+02 0.  0.
         -6    2    1    2    0  502  0.11481753361E+03 -0.57078821198E+01  0.19639958103E+03  0.28607978791E+03  0.17335859852E+03 0.  0.
        -24    2    5    5    0    0  0.41507719128E+02  0.75369263640E+01  0.19033782751E+03  0.21118927645E+03  0.81195602707E+02 0.  0.
          5    1    3    3  501    0 -0.62388429898E+02  0.54502816545E+02 -0.40264860389E+02  0.92229182901E+02  0.47000000000E+01 0. -1.
        -13    1    4    4    0    0 -0.21685560918E+02  0.41436403249E+01 -0.13291475248E+03  0.13473590737E+03  0.00000000000E+00 0.  1.
         14    1    4    4    0    0 -0.30743542796E+02 -0.52938574750E+02 -0.60681934028E+02  0.86197188108E+02  0.00000000000E+00 0. -1.
         -5    1    5    5    0  502  0.73309814484E+02 -0.13244808484E+02  0.60617535200E+01  0.74890511463E+02  0.47000000000E+01 0.  1.
         13    1    6    6    0    0  0.49161911261E+02  0.88967749657E+01  0.19554895989E+03  0.20183023024E+03  0.00000000000E+00 0. -1.
        -14    1    6    6    0    0 -0.76541921328E+01 -0.13598486017E+01 -0.52111323747E+01  0.93590462149E+01  0.00000000000E+00 0.  1.
<mgrwt>
<rscale>  2 0.20821078E+03</rscale>
<asrwt>0</asrwt>
<pdfrwt beam="1">  1       21 0.43213854E-01 0.20827719E+03</pdfrwt>
<pdfrwt beam="2">  1       21 0.48977233E-01 0.20827719E+03</pdfrwt>
<totfact> 0.20290902E+04</totfact>
</mgrwt>
</event>
<event>
12    1  0.1019868E-001  0.1934600E+03  0.7546771E-02  0.1155706E+00
         21   -1    0    0  503  502  0.00000000000E+00  0.00000000000E+00  0.74850125883E+02  0.74850125883E+02  0.00000000000E+00 0. -1.
         21   -1    0    0  501  503 -0.00000000000E+00 -0.00000000000E+00 -0.92473078024E+03  0.92473078024E+03  0.00000000000E+00 0.  1.
          6    2    1    2  501    0  0.24445542506E+01  0.86959712491E+02 -0.76605423528E+03  0.79010496874E+03  0.17279699880E+03 0.  0.
         24    2    3    3    0    0 -0.28178145711E+02  0.10124949711E+03 -0.72453589076E+03  0.73636661531E+03  0.78981431912E+02 0.  0.
         -6    2    1    2    0  502 -0.24445542506E+01 -0.86959712491E+02 -0.83826419080E+02  0.20947593739E+03  0.17112957771E+03 0.  0.
        -24    2    5    5    0    0  0.50857506906E+02 -0.52337999722E+02 -0.59646060667E+01  0.10885623432E+03  0.80550301068E+02 0.  0.
          5    1    3    3  501    0  0.30622699962E+02 -0.14289784618E+02 -0.41518344524E+02  0.53738353430E+02  0.47000000000E+01 0. -1.
        -13    1    4    4    0    0 -0.28305880457E+02  0.35859286553E+02 -0.51112041076E+03  0.51315805128E+03  0.00000000000E+00 0.  1.
         14    1    4    4    0    0  0.12773474572E+00  0.65390210556E+02 -0.21341548000E+03  0.22320856403E+03  0.00000000000E+00 0. -1.
         -5    1    5    5    0  502 -0.53302061156E+02 -0.34621712770E+02 -0.77861813014E+02  0.10061970306E+03  0.47000000000E+01 0.  1.
         11    1    6    6    0    0 -0.20166925298E+02 -0.25295564424E+02 -0.57483742996E+01  0.32857484119E+02  0.00000000000E+00 0. -1.
        -12    1    6    6    0    0  0.71024432203E+02 -0.27042435297E+02 -0.21623176712E+00  0.75998750206E+02  0.00000000000E+00 0.  1.
<mgrwt>
<rscale>  2 0.19308695E+03</rscale>
<asrwt>0</asrwt>
<pdfrwt beam="1">  1       21 0.11515404E-01 0.19346000E+03</pdfrwt>
<pdfrwt beam="2">  1       21 0.14226627E+00 0.19346000E+03</pdfrwt>
<totfact> 0.21671603E+04</totfact>
</mgrwt>
</event>
<event>
12    1  0.1019868E-001  0.1943425E+03  0.7546771E-02  0.1155072E+00
         21   -1    0    0  503  502  0.00000000000E+00  0.00000000000E+00  0.12801449291E+03  0.12801449291E+03  0.00000000000E+00 0.  1.
         21   -1    0    0  501  503 -0.00000000000E+00 -0.00000000000E+00 -0.31454454140E+03  0.31454454140E+03  0.00000000000E+00 0.  1.
          6    2    1    2  501    0  0.41069128891E+02 -0.70461084265E+02 -0.15228495359E+03  0.24522246618E+03  0.17404572125E+03 0.  0.
         24    2    3    3    0    0  0.70073651201E+02 -0.71910451711E+02 -0.60302072762E+02  0.14864967836E+03  0.91536644247E+02 0.  0.
         -6    2    1    2    0  502 -0.41069128891E+02  0.70461084265E+02 -0.34245094892E+02  0.19733656814E+03  0.17640169176E+03 0.  0.
        -24    2    5    5    0    0  0.32144283639E+02  0.58778305727E+02 -0.56794952665E+02  0.11970102747E+03  0.81329730942E+02 0.  0.
          5    1    3    3  501    0 -0.29004522311E+02  0.14493674468E+01 -0.91982880832E+02  0.96572787817E+02  0.47000000000E+01 0. -1.
        -13    1    4    4    0    0  0.26657140440E+02 -0.82304215853E+01  0.22269860198E+02  0.35697193856E+02  0.00000000000E+00 0.  1.
         14    1    4    4    0    0  0.43416510761E+02 -0.63680030126E+02 -0.82571932960E+02  0.11295248451E+03  0.00000000000E+00 0. -1.
         -5    1    5    5    0  502 -0.73213412530E+02  0.11682778538E+02  0.22549857772E+02  0.77635540664E+02  0.47000000000E+01 0.  1.
         11    1    6    6    0    0  0.27204829661E+02  0.43467242883E+02  0.89170986190E+01  0.52048233481E+02  0.00000000000E+00 0. -1.
        -12    1    6    6    0    0  0.49394539787E+01  0.15311062844E+02 -0.65712051284E+02  0.67652793992E+02  0.00000000000E+00 0.  1.
<mgrwt>
<rscale>  2 0.19380627E+03</rscale>
<asrwt>0</asrwt>
<pdfrwt beam="1">  1       21 0.19694538E-01 0.19434247E+03</pdfrwt>
<pdfrwt beam="2">  1       21 0.48391467E-01 0.19434247E+03</pdfrwt>
<totfact> 0.96829875E+04</totfact>
</mgrwt>
</event>
<event>
12    1  0.1019868E-001  0.1926784E+03  0.7546771E-02  0.1157439E+00
         21   -1    0    0  503  502  0.00000000000E+00  0.00000000000E+00  0.19090246705E+03  0.19090246705E+03  0.00000000000E+00 0. -1.
         21   -1    0    0  501  503 -0.00000000000E+00 -0.00000000000E+00 -0.20964095769E+03  0.20964095769E+03  0.00000000000E+00 0. -1.
          6    2    1    2  501    0 -0.59387640221E+02 -0.57838548027E+02 -0.73012125972E+02  0.20036704949E+03  0.16716457320E+03 0.  0.
         24    2    3    3    0    0 -0.67049699255E+02 -0.58533487422E+02 -0.10978526137E+03  0.16250488399E+03  0.80207246469E+02 0.  0.
         -6    2    1    2    0  502  0.59387640221E+02  0.57838548027E+02  0.54273635335E+02  0.20017637525E+03  0.17393321784E+03 0.  0.
        -24    2    5    5    0    0 -0.35674212164E+02  0.23388057769E+02  0.22249460493E+02  0.94010326856E+02  0.80766654033E+02 0.  0.
          5    1    3    3  501    0  0.76620590343E+01  0.69493939520E+00  0.36773135399E+02  0.37862165502E+02  0.47000000000E+01 0. -1.
        -11    1    4    4    0    0  0.11708090642E+02 -0.29511221782E+01 -0.44432517380E+02  0.46043860713E+02  0.00000000000E+00 0.  1.
         12    1    4    4    0    0 -0.78757789897E+02 -0.55582365244E+02 -0.65352743991E+02  0.11646102328E+03  0.00000000000E+00 0. -1.
         -5    1    5    5    0  502  0.95061852385E+02  0.34450490258E+02  0.32024174842E+02  0.10616604840E+03  0.47000000000E+01 0.  1.
         11    1    6    6    0    0 -0.11393990725E+02  0.39177918101E+02 -0.17858384581E+02  0.44538232915E+02  0.00000000000E+00 0. -1.
        -12    1    6    6    0    0 -0.24280221439E+02 -0.15789860332E+02  0.40107845074E+02  0.49472093941E+02  0.00000000000E+00 0.  1.
<mgrwt>
<rscale>  2 0.19113814E+03</rscale>
<asrwt>0</asrwt>
<pdfrwt beam="1">  1       21 0.29369610E-01 0.19267837E+03</pdfrwt>
<pdfrwt beam="2">  1       21 0.32252455E-01 0.19267837E+03</pdfrwt>
<totfact> 0.10271811E+05</totfact>
</mgrwt>
</event>
<event>
12    1  0.1019868E-001  0.2842587E+03  0.7546771E-02  0.1093560E+00
         21   -1    0    0  501  502  0.00000000000E+00  0.00000000000E+00  0.25879900639E+03  0.25879900639E+03  0.00000000000E+00 0. -1.
         21   -1    0    0  502  503 -0.00000000000E+00 -0.00000000000E+00 -0.37523585496E+03  0.37523585496E+03  0.00000000000E+00 0. -1.
         -6    2    1    2    0  503 -0.19433005992E+03  0.11289644890E+03  0.73045601560E+02  0.29349392686E+03  0.17404954707E+03 0.  0.
        -24    2    3    3    0    0 -0.15026749802E+03  0.12606882558E+03  0.53926557825E+01  0.21155473025E+03  0.79073721366E+02 0.  0.
          6    2    1    2  501    0  0.19433005992E+03 -0.11289644890E+03 -0.18948245013E+03  0.34054093449E+03  0.17191494639E+03 0.  0.
         24    2    5    5    0    0  0.42311106121E+02 -0.60065693095E+02 -0.26626916201E+02  0.11153249359E+03  0.79576298424E+02 0.  0.
          5    1    5    5  501    0  0.15201895380E+03 -0.52830755805E+02 -0.16285553393E+03  0.22900844090E+03  0.47000000000E+01 0. -1.
        -11    1    6    6    0    0 -0.10041399527E+02  0.12294510271E+02 -0.14314484520E+02  0.21374965599E+02  0.00000000000E+00 0.  1.
         12    1    6    6    0    0  0.52352505648E+02 -0.72360203367E+02 -0.12312431682E+02  0.90157527987E+02  0.00000000000E+00 0. -1.
         -5    1    3    3    0  503 -0.44062561894E+02 -0.13172376681E+02  0.67652945778E+02  0.81939196606E+02  0.47000000000E+01 0.  1.
         13    1    4    4    0    0 -0.11051786259E+03  0.12996480893E+03 -0.34945462719E+01  0.17063780755E+03  0.00000000000E+00 0. -1.
        -14    1    4    4    0    0 -0.39749635430E+02 -0.38959833482E+01  0.88872020543E+01  0.40916922702E+02  0.00000000000E+00 0.  1.
<mgrwt>
<rscale>  2 0.28393268E+03</rscale>
<asrwt>0</asrwt>
<pdfrwt beam="1">  1       21 0.39815232E-01 0.28425873E+03</pdfrwt>
<pdfrwt beam="2">  1       21 0.57728592E-01 0.28425873E+03</pdfrwt>
<totfact> 0.16301126E+04</totfact>
</mgrwt>
</event>
<event>
12    1  0.1019868E-001  0.2273980E+03  0.7546771E-02  0.1128631E+00
         21   -1    0    0  503  502  0.00000000000E+00  0.00000000000E+00  0.81461858615E+03  0.81461858615E+03  0.00000000000E+00 0. -1.
         21   -1    0    0  501  503 -0.00000000000E+00 -0.00000000000E+00 -0.71971266964E+02  0.71971266964E+02  0.00000000000E+00 0.  1.
          6    2    1    2  501    0  0.14504046232E+03  0.13820434503E+02  0.21759431937E+03  0.31473342859E+03  0.17459124587E+03 0.  0.
         24    2    3    3    0    0  0.47895070674E+02  0.45221639505E+02  0.42057979869E+02  0.11161189040E+03  0.79683159660E+02 0.  0.
         -6    2    1    2    0  502 -0.14504046232E+03 -0.13820434503E+02  0.52505299982E+03  0.57185642453E+03  0.17352630213E+03 0.  0.
        -24    2    5    5    0    0 -0.15981193008E+03 -0.11690078417E+00  0.32576496200E+03  0.37149725923E+03  0.79671428336E+02 0.  0.
          5    1    3    3  501    0  0.97145391645E+02 -0.31401205002E+02  0.17553633950E+03  0.20312153819E+03  0.47000000000E+01 0. -1.
        -13    1    4    4    0    0  0.27935063291E+02  0.50323148799E+02  0.60827400286E+02  0.83742221679E+02  0.00000000000E+00 0.  1.
         14    1    4    4    0    0  0.19960007382E+02 -0.51015092941E+01 -0.18769420417E+02  0.27869668720E+02  0.00000000000E+00 0. -1.
         -5    1    5    5    0  502  0.14771467758E+02 -0.13703533719E+02  0.19928803783E+03  0.20035916530E+03  0.47000000000E+01 0.  1.
         13    1    6    6    0    0 -0.81587386740E+02  0.39744719485E+02  0.16848618545E+03  0.19137329774E+03  0.00000000000E+00 0. -1.
        -14    1    6    6    0    0 -0.78224543337E+02 -0.39861620270E+02  0.15727877655E+03  0.18012396149E+03  0.00000000000E+00 0.  1.
<mgrwt>
<rscale>  2 0.22719356E+03</rscale>
<asrwt>0</asrwt>
<pdfrwt beam="1">  1       21 0.12532593E+00 0.22739798E+03</pdfrwt>
<pdfrwt beam="2">  1       21 0.11072503E-01 0.22739798E+03</pdfrwt>
<totfact> 0.31478655E+04</totfact>
</mgrwt>
</event>
<event>
12    1  0.1019868E-001  0.2365864E+03  0.7546771E-02  0.1122311E+00
         21   -1    0    0  501  502  0.00000000000E+00  0.00000000000E+00  0.86922380322E+02  0.86922380322E+02  0.00000000000E+00 0.  1.
         21   -1    0    0  502  503 -0.00000000000E+00 -0.00000000000E+00 -0.76377723200E+03  0.76377723200E+03  0.00000000000E+00 0.  1.
         -6    2    1    2    0  503 -0.10734041769E+03  0.11781357103E+03 -0.50860668562E+03  0.56038847643E+03  0.17306785108E+03 0.  0.
        -24    2    3    3    0    0 -0.85406720073E+02  0.14113274957E+03 -0.31874707472E+03  0.36779140213E+03  0.80362037095E+02 0.  0.
          6    2    1    2  501    0  0.10734041769E+03 -0.11781357103E+03 -0.16824816606E+03  0.29031113589E+03  0.17484595348E+03 0.  0.
         24    2    5    5    0    0  0.71935467488E+02 -0.13742376360E+03 -0.78240155436E+02  0.19151031540E+03  0.80589556995E+02 0.  0.
          5    1    5    5  501    0  0.35404950204E+02  0.19610192575E+02 -0.90008010626E+02  0.98800820486E+02  0.47000000000E+01 0. -1.
        -13    1    6    6    0    0  0.70300465587E+02 -0.48076792001E+02 -0.32870567021E+02  0.91290785773E+02  0.00000000000E+00 0.  1.
         14    1    6    6    0    0  0.16350019013E+01 -0.89346971604E+02 -0.45369588415E+02  0.10021952963E+03  0.00000000000E+00 0. -1.
         -5    1    3    3    0  503 -0.21933697619E+02 -0.23319178543E+02 -0.18985961090E+03  0.19259707430E+03  0.47000000000E+01 0.  1.
         11    1    4    4    0    0 -0.12174074861E+02  0.85394793844E+02 -0.19797643392E+03  0.21595172447E+03  0.00000000000E+00 0. -1.
        -12    1    4    4    0    0 -0.73232645212E+02  0.55737955729E+02 -0.12077064080E+03  0.15183967766E+03  0.00000000000E+00 0.  1.
<mgrwt>
<rscale>  2 0.23625793E+03</rscale>
<asrwt>0</asrwt>
<pdfrwt beam="1">  1       21 0.13372674E-01 0.23658637E+03</pdfrwt>
<pdfrwt beam="2">  1       21 0.11750419E+00 0.23658637E+03</pdfrwt>
<totfact> 0.26208681E+04</totfact>
</mgrwt>
</event>
<event>
12    1  0.1019868E-001  0.1909943E+03  0.7546771E-02  0.1157907E+00
         21   -1    0    0  503  502  0.00000000000E+00  0.00000000000E+00  0.11205380940E+03  0.11205380940E+03  0.00000000000E+00 0.  1.
         21   -1    0    0  501  503 -0.00000000000E+00 -0.00000000000E+00 -0.32315527674E+03  0.32315527674E+03  0.00000000000E+00 0.  1.
          6    2    1    2  501    0  0.78376287011E+02  0.55675955650E+01 -0.10008530556E+03  0.21429410619E+03  0.17242695576E+03 0.  0.
         24    2    3    3    0    0  0.70312282875E+02  0.60468423216E+02 -0.10818123383E+03  0.15802010603E+03  0.68314912192E+02 0.  0.
         -6    2    1    2    0  502 -0.78376287011E+02 -0.55675955650E+01 -0.11101616178E+03  0.22091497996E+03  0.17408331255E+03 0.  0.
        -24    2    5    5    0    0  0.55791445559E+01 -0.44736826733E+02 -0.34342066132E+02  0.10056652711E+03  0.83076701598E+02 0.  0.
          5    1    3    3  501    0  0.80640041361E+01 -0.54900827651E+02  0.80959282686E+01  0.56274000160E+02  0.47000000000E+01 0. -1.
        -13    1    4    4    0    0  0.46465790580E+02  0.31894472664E+02 -0.10682230311E+03  0.12077802583E+03  0.00000000000E+00 0.  1.
         14    1    4    4    0    0  0.23846492295E+02  0.28573950552E+02 -0.13589307131E+01  0.37242080199E+02  0.00000000000E+00 0. -1.
         -5    1    5    5    0  502 -0.83955431567E+02  0.39169231168E+02 -0.76674095650E+02  0.12034845285E+03  0.47000000000E+01 0.  1.
         11    1    6    6    0    0 -0.62321819348E+01 -0.27285695377E+02 -0.60687369216E+02  0.66830427548E+02  0.00000000000E+00 0. -1.
        -12    1    6    6    0    0  0.11811326491E+02 -0.17451131356E+02  0.26345303083E+02  0.33736099562E+02  0.00000000000E+00 0.  1.
<mgrwt>
<rscale>  2 0.19061611E+03</rscale>
<asrwt>0</asrwt>
<pdfrwt beam="1">  1       21 0.17239048E-01 0.19099435E+03</pdfrwt>
<pdfrwt beam="2">  1       21 0.49716195E-01 0.19099435E+03</pdfrwt>
<totfact> 0.11731376E+05</totfact>
</mgrwt>
</event>
<event>
12    1  0.1019868E-001  0.2024164E+03  0.7546771E-02  0.1148127E+00
         21   -1    0    0  501  502  0.00000000000E+00  0.00000000000E+00  0.80851312541E+02  0.80851312541E+02  0.00000000000E+00 0. -1.
         21   -1    0    0  502  503 -0.00000000000E+00 -0.00000000000E+00 -0.50186908844E+03  0.50186908844E+03  0.00000000000E+00 0. -1.
         -6    2    1    2    0  503 -0.98641474942E+02 -0.17165633719E+02 -0.20960970487E+03  0.29139085209E+03  0.17591930181E+03 0.  0.
        -24    2    3    3    0    0 -0.57125161552E+02 -0.74571639992E+02 -0.16845774900E+03  0.20932607703E+03  0.81333755329E+02 0.  0.
          6    2    1    2  501    0  0.98641474942E+02  0.17165633719E+02 -0.21140807103E+03  0.29132954889E+03  0.17365118485E+03 0.  0.
         24    2    5    5    0    0  0.18941894672E+02  0.26343524914E+02 -0.27454688866E+02  0.90587939868E+02  0.79997738906E+02 0.  0.
          5    1    5    5  501    0  0.79699580269E+02 -0.91778911948E+01 -0.18395338217E+03  0.20074160902E+03  0.47000000000E+01 0. -1.
        -13    1    6    6    0    0  0.25973838956E+02 -0.20971147512E+02  0.35699755433E+01  0.33573413044E+02  0.00000000000E+00 0.  1.
         14    1    6    6    0    0 -0.70319442833E+01  0.47314672426E+02 -0.31024664409E+02  0.57014526823E+02  0.00000000000E+00 0. -1.
         -5    1    3    3    0  503 -0.41516313390E+02  0.57406006273E+02 -0.41151955871E+02  0.82064775060E+02  0.47000000000E+01 0.  1.
         13    1    4    4    0    0 -0.97375942046E+01 -0.40912680794E+02 -0.14049926455E+02  0.44340372394E+02  0.00000000000E+00 0. -1.
        -14    1    4    4    0    0 -0.47387567347E+02 -0.33658959198E+02 -0.15440782254E+03  0.16498570464E+03  0.00000000000E+00 0.  1.
<mgrwt>
<rscale>  2 0.20192258E+03</rscale>
<asrwt>0</asrwt>
<pdfrwt beam="1">  1       21 0.12438664E-01 0.20241640E+03</pdfrwt>
<pdfrwt beam="2">  1       21 0.77210626E-01 0.20241640E+03</pdfrwt>
<totfact> 0.81627329E+04</totfact>
</mgrwt>
</event>
<event>
12    1  0.1019868E-001  0.1831341E+03  0.7546771E-02  0.1164966E+00
         21   -1    0    0  503  502  0.00000000000E+00  0.00000000000E+00  0.10345020351E+04  0.10345020351E+04  0.00000000000E+00 0.  1.
         21   -1    0    0  501  503 -0.00000000000E+00 -0.00000000000E+00 -0.36050031648E+02  0.36050031648E+02  0.00000000000E+00 0.  1.
          6    2    1    2  501    0  0.60455801125E+02  0.64139899003E+01  0.32571988958E+03  0.37333861435E+03  0.17202392664E+03 0.  0.
         24    2    3    3    0    0 -0.20228801357E+02 -0.10938697316E+02  0.85973273594E+02  0.11974119577E+03  0.80110490501E+02 0.  0.
         -6    2    1    2    0  502 -0.60455801125E+02 -0.64139899003E+01  0.67273211386E+03  0.69721345240E+03  0.17274853986E+03 0.  0.
        -24    2    5    5    0    0 -0.42420455963E+02 -0.68577229232E+02  0.39081374479E+03  0.40792190599E+03  0.84631949161E+02 0.  0.
          5    1    3    3  501    0  0.80684602482E+02  0.17352687216E+02  0.23974661599E+03  0.25359741858E+03  0.47000000000E+01 0. -1.
        -13    1    4    4    0    0  0.26071200153E+02 -0.63679882740E+01  0.64402659674E+01  0.27599561188E+02  0.00000000000E+00 0.  1.
         14    1    4    4    0    0 -0.46300001510E+02 -0.45707090419E+01  0.79533007627E+02  0.92141634580E+02  0.00000000000E+00 0. -1.
         -5    1    5    5    0  502 -0.18035345161E+02  0.62163239331E+02  0.28191836907E+03  0.28929154640E+03  0.47000000000E+01 0.  1.
         11    1    6    6    0    0  0.46467262190E+01  0.50463316283E+01 -0.58743976095E+00  0.68849555503E+01  0.00000000000E+00 0. -1.
        -12    1    6    6    0    0 -0.47067182182E+02 -0.73623560860E+02  0.39140118455E+03  0.40103695044E+03  0.00000000000E+00 0.  1.
<mgrwt>
<rscale>  2 0.18296303E+03</rscale>
<asrwt>0</asrwt>
<pdfrwt beam="1">  1       21 0.15915414E+00 0.18313411E+03</pdfrwt>
<pdfrwt beam="2">  1       21 0.55461595E-02 0.18313411E+03</pdfrwt>
<totfact> 0.57887238E+04</totfact>
</mgrwt>
</event>
<event>
12    1  0.1019868E-001  0.1977974E+03  0.7546771E-02  0.1151738E+00
         21   -1    0    0  501  502  0.00000000000E+00  0.00000000000E+00  0.82775776003E+02  0.82775776003E+02  0.00000000000E+00 0.  1.
         21   -1    0    0  502  503 -0.00000000000E+00 -0.00000000000E+00 -0.49265862554E+03  0.49265862554E+03  0.00000000000E+00 0. -1.
         -6    2    1    2    0  503  0.81050677753E+02  0.49894185739E+02 -0.26524234121E+03  0.33087355614E+03  0.17339310382E+03 0.  0.
        -24    2    3    3    0    0  0.46348815858E+02 -0.40171413625E+02 -0.13965541289E+03  0.17241157972E+03  0.80375140861E+02 0.  0.
          6    2    1    2  501    0 -0.81050677753E+02 -0.49894185739E+02 -0.14464050833E+03  0.24456084540E+03  0.17271504948E+03 0.  0.
         24    2    5    5    0    0 -0.16990186447E+02  0.37243330934E+02 -0.70732649321E+02  0.11348394056E+03  0.78738586164E+02 0.  0.
          5    1    5    5  501    0 -0.64060491306E+02 -0.87137516673E+02 -0.73907859010E+02  0.13107690484E+03  0.47000000000E+01 0. -1.
        -11    1    6    6    0    0  0.22404286305E+02  0.52547489677E+01 -0.56151841335E+02  0.60684377865E+02  0.00000000000E+00 0.  1.
         12    1    6    6    0    0 -0.39394472752E+02  0.31988581966E+02 -0.14580807986E+02  0.52799562698E+02  0.00000000000E+00 0. -1.
         -5    1    3    3    0  503  0.34701861895E+02  0.90065599364E+02 -0.12558692832E+03  0.15846197643E+03  0.47000000000E+01 0.  1.
         11    1    4    4    0    0 -0.15875291552E+02  0.11905262422E+02 -0.24198999400E+02  0.31294595814E+02  0.00000000000E+00 0. -1.
        -12    1    4    4    0    0  0.62224107410E+02 -0.52076676047E+02 -0.11545641349E+03  0.14111698390E+03  0.00000000000E+00 0.  1.
<mgrwt>
<rscale>  2 0.19764870E+03</rscale>
<asrwt>0</asrwt>
<pdfrwt beam="1">  1       21 0.12734735E-01 0.19779740E+03</pdfrwt>
<pdfrwt beam="2">  1       21 0.75793636E-01 0.19779740E+03</pdfrwt>
<totfact> 0.81736168E+04</totfact>
</mgrwt>
</event>
<event>
12    1  0.1019868E-001  0.1810028E+03  0.7546771E-02  0.1167168E+00
         21   -1    0    0  503  502  0.00000000000E+00  0.00000000000E+00  0.12270843743E+03  0.12270843743E+03  0.00000000000E+00 0.  1.
         21   -1    0    0  501  503 -0.00000000000E+00 -0.00000000000E+00 -0.54527678165E+03  0.54527678165E+03  0.00000000000E+00 0.  1.
          6    2    1    2  501    0 -0.48015543264E+02 -0.24692870658E+02 -0.45114574425E+03  0.48610130922E+03  0.17276217764E+03 0.  0.
         24    2    3    3    0    0  0.25596499479E+02  0.86968552156E+01 -0.33063985184E+03  0.34092084658E+03  0.78571597461E+02 0.  0.
         -6    2    1    2    0  502  0.48015543264E+02  0.24692870658E+02  0.28577400029E+02  0.18188390986E+03  0.17131800436E+03 0.  0.
        -24    2    5    5    0    0  0.26828650548E+02  0.53097752983E+02 -0.39698271197E+02  0.10481654294E+03  0.76625107347E+02 0.  0.
          5    1    3    3  501    0 -0.73612042743E+02 -0.33389725873E+02 -0.12050589240E+03  0.14518046265E+03  0.47000000000E+01 0. -1.
        -11    1    4    4    0    0 -0.49959518407E+01 -0.31207066316E+02 -0.10049955732E+03  0.10535179896E+03  0.00000000000E+00 0.  1.
         12    1    4    4    0    0  0.30592451320E+02  0.39903921531E+02 -0.23014029452E+03  0.23556904762E+03  0.00000000000E+00 0. -1.
         -5    1    5    5    0  502  0.21186892716E+02 -0.28404882325E+02  0.68275671226E+02  0.77067366921E+02  0.47000000000E+01 0.  1.
         13    1    6    6    0    0  0.29653615389E+02  0.70194289128E+01 -0.49020210679E+02  0.57719930205E+02  0.00000000000E+00 0. -1.
        -14    1    6    6    0    0 -0.28249648403E+01  0.46078324070E+02  0.93219394820E+01  0.47096612735E+02  0.00000000000E+00 0.  1.
<mgrwt>
<rscale>  2 0.18065730E+03</rscale>
<asrwt>0</asrwt>
<pdfrwt beam="1">  1       21 0.18878221E-01 0.18100276E+03</pdfrwt>
<pdfrwt beam="2">  1       21 0.83888737E-01 0.18100276E+03</pdfrwt>
<totfact> 0.31941527E+04</totfact>
</mgrwt>
</event>
<event>
12    1  0.1019868E-001  0.2143941E+03  0.7546771E-02  0.1138312E+00
         21   -1    0    0  501  502  0.00000000000E+00  0.00000000000E+00  0.40617834370E+03  0.40617834370E+03  0.00000000000E+00 0. -1.
         21   -1    0    0  502  503 -0.00000000000E+00 -0.00000000000E+00 -0.21492230782E+03  0.21492230782E+03  0.00000000000E+00 0.  1.
         -6    2    1    2    0  503  0.12655969275E+03 -0.11180279085E+00 -0.11867745697E+03  0.24424046416E+03  0.17190607089E+03 0.  0.
        -24    2    3    3    0    0  0.63500260316E+00 -0.17403877453E+02 -0.56193411299E+02  0.10252811678E+03  0.83970334515E+02 0.  0.
          6    2    1    2  501    0 -0.12655969275E+03  0.11180279085E+00  0.30993349285E+03  0.37686018737E+03  0.17305335160E+03 0.  0.
         24    2    5    5    0    0 -0.30879061868E+02 -0.62947751369E+00  0.24873682314E+03  0.26318321078E+03  0.80258847135E+02 0.  0.
          5    1    5    5  501    0 -0.95680630886E+02  0.74128030453E+00  0.61196669706E+02  0.11367697659E+03  0.47000000000E+01 0. -1.
        -13    1    6    6    0    0 -0.21139083967E+02  0.17496768328E+02  0.21092003154E+02  0.34610263939E+02  0.00000000000E+00 0.  1.
         14    1    6    6    0    0 -0.97399779008E+01 -0.18126245842E+02  0.22764481999E+03  0.22857294684E+03  0.00000000000E+00 0. -1.
         -5    1    3    3    0  503  0.12592469015E+03  0.17292074662E+02 -0.62484045667E+02  0.14171234738E+03  0.47000000000E+01 0.  1.
         11    1    4    4    0    0 -0.39045303075E+02 -0.49919656860E+01 -0.44347637177E+02  0.59297287770E+02  0.00000000000E+00 0. -1.
        -12    1    4    4    0    0  0.39680305679E+02 -0.12411911767E+02 -0.11845774122E+02  0.43230829011E+02  0.00000000000E+00 0.  1.
<mgrwt>
<rscale>  2 0.21416248E+03</rscale>
<asrwt>0</asrwt>
<pdfrwt beam="1">  1       21 0.62488976E-01 0.21439410E+03</pdfrwt>
<pdfrwt beam="2">  1       21 0.33064970E-01 0.21439410E+03</pdfrwt>
<totfact> 0.20640497E+04</totfact>
</mgrwt>
</event>
<event>
12    1  0.1019868E-001  0.1948548E+03  0.7546771E-02  0.1154799E+00
         21   -1    0    0  503  502  0.00000000000E+00  0.00000000000E+00  0.99568417821E+02  0.99568417821E+02  0.00000000000E+00 0.  1.
         21   -1    0    0  501  503 -0.00000000000E+00 -0.00000000000E+00 -0.37623731926E+03  0.37623731926E+03  0.00000000000E+00 0. -1.
          6    2    1    2  501    0  0.47338853605E+02 -0.69177648098E+02 -0.14698807269E+03  0.24174267510E+03  0.17264852560E+03 0.  0.
         24    2    3    3    0    0 -0.21121636371E+02 -0.35862708634E+01 -0.37030874035E+02  0.96478285131E+02  0.86474210076E+02 0.  0.
         -6    2    1    2    0  502 -0.47338853605E+02  0.69177648098E+02 -0.12968082874E+03  0.23406306198E+03  0.17590305735E+03 0.  0.
        -24    2    5    5    0    0 -0.10175307798E+02 -0.31035968394E+02 -0.68381076257E+02  0.11075998934E+03  0.80777691392E+02 0.  0.
          5    1    3    3  501    0  0.68460489976E+02 -0.65591377235E+02 -0.10995719866E+03  0.14526438996E+03  0.47000000000E+01 0. -1.
        -11    1    4    4    0    0  0.10308315981E+02 -0.33199870914E+02  0.62703489420E+01  0.35324355378E+02  0.00000000000E+00 0.  1.
         12    1    4    4    0    0 -0.31429952352E+02  0.29613600050E+02 -0.43301222977E+02  0.61153929752E+02  0.00000000000E+00 0. -1.
         -5    1    5    5    0  502 -0.37163545807E+02  0.10021361649E+03 -0.61299752487E+02  0.12330307264E+03  0.47000000000E+01 0.  1.
         11    1    6    6    0    0 -0.11013147122E+01 -0.80196849435E+01 -0.82081338810E+02  0.82479539411E+02  0.00000000000E+00 0. -1.
        -12    1    6    6    0    0 -0.90739930854E+01 -0.23016283451E+02  0.13700262553E+02  0.28280449933E+02  0.00000000000E+00 0.  1.
<mgrwt>
<rscale>  2 0.19411742E+03</rscale>
<asrwt>0</asrwt>
<pdfrwt beam="1">  1       21 0.15318218E-01 0.19485482E+03</pdfrwt>
<pdfrwt beam="2">  1       21 0.57882664E-01 0.19485482E+03</pdfrwt>
<totfact> 0.10556690E+05</totfact>
</mgrwt>
</event>
<event>
12    1  0.1019868E-001  0.1810201E+03  0.7546771E-02  0.1166845E+00
         21   -1    0    0  503  502  0.00000000000E+00  0.00000000000E+00  0.19866737969E+02  0.19866737969E+02  0.00000000000E+00 0.  1.
         21   -1    0    0  501  503 -0.00000000000E+00 -0.00000000000E+00 -0.19319448156E+04  0.19319448156E+04  0.00000000000E+00 0.  1.
          6    2    1    2  501    0 -0.28693294443E+02  0.47549135254E+02 -0.13301272750E+04  0.13423884788E+04  0.17229055356E+03 0.  0.
         24    2    3    3    0    0 -0.24813189097E+02  0.99640145375E+02 -0.93469783022E+03  0.94349618209E+03  0.77337952448E+02 0.  0.
         -6    2    1    2    0  502  0.28693294443E+02 -0.47549135254E+02 -0.58195080259E+03  0.60942307475E+03  0.17217875012E+03 0.  0.
        -24    2    5    5    0    0 -0.40039054142E+02  0.83711322787E+01 -0.24552345431E+03  0.26149109471E+03  0.80141277034E+02 0.  0.
          5    1    3    3  501    0 -0.38801053453E+01 -0.52091010121E+02 -0.39542944478E+03  0.39889229668E+03  0.47000000000E+01 0. -1.
        -11    1    4    4    0    0 -0.27541650279E+02  0.28943232800E+02 -0.60374813097E+03  0.60506863980E+03  0.00000000000E+00 0.  1.
         12    1    4    4    0    0  0.27284611817E+01  0.70696912575E+02 -0.33094969925E+03  0.33842754229E+03  0.00000000000E+00 0. -1.
         -5    1    5    5    0  502  0.68732348584E+02 -0.55920267533E+02 -0.33642734828E+03  0.34793198004E+03  0.47000000000E+01 0.  1.
         11    1    6    6    0    0 -0.28719735227E+02  0.11133984405E+01 -0.24634860204E+03  0.24801954877E+03  0.00000000000E+00 0. -1.
        -12    1    6    6    0    0 -0.11319318914E+02  0.72577338382E+01  0.82514772905E+00  0.13471545937E+02  0.00000000000E+00 0.  1.
<mgrwt>
<rscale>  2 0.18099345E+03</rscale>
<asrwt>0</asrwt>
<pdfrwt beam="1">  1       21 0.30564203E-02 0.18102005E+03</pdfrwt>
<pdfrwt beam="2">  1       21 0.29722237E+00 0.18102005E+03</pdfrwt>
<totfact> 0.21984604E+04</totfact>
</mgrwt>
</event>
<event>
12    1  0.1019868E-001  0.1971745E+03  0.7546771E-02  0.1152721E+00
         21   -1    0    0  501  502  0.00000000000E+00  0.00000000000E+00  0.13213195342E+04  0.13213195342E+04  0.00000000000E+00 0.  1.
         21   -1    0    0  502  503 -0.00000000000E+00 -0.00000000000E+00 -0.50484354499E+02  0.50484354499E+02  0.00000000000E+00 0.  1.
         -6    2    1    2    0  503 -0.83087810889E+02  0.37659279662E+02  0.19074309115E+03  0.27433682882E+03  0.17480264060E+03 0.  0.
        -24    2    3    3    0    0 -0.23176750092E+02 -0.38413555045E+02  0.13124484443E+03  0.16058911346E+03  0.80937576050E+02 0.  0.
          6    2    1    2  501    0  0.83087810889E+02 -0.37659279662E+02  0.10800920886E+04  0.10974670599E+04  0.17179412711E+03 0.  0.
         24    2    5    5    0    0  0.52831372835E+02 -0.50889341351E+02  0.34031320384E+03  0.35693659134E+03  0.78802122492E+02 0.  0.
          5    1    5    5  501    0  0.30256438055E+02  0.13230061690E+02  0.73977888474E+03  0.74053046858E+03  0.47000000000E+01 0. -1.
        -13    1    6    6    0    0  0.17565933294E+02 -0.95985248609E+01  0.10349221765E+02  0.22534419964E+02  0.00000000000E+00 0.  1.
         14    1    6    6    0    0  0.35265439541E+02 -0.41290816490E+02  0.32996398207E+03  0.33440217137E+03  0.00000000000E+00 0. -1.
         -5    1    3    3    0  503 -0.59911060797E+02  0.76072834707E+02  0.59498246720E+02  0.11374771536E+03  0.47000000000E+01 0.  1.
         13    1    4    4    0    0 -0.45408820947E-01 -0.39972156747E+01 -0.11378245854E+02  0.12060027937E+02  0.00000000000E+00 0. -1.
        -14    1    4    4    0    0 -0.23131341271E+02 -0.34416339371E+02  0.14262309028E+03  0.14852908552E+03  0.00000000000E+00 0.  1.
<mgrwt>
<rscale>  2 0.19650552E+03</rscale>
<asrwt>0</asrwt>
<pdfrwt beam="1">  1       21 0.20327990E+00 0.19717446E+03</pdfrwt>
<pdfrwt beam="2">  1       21 0.77668247E-02 0.19717446E+03</pdfrwt>
<totfact> 0.16106047E+04</totfact>
</mgrwt>
</event>
<event>
12    1  0.1019868E-001  0.2433335E+03  0.7546771E-02  0.1117596E+00
         21   -1    0    0  501  502  0.00000000000E+00  0.00000000000E+00  0.97007759090E+03  0.97007759090E+03  0.00000000000E+00 0. -1.
         21   -1    0    0  502  503 -0.00000000000E+00 -0.00000000000E+00 -0.18782486906E+03  0.18782486906E+03  0.00000000000E+00 0.  1.
         -6    2    1    2    0  503 -0.75783445471E+02  0.15339788962E+03 -0.84545583035E+02  0.25760271649E+03  0.17302358448E+03 0.  0.
        -24    2    3    3    0    0 -0.20662906173E+02  0.12046106953E+03 -0.11191280674E+03  0.18764442247E+03  0.88023451458E+02 0.  0.
          6    2    1    2  501    0  0.75783445471E+02 -0.15339788962E+03  0.86679830487E+03  0.90029974347E+03  0.17299214897E+03 0.  0.
         24    2    5    5    0    0  0.37052665919E+02 -0.17881050803E+03  0.70831028551E+03  0.73511373697E+03  0.73093418939E+02 0.  0.
          5    1    5    5  501    0  0.38730779552E+02  0.25412618412E+02  0.15848801937E+03  0.16518600650E+03  0.47000000000E+01 0. -1.
        -13    1    6    6    0    0  0.31487429565E+02 -0.65274367760E+02  0.16782674396E+03  0.18280595531E+03  0.00000000000E+00 0.  1.
         14    1    6    6    0    0  0.55652363545E+01 -0.11353614027E+03  0.54048354155E+03  0.55230778166E+03  0.00000000000E+00 0. -1.
         -5    1    3    3    0  503 -0.55120539298E+02  0.32936820088E+02  0.27367223702E+02  0.69958294027E+02  0.47000000000E+01 0.  1.
         13    1    4    4    0    0  0.19003365520E+02 -0.26936108971E+01 -0.26065613759E+02  0.32369733725E+02  0.00000000000E+00 0. -1.
        -14    1    4    4    0    0 -0.39666271693E+02  0.12315468043E+03 -0.85847192978E+02  0.15527468874E+03  0.00000000000E+00 0.  1.
<mgrwt>
<rscale>  2 0.24332794E+03</rscale>
<asrwt>0</asrwt>
<pdfrwt beam="1">  1       21 0.14924270E+00 0.24333352E+03</pdfrwt>
<pdfrwt beam="2">  1       21 0.28896134E-01 0.24333352E+03</pdfrwt>
<totfact> 0.33319382E+03</totfact>
</mgrwt>
</event>
<event>
12    1  0.1019868E-001  0.1844188E+03  0.7546771E-02  0.1163895E+00
         21   -1    0    0  503  502  0.00000000000E+00  0.00000000000E+00  0.75451961244E+02  0.75451961244E+02  0.00000000000E+00 0.  1.
         21   -1    0    0  501  503 -0.00000000000E+00 -0.00000000000E+00 -0.45242058498E+03  0.45242058498E+03  0.00000000000E+00 0. -1.
          6    2    1    2  501    0 -0.64953734882E+01  0.61955304737E+02 -0.21500510861E+03  0.28242911361E+03  0.17221602081E+03 0.  0.
         24    2    3    3    0    0 -0.52714843126E+02 -0.11120793162E+02 -0.13105304498E+03  0.16182067922E+03  0.78156924826E+02 0.  0.
         -6    2    1    2    0  502  0.64953734882E+01 -0.61955304737E+02 -0.16196351512E+03  0.24544343261E+03  0.17357894089E+03 0.  0.
        -24    2    5    5    0    0  0.71302120294E+02 -0.38592646352E+02 -0.89786087638E+02  0.14555650015E+03  0.80942995323E+02 0.  0.
          5    1    3    3  501    0  0.46219469638E+02  0.73076097899E+02 -0.83952063624E+02  0.12060843438E+03  0.47000000000E+01 0. -1.
        -11    1    4    4    0    0 -0.32070595788E+02 -0.28615739814E+02 -0.19797445826E+02  0.47321480752E+02  0.00000000000E+00 0.  1.
         12    1    4    4    0    0 -0.20644247338E+02  0.17494946653E+02 -0.11125559916E+03  0.11449919847E+03  0.00000000000E+00 0. -1.
         -5    1    5    5    0  502 -0.64806746806E+02 -0.23362658385E+02 -0.72177427487E+02  0.99886932464E+02  0.47000000000E+01 0.  1.
         11    1    6    6    0    0  0.56520133997E+02 -0.60002749309E+02 -0.45397754232E+02  0.94105321641E+02  0.00000000000E+00 0. -1.
        -12    1    6    6    0    0  0.14781986297E+02  0.21410102957E+02 -0.44388333406E+02  0.51451178510E+02  0.00000000000E+00 0.  1.
<mgrwt>
<rscale>  2 0.18409742E+03</rscale>
<asrwt>0</asrwt>
<pdfrwt beam="1">  1       21 0.11607994E-01 0.18441881E+03</pdfrwt>
<pdfrwt beam="2">  1       21 0.69603167E-01 0.18441881E+03</pdfrwt>
<totfact> 0.11718781E+05</totfact>
</mgrwt>
</event>
<event>
12    1  0.1019868E-001  0.1999929E+03  0.7546771E-02  0.1151769E+00
         21   -1    0    0  501  502  0.00000000000E+00  0.00000000000E+00  0.21156275838E+03  0.21156275838E+03  0.00000000000E+00 0. -1.
         21   -1    0    0  502  503 -0.00000000000E+00 -0.00000000000E+00 -0.22669563663E+03  0.22669563663E+03  0.00000000000E+00 0. -1.
         -6    2    1    2    0  503 -0.81255819065E+02  0.89475486565E+01 -0.10651221412E+03  0.21837807234E+03  0.17222532905E+03 0.  0.
        -24    2    3    3    0    0 -0.11740216244E+03  0.31744230751E+02 -0.86704876389E+02  0.17104238304E+03  0.83347449132E+02 0.  0.
          6    2    1    2  501    0  0.81255819065E+02 -0.89475486565E+01  0.91379335876E+02  0.21988032267E+03  0.18252289312E+03 0.  0.
         24    2    5    5    0    0 -0.26915563247E+02 -0.19094808146E+02  0.63482215697E+02  0.10761120785E+03  0.80381099166E+02 0.  0.
          5    1    5    5  501    0  0.10817138231E+03  0.10147259489E+02  0.27897120179E+02  0.11226911481E+03  0.47000000000E+01 0. -1.
        -11    1    6    6    0    0 -0.45469630748E+02  0.91637715816E+01  0.15477728767E+02  0.48898078876E+02  0.00000000000E+00 0.  1.
         12    1    6    6    0    0  0.18554067501E+02 -0.28258579727E+02  0.48004486930E+02  0.58713128979E+02  0.00000000000E+00 0. -1.
         -5    1    3    3    0  503  0.36146343371E+02 -0.22796682094E+02 -0.19807337729E+02  0.47335689300E+02  0.47000000000E+01 0.  1.
         13    1    4    4    0    0 -0.10565855372E+03  0.56284840427E+02 -0.64889967646E+02  0.13617055899E+03  0.00000000000E+00 0. -1.
        -14    1    4    4    0    0 -0.11743608718E+02 -0.24540609676E+02 -0.21814908744E+02  0.34871824049E+02  0.00000000000E+00 0.  1.
<mgrwt>
<rscale>  2 0.19761289E+03</rscale>
<asrwt>0</asrwt>
<pdfrwt beam="1">  1       21 0.32548117E-01 0.19999293E+03</pdfrwt>
<pdfrwt beam="2">  1       21 0.34876252E-01 0.19999293E+03</pdfrwt>
<totfact> 0.71755433E+04</totfact>
</mgrwt>
</event>
<event>
12    1  0.1019868E-001  0.2387571E+03  0.7546771E-02  0.1120707E+00
         21   -1    0    0  501  502  0.00000000000E+00  0.00000000000E+00  0.96511195682E+02  0.96511195682E+02  0.00000000000E+00 0. -1.
         21   -1    0    0  502  503 -0.00000000000E+00 -0.00000000000E+00 -0.89025550476E+03  0.89025550476E+03  0.00000000000E+00 0.  1.
         -6    2    1    2    0  503  0.54991971368E+02  0.15532356189E+03 -0.68340280922E+03  0.72374540359E+03  0.17210021435E+03 0.  0.
        -24    2    3    3    0    0  0.43903989977E+02  0.16198044229E+03 -0.68500240186E+03  0.70989238643E+03  0.80954837606E+02 0.  0.
          6    2    1    2  501    0 -0.54991971368E+02 -0.15532356189E+03 -0.11034149986E+03  0.26302129685E+03  0.17278723973E+03 0.  0.
         24    2    5    5    0    0 -0.88338813007E+01 -0.26335031730E+01 -0.44627548225E+02  0.90437297741E+02  0.78117308993E+02 0.  0.
          5    1    5    5  501    0 -0.46158090067E+02 -0.15269005872E+03 -0.65713951638E+02  0.17258399911E+03  0.47000000000E+01 0. -1.
        -13    1    6    6    0    0 -0.38317143970E+02 -0.63304116781E+01 -0.46595327190E+02  0.60658075719E+02  0.00000000000E+00 0.  1.
         14    1    6    6    0    0  0.29483262670E+02  0.36969085051E+01  0.19677789650E+01  0.29779222021E+02  0.00000000000E+00 0. -1.
         -5    1    3    3    0  503  0.11087981391E+02 -0.66568804012E+01  0.15995926409E+01  0.13853017166E+02  0.47000000000E+01 0.  1.
         13    1    4    4    0    0  0.11481798391E+02  0.16390307011E+02 -0.19723341763E+02  0.28097759136E+02  0.00000000000E+00 0. -1.
        -14    1    4    4    0    0  0.32422191586E+02  0.14559013528E+03 -0.66527906010E+03  0.68179462729E+03  0.00000000000E+00 0.  1.
<mgrwt>
<rscale>  2 0.23863283E+03</rscale>
<asrwt>0</asrwt>
<pdfrwt beam="1">  1       21 0.14847876E-01 0.23875711E+03</pdfrwt>
<pdfrwt beam="2">  1       21 0.13696238E+00 0.23875711E+03</pdfrwt>
<totfact> 0.14688475E+04</totfact>
</mgrwt>
</event>
<event>
12    1  0.1019868E-001  0.2799346E+03  0.7546771E-02  0.1095847E+00
         21   -1    0    0  503  502  0.00000000000E+00  0.00000000000E+00  0.57567576516E+03  0.57567576516E+03  0.00000000000E+00 0.  1.
         21   -1    0    0  501  503 -0.00000000000E+00 -0.00000000000E+00 -0.30304238781E+03  0.30304238781E+03  0.00000000000E+00 0.  1.
          6    2    1    2  501    0  0.21975443183E+03  0.84119716647E+00 -0.19028033291E+03  0.33774450637E+03  0.17196519580E+03 0.  0.
         24    2    3    3    0    0  0.10666637916E+03 -0.58135249179E+01 -0.21784677973E+02  0.13465322464E+03  0.79027876066E+02 0.  0.
         -6    2    1    2    0  502 -0.21975443183E+03 -0.84119716647E+00  0.46291371026E+03  0.54097364659E+03  0.17340895375E+03 0.  0.
        -24    2    5    5    0    0 -0.29203025449E+02 -0.18840744885E+02  0.15261439481E+03  0.17636210350E+03  0.81268983524E+02 0.  0.
          5    1    3    3  501    0  0.11308805267E+03  0.66547220843E+01 -0.16849565493E+03  0.20309128173E+03  0.47000000000E+01 0. -1.
        -13    1    4    4    0    0  0.89841559586E+02 -0.25514727023E+02 -0.41398474809E+02  0.10215841052E+03  0.00000000000E+00 0.  1.
         14    1    4    4    0    0  0.16824819577E+02  0.19701202105E+02  0.19613796835E+02  0.32494814117E+02  0.00000000000E+00 0. -1.
         -5    1    5    5    0  502 -0.19055140638E+03  0.17999547718E+02  0.31029931545E+03  0.36461154310E+03  0.47000000000E+01 0.  1.
         11    1    6    6    0    0 -0.43977673506E+02 -0.31357848740E+02  0.14636741348E+03  0.15601528827E+03  0.00000000000E+00 0. -1.
        -12    1    6    6    0    0  0.14774648057E+02  0.12517103855E+02  0.62469813290E+01  0.20346815227E+02  0.00000000000E+00 0.  1.
<mgrwt>
<rscale>  2 0.27971133E+03</rscale>
<asrwt>0</asrwt>
<pdfrwt beam="1">  1       21 0.88565502E-01 0.27993461E+03</pdfrwt>
<pdfrwt beam="2">  1       21 0.46621906E-01 0.27993461E+03</pdfrwt>
<totfact> 0.45285797E+03</totfact>
</mgrwt>
</event>
<event>
12    1  0.1019868E-001  0.2075912E+03  0.7546771E-02  0.1143602E+00
         21   -1    0    0  503  502  0.00000000000E+00  0.00000000000E+00  0.68787090787E+03  0.68787090787E+03  0.00000000000E+00 0. -1.
         21   -1    0    0  501  503 -0.00000000000E+00 -0.00000000000E+00 -0.19325059368E+03  0.19325059368E+03  0.00000000000E+00 0. -1.
          6    2    1    2  501    0 -0.72244288263E+02 -0.88450283648E+02 -0.11499382087E+03  0.23731350276E+03  0.17335348249E+03 0.  0.
         24    2    3    3    0    0 -0.72955660755E+02 -0.10481688520E+02 -0.11557913208E+03  0.15919794435E+03  0.80950944919E+02 0.  0.
         -6    2    1    2    0  502  0.72244288263E+02  0.88450283648E+02  0.60961413506E+03  0.64380799878E+03  0.17267500038E+03 0.  0.
        -24    2    5    5    0    0 -0.14585204762E+01  0.10313474390E+03  0.34697076904E+03  0.37058397878E+03  0.79403199411E+02 0.  0.
          5    1    3    3  501    0  0.71137249226E+00 -0.77968595128E+02  0.58531120637E+00  0.78115558413E+02  0.47000000000E+01 0. -1.
        -11    1    4    4    0    0  0.10331729916E+02 -0.89791614963E+01  0.32599894181E+01  0.14071158987E+02  0.00000000000E+00 0.  1.
         12    1    4    4    0    0 -0.83287390671E+02 -0.15025270239E+01 -0.11883912150E+03  0.14512678536E+03  0.00000000000E+00 0. -1.
         -5    1    5    5    0  502  0.73702808739E+02 -0.14684460255E+02  0.26264336602E+03  0.27322402000E+03  0.47000000000E+01 0.  1.
         11    1    6    6    0    0  0.35886043295E+02  0.36706875159E+02  0.17737279506E+03  0.18465186491E+03  0.00000000000E+00 0. -1.
        -12    1    6    6    0    0 -0.37344563772E+02  0.66427868744E+02  0.16959797397E+03  0.18593211386E+03  0.00000000000E+00 0.  1.
<mgrwt>
<rscale>  2 0.20744953E+03</rscale>
<asrwt>0</asrwt>
<pdfrwt beam="1">  1       21 0.10582629E+00 0.20759123E+03</pdfrwt>
<pdfrwt beam="2">  1       21 0.29730861E-01 0.20759123E+03</pdfrwt>
<totfact> 0.76906350E+03</totfact>
</mgrwt>
</event>
<event>
12    1  0.1019868E-001  0.1963527E+03  0.7546771E-02  0.1154270E+00
         21   -1    0    0  501  502  0.00000000000E+00  0.00000000000E+00  0.85680382282E+02  0.85680382282E+02  0.00000000000E+00 0. -1.
         21   -1    0    0  502  503 -0.00000000000E+00 -0.00000000000E+00 -0.43683857214E+03  0.43683857214E+03  0.00000000000E+00 0. -1.
         -6    2    1    2    0  503 -0.54385109871E+02  0.56242244242E+02 -0.15735200353E+03  0.24662906908E+03  0.17304714527E+03 0.  0.
        -24    2    3    3    0    0 -0.62829467766E+02 -0.29350451767E+02 -0.10428970762E+03  0.14546032866E+03  0.73982248277E+02 0.  0.
          6    2    1    2  501    0  0.54385109871E+02 -0.56242244242E+02 -0.19380618633E+03  0.27588988534E+03  0.18009292257E+03 0.  0.
         24    2    5    5    0    0  0.98687140303E+02 -0.41473661367E+02 -0.18362242068E+03  0.22786301762E+03  0.82128832775E+02 0.  0.
          5    1    5    5  501    0 -0.44302030432E+02 -0.14768582875E+02 -0.10183765647E+02  0.48026867723E+02  0.47000000000E+01 0. -1.
        -11    1    6    6    0    0  0.14621502901E+02 -0.12551577272E+02 -0.11215045560E+03  0.11379391517E+03  0.00000000000E+00 0.  1.
         12    1    6    6    0    0  0.84065637402E+02 -0.28922084095E+02 -0.71471965082E+02  0.11406910245E+03  0.00000000000E+00 0. -1.
         -5    1    3    3    0  503  0.84443578943E+01  0.85592696009E+02 -0.53062295905E+02  0.10116874041E+03  0.47000000000E+01 0.  1.
         11    1    4    4    0    0 -0.60989408332E+02 -0.10009886123E+02 -0.30055212510E+02  0.68725697871E+02  0.00000000000E+00 0. -1.
        -12    1    4    4    0    0 -0.18400594338E+01 -0.19340565644E+02 -0.74234495111E+02  0.76734630791E+02  0.00000000000E+00 0.  1.
<mgrwt>
<rscale>  2 0.19472213E+03</rscale>
<asrwt>0</asrwt>
<pdfrwt beam="1">  1       21 0.13181597E-01 0.19635272E+03</pdfrwt>
<pdfrwt beam="2">  1       21 0.67205935E-01 0.19635272E+03</pdfrwt>
<totfact> 0.10031011E+05</totfact>
</mgrwt>
</event>
<event>
11    1  0.1019868E-001  0.1973842E+03  0.7546771E-02  0.1152388E+00
         21   -1    0    0  503  502  0.00000000000E+00  0.00000000000E+00  0.16821759934E+04  0.16821759934E+04  0.00000000000E+00 0. -1.
         21   -1    0    0  501  503 -0.00000000000E+00 -0.00000000000E+00 -0.31707169164E+02  0.31707169164E+02  0.00000000000E+00 0.  1.
          6    2    1    2  501    0 -0.90449903574E+02  0.26062068319E+02  0.37142154610E+03  0.41969520866E+03  0.17125912180E+03 0.  0.
         -6    2    1    2    0  502  0.90449903574E+02 -0.26062068319E+02  0.12790472781E+04  0.12941879539E+04  0.17349381510E+03 0.  0.
        -24    2    4    4    0    0 -0.70039008399E+01 -0.52089979202E+02  0.68379946541E+03  0.69043573264E+03  0.79733126394E+02 0.  0.
          5    1    3    3  501    0 -0.10141156537E+03  0.50739081061E+02  0.33259466923E+03  0.35142575879E+03  0.47000000000E+01 0. -1.
        -13    1    3    3    0    0 -0.55578707465E+01 -0.18301837013E+02 -0.60211007000E+01  0.20052451694E+02  0.00000000000E+00 0.  1.
         14    1    3    3    0    0  0.16519532541E+02 -0.63751757286E+01  0.44847977569E+02  0.48216998174E+02  0.00000000000E+00 0. -1.
         -5    1    4    4    0  502  0.97453804413E+02  0.26027910883E+02  0.59524781270E+03  0.60375222125E+03  0.47000000000E+01 0.  1.
         13    1    5    5    0    0 -0.27699264982E+02  0.98902424326E+01  0.25403689446E+03  0.25573386542E+03  0.00000000000E+00 0. -1.
        -14    1    5    5    0    0  0.20695364142E+02 -0.61980221635E+02  0.42976257095E+03  0.43470186721E+03  0.00000000000E+00 0.  1.
<mgrwt>
<rscale>  2 0.19689203E+03</rscale>
<asrwt>0</asrwt>
<pdfrwt beam="1">  1       21 0.25879624E+00 0.19738419E+03</pdfrwt>
<pdfrwt beam="2">  1       21 0.48780273E-02 0.19738419E+03</pdfrwt>
<totfact> 0.16492552E+04</totfact>
</mgrwt>
</event>
<event>
12    1  0.1019868E-001  0.3203345E+03  0.7546771E-02  0.1076770E+00
         21   -1    0    0  503  502  0.00000000000E+00  0.00000000000E+00  0.21365833841E+04  0.21365833841E+04  0.00000000000E+00 0. -1.
         21   -1    0    0  501  503 -0.00000000000E+00 -0.00000000000E+00 -0.54925686268E+02  0.54925686268E+02  0.00000000000E+00 0.  1.
          6    2    1    2  501    0 -0.16088401665E+03 -0.19837227547E+03  0.62458815158E+03  0.70194342683E+03  0.19333646548E+03 0.  0.
         24    2    3    3    0    0 -0.59974821366E+02 -0.16594637516E+03  0.27535070606E+03  0.33694618293E+03  0.81114365147E+02 0.  0.
         -6    2    1    2    0  502  0.16088401665E+03  0.19837227547E+03  0.14570695463E+04  0.14895656436E+04  0.17469664371E+03 0.  0.
        -24    2    5    5    0    0  0.19656611295E+02  0.31609768465E+02  0.36031396300E+03  0.37124108728E+03  0.81291039585E+02 0.  0.
          5    1    3    3  501    0 -0.10090919528E+03 -0.32425900308E+02  0.34923744552E+03  0.36499724390E+03  0.47000000000E+01 0. -1.
        -11    1    4    4    0    0  0.15048312371E+02 -0.69210334629E+02  0.85179301951E+02  0.11077922010E+03  0.00000000000E+00 0.  1.
         12    1    4    4    0    0 -0.75023133737E+02 -0.96736040528E+02  0.19017140411E+03  0.22616696283E+03  0.00000000000E+00 0. -1.
         -5    1    5    5    0  502  0.14122740535E+03  0.16676250700E+03  0.10967555833E+04  0.11183245563E+04  0.47000000000E+01 0.  1.
         13    1    6    6    0    0  0.26611404155E+02  0.23549138928E+02  0.35872048533E+03  0.36047623413E+03  0.00000000000E+00 0. -1.
        -14    1    6    6    0    0 -0.69547928599E+01  0.80606295370E+01  0.15934776755E+01  0.10764853151E+02  0.00000000000E+00 0.  1.
<mgrwt>
<rscale>  2 0.31757589E+03</rscale>
<asrwt>0</asrwt>
<pdfrwt beam="1">  1       21 0.32870507E+00 0.32033454E+03</pdfrwt>
<pdfrwt beam="2">  1       21 0.84501072E-02 0.32033454E+03</pdfrwt>
<totfact> 0.22365915E+03</totfact>
</mgrwt>
</event>
<event>
12    1  0.1019868E-001  0.3410417E+03  0.7546771E-02  0.1066452E+00
         21   -1    0    0  503  502  0.00000000000E+00  0.00000000000E+00  0.88080009907E+02  0.88080009907E+02  0.00000000000E+00 0.  1.
         21   -1    0    0  501  503 -0.00000000000E+00 -0.00000000000E+00 -0.13176986381E+04  0.13176986381E+04  0.00000000000E+00 0. -1.
          6    2    1    2  501    0  0.28731715638E+03 -0.57102811305E+02 -0.63288269262E+03  0.71892277720E+03  0.17463555638E+03 0.  0.
         24    2    3    3    0    0  0.25346288919E+03 -0.75296837865E+02 -0.42231255809E+03  0.50482232049E+03  0.81145724176E+02 0.  0.
         -6    2    1    2    0  502 -0.28731715638E+03  0.57102811305E+02 -0.59673593554E+03  0.68685587077E+03  0.17281588770E+03 0.  0.
        -24    2    5    5    0    0 -0.10518908309E+03  0.60050080374E+02 -0.35938998212E+03  0.38763268805E+03  0.80169733945E+02 0.  0.
          5    1    3    3  501    0  0.33854267192E+02  0.18194026561E+02 -0.21057013453E+03  0.21410045672E+03  0.47000000000E+01 0. -1.
        -11    1    4    4    0    0  0.21876081990E+03 -0.32383948548E+02 -0.34630842994E+03  0.41089481025E+03  0.00000000000E+00 0.  1.
         12    1    4    4    0    0  0.34702069292E+02 -0.42912889318E+02 -0.76004128151E+02  0.93927510234E+02  0.00000000000E+00 0. -1.
         -5    1    5    5    0  502 -0.18212807329E+03 -0.29472690691E+01 -0.23734595342E+03  0.29922318272E+03  0.47000000000E+01 0.  1.
         13    1    6    6    0    0 -0.11057106151E+03  0.72092353002E+02 -0.32330431393E+03  0.34921189328E+03  0.00000000000E+00 0. -1.
        -14    1    6    6    0    0  0.53819784149E+01 -0.12042272629E+02 -0.36085668198E+02  0.38420794773E+02  0.00000000000E+00 0.  1.
<mgrwt>
<rscale>  2 0.34080944E+03</rscale>
<asrwt>0</asrwt>
<pdfrwt beam="1">  1       21 0.13550772E-01 0.34104172E+03</pdfrwt>
<pdfrwt beam="2">  1       21 0.20272285E+00 0.34104172E+03</pdfrwt>
<totfact> 0.54923623E+03</totfact>
</mgrwt>
</event>
<event>
12    1  0.1019868E-001  0.2079799E+03  0.7546771E-02  0.1143252E+00
         21   -1    0    0  501  502  0.00000000000E+00  0.00000000000E+00  0.44186818161E+03  0.44186818161E+03  0.00000000000E+00 0. -1.
         21   -1    0    0  502  503 -0.00000000000E+00 -0.00000000000E+00 -0.11832969995E+03  0.11832969995E+03  0.00000000000E+00 0. -1.
         -6    2    1    2    0  503  0.38410944428E+02 -0.10778107556E+03  0.44976459978E+02  0.21278748141E+03  0.17367633515E+03 0.  0.
        -24    2    3    3    0    0  0.13860208989E+02 -0.22029679179E+02 -0.36234248845E+02  0.92067516949E+02  0.80536294487E+02 0.  0.
          6    2    1    2  501    0 -0.38410944428E+02  0.10778107556E+03  0.27856202168E+03  0.34741040015E+03  0.17321958698E+03 0.  0.
         24    2    5    5    0    0 -0.77012338917E+02  0.69166240139E+02  0.11089863793E+03  0.17101801534E+03  0.78954319420E+02 0.  0.
          5    1    5    5  501    0  0.38601394489E+02  0.38614835425E+02  0.16766338374E+03  0.17639238481E+03  0.47000000000E+01 0. -1.
        -11    1    6    6    0    0  0.13879168932E+02  0.25172762687E+01  0.27165547756E+02  0.30609393901E+02  0.00000000000E+00 0.  1.
         12    1    6    6    0    0 -0.90891507849E+02  0.66648963870E+02  0.83733090178E+02  0.14040862144E+03  0.00000000000E+00 0. -1.
         -5    1    3    3    0  503  0.24550735439E+02 -0.85751396385E+02  0.81210708824E+02  0.12071996446E+03  0.47000000000E+01 0.  1.
         11    1    4    4    0    0  0.36055247838E+02 -0.12911342104E+02 -0.51086651794E+02  0.63847706640E+02  0.00000000000E+00 0. -1.
        -12    1    4    4    0    0 -0.22195038849E+02 -0.91183370748E+01  0.14852402949E+02  0.28219810309E+02  0.00000000000E+00 0.  1.
<mgrwt>
<rscale>  2 0.20788450E+03</rscale>
<asrwt>0</asrwt>
<pdfrwt beam="1">  1       21 0.67979719E-01 0.20797988E+03</pdfrwt>
<pdfrwt beam="2">  1       21 0.18204570E-01 0.20797988E+03</pdfrwt>
<totfact> 0.53934599E+04</totfact>
</mgrwt>
</event>
<event>
12    1  0.1019868E-001  0.2224002E+03  0.7546771E-02  0.1132178E+00
         21   -1    0    0  501  502  0.00000000000E+00  0.00000000000E+00  0.26504181474E+03  0.26504181474E+03  0.00000000000E+00 0. -1.
         21   -1    0    0  502  503 -0.00000000000E+00 -0.00000000000E+00 -0.31041559013E+03  0.31041559013E+03  0.00000000000E+00 0.  1.
         -6    2    1    2    0  503 -0.11852119115E+03 -0.73153443982E+02 -0.20464532486E+03  0.30222768767E+03  0.17338733255E+03 0.  0.
        -24    2    3    3    0    0 -0.59851465307E+02 -0.20929458097E+02 -0.23210859859E+02  0.10446511153E+03  0.79711827202E+02 0.  0.
          6    2    1    2  501    0  0.11852119115E+03  0.73153443982E+02  0.15927154946E+03  0.27322971720E+03  0.17288248255E+03 0.  0.
         24    2    5    5    0    0 -0.30649391811E+01  0.42797603621E+02  0.99616864735E+02  0.13435770582E+03  0.79293408595E+02 0.  0.
          5    1    5    5  501    0  0.12158613033E+03  0.30355840361E+02  0.59654684728E+02  0.13887201137E+03  0.47000000000E+01 0. -1.
        -13    1    6    6    0    0 -0.67964277060E+01 -0.21262407156E+02  0.10832043689E+02  0.24811581129E+02  0.00000000000E+00 0.  1.
         14    1    6    6    0    0  0.37314885250E+01  0.64060010777E+02  0.88784821045E+02  0.10954612469E+03  0.00000000000E+00 0. -1.
         -5    1    3    3    0  503 -0.58669725845E+02 -0.52223985885E+02 -0.18143446500E+03  0.19776257614E+03  0.47000000000E+01 0.  1.
         11    1    4    4    0    0 -0.43799397404E+02 -0.47632570704E+02  0.14573846226E+01  0.64725365775E+02  0.00000000000E+00 0. -1.
        -12    1    4    4    0    0 -0.16052067903E+02  0.26703112607E+02 -0.24668244482E+02  0.39739745755E+02  0.00000000000E+00 0.  1.
<mgrwt>
<rscale>  2 0.22230183E+03</rscale>
<asrwt>0</asrwt>
<pdfrwt beam="1">  1       21 0.40775664E-01 0.22240024E+03</pdfrwt>
<pdfrwt beam="2">  1       21 0.47756245E-01 0.22240024E+03</pdfrwt>
<totfact> 0.23887677E+04</totfact>
</mgrwt>
</event>
<event>
12    1  0.1019868E-001  0.2091961E+03  0.7546771E-02  0.1142703E+00
         21   -1    0    0  503  502  0.00000000000E+00  0.00000000000E+00  0.12097520372E+03  0.12097520372E+03  0.00000000000E+00 0.  1.
         21   -1    0    0  501  503 -0.00000000000E+00 -0.00000000000E+00 -0.41107904973E+03  0.41107904973E+03  0.00000000000E+00 0.  1.
          6    2    1    2  501    0  0.27625407958E+02 -0.10917002357E+03 -0.24188316587E+03  0.31979757042E+03  0.17630020676E+03 0.  0.
         24    2    3    3    0    0 -0.26359182237E+02 -0.53607588586E+02 -0.48892101224E+02  0.11178516408E+03  0.80851130500E+02 0.  0.
         -6    2    1    2    0  502 -0.27625407958E+02  0.10917002357E+03 -0.48220680144E+02  0.21225668303E+03  0.17333899817E+03 0.  0.
        -24    2    5    5    0    0 -0.46394446764E+02  0.23204581166E+01  0.11900435647E+01  0.92956154645E+02  0.80508392521E+02 0.  0.
          5    1    3    3  501    0  0.53984590195E+02 -0.55562434988E+02 -0.19299106464E+03  0.20801240634E+03  0.47000000000E+01 0. -1.
        -13    1    4    4    0    0  0.66482491540E+01 -0.62428026265E+02 -0.16986549715E+02  0.65038454405E+02  0.00000000000E+00 0.  1.
         14    1    4    4    0    0 -0.33007431391E+02  0.88204376797E+01 -0.31905551510E+02  0.46746709671E+02  0.00000000000E+00 0. -1.
         -5    1    5    5    0  502  0.18769038806E+02  0.10684956546E+03 -0.49410723709E+02  0.11930052839E+03  0.47000000000E+01 0.  1.
         13    1    6    6    0    0  0.19022580665E+02  0.94251652048E+01  0.14647683527E+02  0.25792381569E+02  0.00000000000E+00 0. -1.
        -14    1    6    6    0    0 -0.65417027429E+02 -0.71047070883E+01 -0.13457639963E+02  0.67163773076E+02  0.00000000000E+00 0.  1.
<mgrwt>
<rscale>  2 0.20857098E+03</rscale>
<asrwt>0</asrwt>
<pdfrwt beam="1">  1       21 0.18611570E-01 0.20919613E+03</pdfrwt>
<pdfrwt beam="2">  1       21 0.63242929E-01 0.20919613E+03</pdfrwt>
<totfact> 0.60577976E+04</totfact>
</mgrwt>
</event>
<event>
12    1  0.1019868E-001  0.1748350E+03  0.7546771E-02  0.1173951E+00
         21   -1    0    0  503  502  0.00000000000E+00  0.00000000000E+00  0.76901739254E+02  0.76901739254E+02  0.00000000000E+00 0.  1.
         21   -1    0    0  501  503 -0.00000000000E+00 -0.00000000000E+00 -0.10178392745E+04  0.10178392745E+04  0.00000000000E+00 0.  1.
          6    2    1    2  501    0  0.22192822718E+02 -0.10670861085E+02 -0.42092038579E+02  0.17983054044E+03  0.17309215726E+03 0.  0.
         24    2    3    3    0    0  0.60316367575E+02 -0.54032947383E+02 -0.24239618791E+02  0.11921309994E+03  0.84062955440E+02 0.  0.
         -6    2    1    2    0  502 -0.22192822718E+02  0.10670861085E+02 -0.89884549667E+03  0.91491047332E+03  0.16891287295E+03 0.  0.
        -24    2    5    5    0    0  0.48006015824E+02  0.20809604856E+02 -0.61722547004E+03  0.62445806680E+03  0.79012524995E+02 0.  0.
          5    1    3    3  501    0 -0.38123544857E+02  0.43362086298E+02 -0.17852419788E+02  0.60617440501E+02  0.47000000000E+01 0. -1.
        -11    1    4    4    0    0  0.61027445803E+02 -0.37465761986E+01  0.44672783621E+01  0.61305322366E+02  0.00000000000E+00 0.  1.
         12    1    4    4    0    0 -0.71107822750E+00 -0.50286371185E+02 -0.28706897153E+02  0.57907777572E+02  0.00000000000E+00 0. -1.
         -5    1    5    5    0  502 -0.70198838543E+02 -0.10138743771E+02 -0.28162002663E+03  0.29045240653E+03  0.47000000000E+01 0.  1.
         13    1    6    6    0    0  0.47386004718E+02 -0.16054218222E+02 -0.47125490656E+03  0.47390332171E+03  0.00000000000E+00 0. -1.
        -14    1    6    6    0    0  0.62001110666E+00  0.36863823078E+02 -0.14597056348E+03  0.15055474509E+03  0.00000000000E+00 0.  1.
<mgrwt>
<rscale>  2 0.17379156E+03</rscale>
<asrwt>0</asrwt>
<pdfrwt beam="1">  1       21 0.11831038E-01 0.17483502E+03</pdfrwt>
<pdfrwt beam="2">  1       21 0.15659065E+00 0.17483502E+03</pdfrwt>
<totfact> 0.16260430E+04</totfact>
</mgrwt>
</event>
<event>
12    1  0.1019868E-001  0.2211962E+03  0.7546771E-02  0.1133408E+00
         21   -1    0    0  503  502  0.00000000000E+00  0.00000000000E+00  0.32271997070E+03  0.32271997070E+03  0.00000000000E+00 0.  1.
         21   -1    0    0  501  503 -0.00000000000E+00 -0.00000000000E+00 -0.17696963184E+03  0.17696963184E+03  0.00000000000E+00 0.  1.
          6    2    1    2  501    0 -0.98718568937E+02 -0.95372923347E+02  0.16993045698E+03  0.27717567986E+03  0.17061256383E+03 0.  0.
         24    2    3    3    0    0 -0.90684908773E+02 -0.22024335982E+02  0.43344787696E+02  0.13057903381E+03  0.80394585619E+02 0.  0.
         -6    2    1    2    0  502  0.98718568937E+02  0.95372923347E+02 -0.24180118113E+02  0.22251392268E+03  0.17345436666E+03 0.  0.
        -24    2    5    5    0    0  0.13985563524E+02  0.70189510396E+02 -0.64556312438E+02  0.12521945437E+03  0.79938919943E+02 0.  0.
          5    1    3    3  501    0 -0.80336601634E+01 -0.73348587365E+02  0.12658566928E+03  0.14659664604E+03  0.47000000000E+01 0. -1.
        -11    1    4    4    0    0 -0.42563615479E+02 -0.51446096467E+02  0.23779063531E+02  0.70878812538E+02  0.00000000000E+00 0.  1.
         12    1    4    4    0    0 -0.48121293294E+02  0.29421760485E+02  0.19565724166E+02  0.59700221277E+02  0.00000000000E+00 0. -1.
         -5    1    5    5    0  502  0.84733005413E+02  0.25183412951E+02  0.40376194325E+02  0.97294468303E+02  0.47000000000E+01 0.  1.
         13    1    6    6    0    0 -0.77917866070E+01  0.70625153616E+02 -0.17217596225E+02  0.73109984828E+02  0.00000000000E+00 0. -1.
        -14    1    6    6    0    0  0.21777350131E+02 -0.43564321951E+00 -0.47338716213E+02  0.52109469547E+02  0.00000000000E+00 0.  1.
<mgrwt>
<rscale>  2 0.22063878E+03</rscale>
<asrwt>0</asrwt>
<pdfrwt beam="1">  1       21 0.49649226E-01 0.22119622E+03</pdfrwt>
<pdfrwt beam="2">  1       21 0.27226097E-01 0.22119622E+03</pdfrwt>
<totfact> 0.49060164E+04</totfact>
</mgrwt>
</event>
<event>
12    1  0.1019868E-001  0.1753020E+03  0.7546771E-02  0.1172805E+00
         21   -1    0    0  503  502  0.00000000000E+00  0.00000000000E+00  0.10635286564E+03  0.10635286564E+03  0.00000000000E+00 0.  1.
         21   -1    0    0  501  503 -0.00000000000E+00 -0.00000000000E+00 -0.33928298544E+03  0.33928298544E+03  0.00000000000E+00 0.  1.
          6    2    1    2  501    0 -0.48594356728E+01  0.86726193192E+01 -0.28152986677E+02  0.17607235900E+03  0.17352249567E+03 0.  0.
         24    2    3    3    0    0  0.62810340547E+02  0.14450290182E+02 -0.21845641412E+02  0.10770238973E+03  0.83478278245E+02 0.  0.
         -6    2    1    2    0  502  0.48594356728E+01 -0.86726193192E+01 -0.20477713312E+03  0.26956349207E+03  0.17501992334E+03 0.  0.
        -24    2    5    5    0    0 -0.53084532756E+02 -0.45925014163E+02 -0.13997956645E+03  0.17487421577E+03  0.77843675241E+02 0.  0.
          5    1    3    3  501    0 -0.67669776220E+02 -0.57776708626E+01 -0.63073452640E+01  0.68369969274E+02  0.47000000000E+01 0. -1.
        -11    1    4    4    0    0  0.47166280084E+01  0.41222048446E+02 -0.91985511269E+01  0.42498437627E+02  0.00000000000E+00 0.  1.
         12    1    4    4    0    0  0.58093712538E+02 -0.26771758264E+02 -0.12647090286E+02  0.65203952102E+02  0.00000000000E+00 0. -1.
         -5    1    5    5    0  502  0.57943968428E+02  0.37252394844E+02 -0.64797566674E+02  0.94689276298E+02  0.47000000000E+01 0.  1.
         11    1    6    6    0    0 -0.38617746259E+02  0.15501044773E+02 -0.59355050892E+02  0.72488859707E+02  0.00000000000E+00 0. -1.
        -12    1    6    6    0    0 -0.14466786497E+02 -0.61426058936E+02 -0.80624515557E+02  0.10238535607E+03  0.00000000000E+00 0.  1.
<mgrwt>
<rscale>  2 0.17492708E+03</rscale>
<asrwt>0</asrwt>
<pdfrwt beam="1">  1       21 0.16361979E-01 0.17530203E+03</pdfrwt>
<pdfrwt beam="2">  1       21 0.52197382E-01 0.17530203E+03</pdfrwt>
<totfact> 0.11728856E+05</totfact>
</mgrwt>
</event>
<event>
12    1  0.1019868E-001  0.1870440E+03  0.7546771E-02  0.1161598E+00
         21   -1    0    0  501  502  0.00000000000E+00  0.00000000000E+00  0.15358074607E+03  0.15358074607E+03  0.00000000000E+00 0.  1.
         21   -1    0    0  502  503 -0.00000000000E+00 -0.00000000000E+00 -0.25988023890E+03  0.25988023890E+03  0.00000000000E+00 0.  1.
         -6    2    1    2    0  503  0.28916538921E+02 -0.60488028492E+02 -0.12813547272E+03  0.22514667713E+03  0.17256117478E+03 0.  0.
        -24    2    3    3    0    0  0.71746252891E+02  0.72272853318E+00 -0.87838712889E+02  0.14013456019E+03  0.82304364024E+02 0.  0.
          6    2    1    2  501    0 -0.28916538921E+02  0.60488028492E+02  0.21835979879E+02  0.18831430784E+03  0.17461529344E+03 0.  0.
         24    2    5    5    0    0 -0.26306821161E+02  0.71782621466E+01  0.74264648028E+02  0.11335033610E+03  0.81175639572E+02 0.  0.
          5    1    5    5  501    0 -0.26097177596E+01  0.53309766345E+02 -0.52428668150E+02  0.74963971736E+02  0.47000000000E+01 0. -1.
        -11    1    6    6    0    0  0.13716212148E+02  0.34337449717E+02  0.27592683075E+02  0.46136223166E+02  0.00000000000E+00 0.  1.
         12    1    6    6    0    0 -0.40023033309E+02 -0.27159187570E+02  0.46671964953E+02  0.67214112933E+02  0.00000000000E+00 0. -1.
         -5    1    3    3    0  503 -0.42829713970E+02 -0.61210757025E+02 -0.40296759826E+02  0.85012116941E+02  0.47000000000E+01 0.  1.
         13    1    4    4    0    0  0.98715201116E+01  0.13883503204E+02  0.12770543033E+02  0.21290498818E+02  0.00000000000E+00 0. -1.
        -14    1    4    4    0    0  0.61874732779E+02 -0.13160774671E+02 -0.10060925592E+03  0.11884406137E+03  0.00000000000E+00 0.  1.
<mgrwt>
<rscale>  2 0.18656314E+03</rscale>
<asrwt>0</asrwt>
<pdfrwt beam="1">  1       21 0.23627807E-01 0.18704403E+03</pdfrwt>
<pdfrwt beam="2">  1       21 0.39981575E-01 0.18704403E+03</pdfrwt>
<totfact> 0.10189516E+05</totfact>
</mgrwt>
</event>
<event>
12    1  0.1019868E-001  0.1945146E+03  0.7546771E-02  0.1154642E+00
         21   -1    0    0  501  502  0.00000000000E+00  0.00000000000E+00  0.84765890168E+03  0.84765890168E+03  0.00000000000E+00 0.  1.
         21   -1    0    0  502  503 -0.00000000000E+00 -0.00000000000E+00 -0.13077930654E+03  0.13077930654E+03  0.00000000000E+00 0.  1.
         -6    2    1    2    0  503  0.74070913220E+02 -0.48885700116E+02 -0.38795977798E+02  0.19834584681E+03  0.17308851838E+03 0.  0.
        -24    2    3    3    0    0  0.77733254933E+02  0.14210471200E+01  0.28956505234E+02  0.11374873976E+03  0.77819138422E+02 0.  0.
          6    2    1    2  501    0 -0.74070913220E+02  0.48885700116E+02  0.75567557293E+03  0.78009236141E+03  0.17211103664E+03 0.  0.
         24    2    5    5    0    0 -0.11658878375E+03  0.30059471190E+02  0.54260769193E+03  0.56195889739E+03  0.82934785850E+02 0.  0.
          5    1    5    5  501    0  0.42517870532E+02  0.18826228926E+02  0.21306788100E+03  0.21813346402E+03  0.47000000000E+01 0. -1.
        -13    1    6    6    0    0 -0.28452935511E+01 -0.18261262684E+02  0.12792720251E+03  0.12925532311E+03  0.00000000000E+00 0.  1.
         14    1    6    6    0    0 -0.11374349020E+03  0.48320733874E+02  0.41468048942E+03  0.43270357428E+03  0.00000000000E+00 0. -1.
         -5    1    3    3    0  503 -0.36623417137E+01 -0.50306747236E+02 -0.67752483033E+02  0.84597107051E+02  0.47000000000E+01 0.  1.
         13    1    4    4    0    0 -0.17198837563E+01  0.22983272918E+02 -0.67446029294E+01  0.24014131316E+02  0.00000000000E+00 0. -1.
        -14    1    4    4    0    0  0.79453138690E+02 -0.21562225798E+02  0.35701108164E+02  0.89734608447E+02  0.00000000000E+00 0.  1.
<mgrwt>
<rscale>  2 0.19429696E+03</rscale>
<asrwt>0</asrwt>
<pdfrwt beam="1">  1       21 0.13040906E+00 0.19451464E+03</pdfrwt>
<pdfrwt beam="2">  1       21 0.20119894E-01 0.19451464E+03</pdfrwt>
<totfact> 0.97759132E+03</totfact>
</mgrwt>
</event>
<event>
12    1  0.1019868E-001  0.1839528E+03  0.7546771E-02  0.1164703E+00
         21   -1    0    0  501  502  0.00000000000E+00  0.00000000000E+00  0.28839454883E+03  0.28839454883E+03  0.00000000000E+00 0. -1.
         21   -1    0    0  502  503 -0.00000000000E+00 -0.00000000000E+00 -0.17948153705E+03  0.17948153705E+03  0.00000000000E+00 0. -1.
         -6    2    1    2    0  503  0.93651071704E+01  0.53920962802E+02  0.19381729140E+03  0.26527454321E+03  0.17265649529E+03 0.  0.
        -24    2    3    3    0    0 -0.54829450717E+02  0.67309494337E+02  0.13327720243E+03  0.17590236403E+03  0.75113196495E+02 0.  0.
          6    2    1    2  501    0 -0.93651071704E+01 -0.53920962802E+02 -0.84904279623E+02  0.20260154267E+03  0.17562309908E+03 0.  0.
         24    2    5    5    0    0 -0.59796233643E+02  0.30630903907E+01 -0.75975102397E+02  0.12584021750E+03  0.80489577430E+02 0.  0.
          5    1    5    5  501    0  0.50431126473E+02 -0.56984053193E+02 -0.89291772258E+01  0.76761325168E+02  0.47000000000E+01 0. -1.
        -13    1    6    6    0    0 -0.39385040249E+02  0.28238020723E+02 -0.61379562845E+01  0.48849173147E+02  0.00000000000E+00 0.  1.
         14    1    6    6    0    0 -0.20411193394E+02 -0.25174930332E+02 -0.69837146113E+02  0.76991044351E+02  0.00000000000E+00 0. -1.
         -5    1    3    3    0  503  0.64194557888E+02 -0.13388531535E+02  0.60540088969E+02  0.89372179180E+02  0.47000000000E+01 0.  1.
         13    1    4    4    0    0  0.18697327502E+02  0.15825636368E+02  0.35968121848E+02  0.43517199030E+02  0.00000000000E+00 0. -1.
        -14    1    4    4    0    0 -0.73526778219E+02  0.51483857969E+02  0.97309080585E+02  0.13238516500E+03  0.00000000000E+00 0.  1.
<mgrwt>
<rscale>  2 0.18324119E+03</rscale>
<asrwt>0</asrwt>
<pdfrwt beam="1">  1       21 0.44368392E-01 0.18395284E+03</pdfrwt>
<pdfrwt beam="2">  1       21 0.27612544E-01 0.18395284E+03</pdfrwt>
<totfact> 0.61288571E+04</totfact>
</mgrwt>
</event>
<event>
12    1  0.1019868E-001  0.3503339E+03  0.7546771E-02  0.1062526E+00
         21   -1    0    0  503  502  0.00000000000E+00  0.00000000000E+00  0.61226235015E+02  0.61226235015E+02  0.00000000000E+00 0.  1.
         21   -1    0    0  501  503 -0.00000000000E+00 -0.00000000000E+00 -0.20050832175E+04  0.20050832175E+04  0.00000000000E+00 0. -1.
          6    2    1    2  501    0 -0.23131955882E+03  0.19725558792E+03 -0.93152941250E+03  0.99522907176E+03  0.17411304849E+03 0.  0.
         24    2    3    3    0    0 -0.24741800311E+03  0.15098498440E+03 -0.80573629397E+03  0.86015084505E+03  0.81463900284E+02 0.  0.
         -6    2    1    2    0  502  0.23131955882E+03 -0.19725558792E+03 -0.10123275700E+04  0.10710803807E+04  0.17316918849E+03 0.  0.
        -24    2    5    5    0    0  0.21691159887E+03 -0.10817256046E+03 -0.80504899946E+03  0.84496122879E+03  0.84283106570E+02 0.  0.
          5    1    3    3  501    0  0.16098444290E+02  0.46270603526E+02 -0.12579311853E+03  0.13507822671E+03  0.47000000000E+01 0. -1.
        -11    1    4    4    0    0 -0.13395777633E+03  0.58409234301E+02 -0.30098102093E+03  0.33458317269E+03  0.00000000000E+00 0.  1.
         12    1    4    4    0    0 -0.11346022678E+03  0.92575750097E+02 -0.50475527304E+03  0.52556767236E+03  0.00000000000E+00 0. -1.
         -5    1    5    5    0  502  0.14407959942E+02 -0.89083027467E+02 -0.20727857051E+03  0.22611915196E+03  0.47000000000E+01 0.  1.
         11    1    6    6    0    0  0.51208903339E+02 -0.23204950962E+02 -0.32932046713E+03  0.33408500655E+03  0.00000000000E+00 0. -1.
        -12    1    6    6    0    0  0.16570269554E+03 -0.84967609495E+02 -0.47572853233E+03  0.51087622224E+03  0.00000000000E+00 0.  1.
<mgrwt>
<rscale>  2 0.35021683E+03</rscale>
<asrwt>0</asrwt>
<pdfrwt beam="1">  1       21 0.94194214E-02 0.35033392E+03</pdfrwt>
<pdfrwt beam="2">  1       21 0.30847432E+00 0.35033392E+03</pdfrwt>
<totfact> 0.23820803E+03</totfact>
</mgrwt>
</event>
<event>
12    1  0.1019868E-001  0.2481357E+03  0.7546771E-02  0.1114708E+00
         21   -1    0    0  503  502  0.00000000000E+00  0.00000000000E+00  0.11105558089E+03  0.11105558089E+03  0.00000000000E+00 0.  1.
         21   -1    0    0  501  503 -0.00000000000E+00 -0.00000000000E+00 -0.89970365938E+03  0.89970365938E+03  0.00000000000E+00 0. -1.
          6    2    1    2  501    0 -0.17354208526E+03 -0.36489392767E+02 -0.70946038788E+03  0.75160186480E+03  0.17355975935E+03 0.  0.
         24    2    3    3    0    0 -0.13459401338E+03  0.37613716860E+02 -0.40967316256E+03  0.44030988992E+03  0.80686795138E+02 0.  0.
         -6    2    1    2    0  502  0.17354208526E+03  0.36489392767E+02 -0.79187690614E+02  0.25915737546E+03  0.17159115295E+03 0.  0.
        -24    2    5    5    0    0  0.13572614072E+03 -0.19055137290E+02 -0.10123750883E+03  0.18828054594E+03  0.80098984088E+02 0.  0.
          5    1    3    3  501    0 -0.38948071881E+02 -0.74103109627E+02 -0.29978722532E+03  0.31129197488E+03  0.47000000000E+01 0. -1.
        -13    1    4    4    0    0 -0.59431016933E+02 -0.23875096604E+02 -0.17401658368E+03  0.18542879336E+03  0.00000000000E+00 0.  1.
         14    1    4    4    0    0 -0.75162996449E+02  0.61488813464E+02 -0.23565657887E+03  0.25488109656E+03  0.00000000000E+00 0. -1.
         -5    1    5    5    0  502  0.37815944539E+02  0.55544530056E+02  0.22049818213E+02  0.70876829527E+02  0.47000000000E+01 0.  1.
         13    1    6    6    0    0  0.14124829352E+03 -0.10074131136E+02 -0.10582688812E+03  0.17678206580E+03  0.00000000000E+00 0. -1.
        -14    1    6    6    0    0 -0.55221527977E+01 -0.89810061538E+01  0.45893792936E+01  0.11498480132E+02  0.00000000000E+00 0.  1.
<mgrwt>
<rscale>  2 0.24779174E+03</rscale>
<asrwt>0</asrwt>
<pdfrwt beam="1">  1       21 0.17085474E-01 0.24813569E+03</pdfrwt>
<pdfrwt beam="2">  1       21 0.13841594E+00 0.24813569E+03</pdfrwt>
<totfact> 0.10978913E+04</totfact>
</mgrwt>
</event>
<event>
12    1  0.1019868E-001  0.2328153E+03  0.7546771E-02  0.1124697E+00
         21   -1    0    0  501  502  0.00000000000E+00  0.00000000000E+00  0.14042428729E+04  0.14042428729E+04  0.00000000000E+00 0.  1.
         21   -1    0    0  502  503 -0.00000000000E+00 -0.00000000000E+00 -0.38587716269E+02  0.38587716269E+02  0.00000000000E+00 0. -1.
         -6    2    1    2    0  503  0.88033193540E+02  0.12924175545E+03  0.67047245150E+03  0.70969897493E+03  0.17229640820E+03 0.  0.
        -24    2    3    3    0    0  0.14538472938E+02 -0.21939318056E+01  0.21181035370E+03  0.22692591872E+03  0.80097229173E+02 0.  0.
          6    2    1    2  501    0 -0.88033193540E+02 -0.12924175545E+03  0.69518270510E+03  0.73313161421E+03  0.17248100118E+03 0.  0.
         24    2    5    5    0    0 -0.16470511850E+02 -0.11142761883E+03  0.58067263627E+03  0.59684806151E+03  0.79746510969E+02 0.  0.
          5    1    5    5  501    0 -0.71562681690E+02 -0.17814136623E+02  0.11451006883E+03  0.13628355270E+03  0.47000000000E+01 0. -1.
        -13    1    6    6    0    0  0.70717527482E+01 -0.11409138504E+03  0.47858727924E+03  0.49204942606E+03  0.00000000000E+00 0.  1.
         14    1    6    6    0    0 -0.23542264598E+02  0.26637662157E+01  0.10208535703E+03  0.10479863545E+03  0.00000000000E+00 0. -1.
         -5    1    3    3    0  503  0.73494720602E+02  0.13143568726E+03  0.45866209781E+03  0.48277305622E+03  0.47000000000E+01 0.  1.
         13    1    4    4    0    0  0.38288282927E+02 -0.12554268328E+02  0.18614199936E+03  0.19045326510E+03  0.00000000000E+00 0. -1.
        -14    1    4    4    0    0 -0.23749809989E+02  0.10360336522E+02  0.25668354335E+02  0.36472653614E+02  0.00000000000E+00 0.  1.
<mgrwt>
<rscale>  2 0.23278113E+03</rscale>
<asrwt>0</asrwt>
<pdfrwt beam="1">  1       21 0.21603733E+00 0.23281531E+03</pdfrwt>
<pdfrwt beam="2">  1       21 0.59365728E-02 0.23281531E+03</pdfrwt>
<totfact> 0.20740020E+04</totfact>
</mgrwt>
</event>
<event>
12    1  0.1019868E-001  0.3396601E+03  0.7546771E-02  0.1066979E+00
         21   -1    0    0  501  502  0.00000000000E+00  0.00000000000E+00  0.28060742150E+03  0.28060742150E+03  0.00000000000E+00 0.  1.
         21   -1    0    0  502  503 -0.00000000000E+00 -0.00000000000E+00 -0.41070342700E+03  0.41070342700E+03  0.00000000000E+00 0. -1.
         -6    2    1    2    0  503 -0.29162545904E+03 -0.75843475828E+01 -0.65432025553E+02  0.34590510338E+03  0.17397143411E+03 0.  0.
        -24    2    3    3    0    0 -0.12980547789E+03  0.46332951346E+02  0.11337859202E+02  0.15879955395E+03  0.78054768023E+02 0.  0.
          6    2    1    2  501    0  0.29162545904E+03  0.75843475828E+01 -0.64663979945E+02  0.34540574513E+03  0.17326502180E+03 0.  0.
         24    2    5    5    0    0  0.15901362835E+03  0.15759299406E+02  0.28825544305E+02  0.18287849012E+03  0.84142383053E+02 0.  0.
          5    1    5    5  501    0  0.13261183069E+03 -0.81749518228E+01 -0.93489524250E+02  0.16252725501E+03  0.47000000000E+01 0. -1.
        -11    1    6    6    0    0 -0.75495014592E+00 -0.96690103852E+01 -0.12579968160E+02  0.15884436108E+02  0.00000000000E+00 0.  1.
         12    1    6    6    0    0  0.15976857850E+03  0.25428309791E+02  0.41405512465E+02  0.16699405401E+03  0.00000000000E+00 0. -1.
         -5    1    3    3    0  503 -0.16181998115E+03 -0.53917298929E+02 -0.76769884755E+02  0.18710554943E+03  0.47000000000E+01 0.  1.
         11    1    4    4    0    0  0.22141259316E+01 -0.13091821470E+02  0.38678667987E+01  0.13829625325E+02  0.00000000000E+00 0. -1.
        -12    1    4    4    0    0 -0.13201960383E+03  0.59424772817E+02  0.74699924029E+01  0.14496992862E+03  0.00000000000E+00 0.  1.
<mgrwt>
<rscale>  2 0.33956976E+03</rscale>
<asrwt>0</asrwt>
<pdfrwt beam="1">  1       21 0.43170373E-01 0.33966011E+03</pdfrwt>
<pdfrwt beam="2">  1       21 0.63185142E-01 0.33966011E+03</pdfrwt>
<totfact> 0.11086215E+04</totfact>
</mgrwt>
</event>
<event>
12    1  0.1019868E-001  0.2184155E+03  0.7546771E-02  0.1135314E+00
         21   -1    0    0  503  502  0.00000000000E+00  0.00000000000E+00  0.10919695616E+03  0.10919695616E+03  0.00000000000E+00 0.  1.
         21   -1    0    0  501  503 -0.00000000000E+00 -0.00000000000E+00 -0.43505304138E+03  0.43505304138E+03  0.00000000000E+00 0.  1.
          6    2    1    2  501    0 -0.13113244562E+03 -0.84124890051E+00 -0.17380213192E+03  0.27811894523E+03  0.17305068806E+03 0.  0.
         24    2    3    3    0    0 -0.11648455608E+03  0.58387207248E+01 -0.20083824299E+03  0.24630347786E+03  0.82016223350E+02 0.  0.
         -6    2    1    2    0  502  0.13113244562E+03  0.84124890051E+00 -0.15205395330E+03  0.26613105232E+03  0.17466798876E+03 0.  0.
        -24    2    5    5    0    0  0.97221086659E+02  0.12350904242E+02 -0.18029030085E+03  0.22028529181E+03  0.80103262599E+02 0.  0.
          5    1    3    3  501    0 -0.14647889540E+02 -0.66799696253E+01  0.27036111066E+02  0.31815467367E+02  0.47000000000E+01 0. -1.
        -11    1    4    4    0    0 -0.27168045937E+02  0.38718924670E+02 -0.62270289515E+02  0.78197485919E+02  0.00000000000E+00 0.  1.
         12    1    4    4    0    0 -0.89316510148E+02 -0.32880203945E+02 -0.13856795348E+03  0.16810599194E+03  0.00000000000E+00 0. -1.
         -5    1    5    5    0  502  0.33911358966E+02 -0.11509655341E+02  0.28236347556E+02  0.45845760505E+02  0.47000000000E+01 0.  1.
         11    1    6    6    0    0  0.73724613761E+02  0.43285746463E+02 -0.10362243555E+03  0.13433757356E+03  0.00000000000E+00 0. -1.
        -12    1    6    6    0    0  0.23496472899E+02 -0.30934842221E+02 -0.76667865300E+02  0.85947718246E+02  0.00000000000E+00 0.  1.
<mgrwt>
<rscale>  2 0.21809199E+03</rscale>
<asrwt>0</asrwt>
<pdfrwt beam="1">  1       21 0.16799531E-01 0.21841550E+03</pdfrwt>
<pdfrwt beam="2">  1       21 0.66931238E-01 0.21841550E+03</pdfrwt>
<totfact> 0.64437886E+04</totfact>
</mgrwt>
</event>
<event>
12    1  0.1019868E-001  0.1751553E+03  0.7546771E-02  0.1172586E+00
         21   -1    0    0  501  502  0.00000000000E+00  0.00000000000E+00  0.47880204297E+02  0.47880204297E+02  0.00000000000E+00 0.  1.
         21   -1    0    0  502  503 -0.00000000000E+00 -0.00000000000E+00 -0.71902972516E+03  0.71902972516E+03  0.00000000000E+00 0.  1.
         -6    2    1    2    0  503  0.27314072467E+02  0.21091754471E+01 -0.46217887297E+03  0.49424144511E+03  0.17295892076E+03 0.  0.
        -24    2    3    3    0    0  0.50535240681E+02 -0.51382438025E+02 -0.38473121630E+03  0.39718061424E+03  0.67382238376E+02 0.  0.
          6    2    1    2  501    0 -0.27314072467E+02 -0.21091754471E+01 -0.20897064789E+03  0.27266848434E+03  0.17299960548E+03 0.  0.
         24    2    5    5    0    0  0.38634980738E+02 -0.40707687802E+02 -0.99282425909E+02  0.13890481657E+03  0.79295462598E+02 0.  0.
          5    1    5    5  501    0 -0.65949053206E+02  0.38598512355E+02 -0.10968822198E+03  0.13376366777E+03  0.47000000000E+01 0. -1.
        -11    1    6    6    0    0  0.58978418742E+01  0.17766815062E+02  0.47681158700E+00  0.18726227743E+02  0.00000000000E+00 0.  1.
         12    1    6    6    0    0  0.32737138864E+02 -0.58474502864E+02 -0.99759237496E+02  0.12017858882E+03  0.00000000000E+00 0. -1.
         -5    1    3    3    0  503 -0.23221168213E+02  0.53491613473E+02 -0.77447656673E+02  0.97060830870E+02  0.47000000000E+01 0.  1.
         13    1    4    4    0    0  0.79919440097E+01  0.74595203052E+01 -0.80796714767E+01  0.13593995123E+02  0.00000000000E+00 0. -1.
        -14    1    4    4    0    0  0.42543296671E+02 -0.58841958331E+02 -0.37665154482E+03  0.38358661912E+03  0.00000000000E+00 0.  1.
<mgrwt>
<rscale>  2 0.17514523E+03</rscale>
<asrwt>0</asrwt>
<pdfrwt beam="1">  1       21 0.73661857E-02 0.17515528E+03</pdfrwt>
<pdfrwt beam="2">  1       21 0.11061995E+00 0.17515528E+03</pdfrwt>
<totfact> 0.89919214E+04</totfact>
</mgrwt>
</event>
<event>
12    1  0.1019868E-001  0.1986627E+03  0.7546771E-02  0.1151199E+00
         21   -1    0    0  503  502  0.00000000000E+00  0.00000000000E+00  0.10081552613E+04  0.10081552613E+04  0.00000000000E+00 0.  1.
         21   -1    0    0  501  503 -0.00000000000E+00 -0.00000000000E+00 -0.42082498358E+02  0.42082498358E+02  0.00000000000E+00 0.  1.
          6    2    1    2  501    0  0.86323624461E+02  0.39694463900E+02  0.63036501665E+03  0.66092884137E+03  0.17446908186E+03 0.  0.
         24    2    3    3    0    0  0.93923147629E+02 -0.31068452222E+01  0.58498816400E+03  0.59791413219E+03  0.80367576269E+02 0.  0.
         -6    2    1    2    0  502 -0.86323624461E+02 -0.39694463900E+02  0.33570774626E+03  0.38930891826E+03  0.17272615417E+03 0.  0.
        -24    2    5    5    0    0  0.18604743584E+02 -0.20966967744E+02  0.19576931491E+03  0.21333864776E+03  0.80012522434E+02 0.  0.
          5    1    3    3  501    0 -0.75995231678E+01  0.42801309122E+02  0.45376852659E+02  0.63014709174E+02  0.47000000000E+01 0. -1.
        -13    1    4    4    0    0  0.94709124445E+02  0.22287566614E+02  0.49134004091E+03  0.50088081384E+03  0.00000000000E+00 0.  1.
         14    1    4    4    0    0 -0.78597681599E+00 -0.25394411836E+02  0.93648123089E+02  0.97033318351E+02  0.00000000000E+00 0. -1.
         -5    1    5    5    0  502 -0.10492836805E+03 -0.18727496156E+02  0.13993843135E+03  0.17597027051E+03  0.47000000000E+01 0.  1.
         13    1    6    6    0    0  0.76583230767E+01  0.30605364929E+02  0.62270326482E+02  0.69806388210E+02  0.00000000000E+00 0. -1.
        -14    1    6    6    0    0  0.10946420507E+02 -0.51572332673E+02  0.13349898843E+03  0.14353225955E+03  0.00000000000E+00 0.  1.
<mgrwt>
<rscale>  2 0.19827939E+03</rscale>
<asrwt>0</asrwt>
<pdfrwt beam="1">  1       21 0.15510079E+00 0.19866273E+03</pdfrwt>
<pdfrwt beam="2">  1       21 0.64742313E-02 0.19866273E+03</pdfrwt>
<totfact> 0.47182010E+04</totfact>
</mgrwt>
</event>
<event>
12    1  0.1019868E-001  0.2052611E+03  0.7546771E-02  0.1146009E+00
         21   -1    0    0  503  502  0.00000000000E+00  0.00000000000E+00  0.16056258600E+03  0.16056258600E+03  0.00000000000E+00 0.  1.
         21   -1    0    0  501  503 -0.00000000000E+00 -0.00000000000E+00 -0.39467057165E+03  0.39467057165E+03  0.00000000000E+00 0.  1.
          6    2    1    2  501    0  0.89237702294E+02 -0.54021120942E+02 -0.27955423370E+03  0.34500118593E+03  0.17318660368E+03 0.  0.
         24    2    3    3    0    0  0.10722073578E+03 -0.83147671679E+02 -0.26329609993E+03  0.30681529370E+03  0.80006041801E+02 0.  0.
         -6    2    1    2    0  502 -0.89237702294E+02  0.54021120942E+02  0.45446248048E+02  0.21023197172E+03  0.17677802876E+03 0.  0.
        -24    2    5    5    0    0 -0.21321974634E+02  0.57039622790E+02 -0.54994789708E+01  0.12514839799E+03  0.10919584278E+03 0.  0.
          5    1    3    3  501    0 -0.17983033491E+02  0.29126550737E+02 -0.16258133776E+02  0.38185892228E+02  0.47000000000E+01 0. -1.
        -13    1    4    4    0    0  0.75610049824E+02 -0.17501765539E+02 -0.18078476582E+03  0.19673922584E+03  0.00000000000E+00 0.  1.
         14    1    4    4    0    0  0.31610685961E+02 -0.65645906141E+02 -0.82511334109E+02  0.11007606786E+03  0.00000000000E+00 0. -1.
         -5    1    5    5    0  502 -0.67915727660E+02 -0.30185018478E+01  0.50945727019E+02  0.85083573729E+02  0.47000000000E+01 0.  1.
         13    1    6    6    0    0 -0.36701739686E+02  0.22896954883E+02 -0.50572322665E+02  0.66549590973E+02  0.00000000000E+00 0. -1.
        -14    1    6    6    0    0  0.15379765052E+02  0.34142667907E+02  0.45072843694E+02  0.58598807015E+02  0.00000000000E+00 0.  1.
<mgrwt>
<rscale>  2 0.20448551E+03</rscale>
<asrwt>0</asrwt>
<pdfrwt beam="1">  1       21 0.24701937E-01 0.20526110E+03</pdfrwt>
<pdfrwt beam="2">  1       21 0.60718549E-01 0.20526110E+03</pdfrwt>
<totfact> 0.38886305E+04</totfact>
</mgrwt>
</event>
<event>
12    1  0.1019868E-001  0.1932927E+03  0.7546771E-02  0.1155657E+00
         21   -1    0    0  503  502  0.00000000000E+00  0.00000000000E+00  0.21407766259E+03  0.21407766259E+03  0.00000000000E+00 0.  1.
         21   -1    0    0  501  503 -0.00000000000E+00 -0.00000000000E+00 -0.18146132096E+03  0.18146132096E+03  0.00000000000E+00 0. -1.
          6    2    1    2  501    0 -0.26072066139E+02  0.82267021239E+02  0.56479167446E+02  0.20137515966E+03  0.17295792308E+03 0.  0.
         24    2    3    3    0    0 -0.36746272931E+02  0.11199672828E+03  0.75690092849E+02  0.16410662298E+03  0.85489401866E+02 0.  0.
         -6    2    1    2    0  502  0.26072066139E+02 -0.82267021239E+02 -0.23862825813E+02  0.19416382390E+03  0.17228621720E+03 0.  0.
        -24    2    5    5    0    0 -0.16048660232E+02 -0.58487118029E+02 -0.73123071940E+02  0.12496627166E+03  0.81186716481E+02 0.  0.
          5    1    3    3  501    0  0.10674206792E+02 -0.29729707036E+02 -0.19210925403E+02  0.37268536676E+02  0.47000000000E+01 0. -1.
        -11    1    4    4    0    0 -0.55439325169E+02  0.43643715953E+02  0.57307888685E+02  0.90898222331E+02  0.00000000000E+00 0.  1.
         12    1    4    4    0    0  0.18693052238E+02  0.68353012323E+02  0.18382204164E+02  0.73208400648E+02  0.00000000000E+00 0. -1.
         -5    1    5    5    0  502  0.42120726371E+02 -0.23779903210E+02  0.49260246127E+02  0.69197552234E+02  0.47000000000E+01 0.  1.
         11    1    6    6    0    0  0.18357673419E+02  0.43400415419E+01 -0.43569522837E+02  0.47477820655E+02  0.00000000000E+00 0. -1.
        -12    1    6    6    0    0 -0.34406333651E+02 -0.62827159571E+02 -0.29553549103E+02  0.77488451009E+02  0.00000000000E+00 0.  1.
<mgrwt>
<rscale>  2 0.19314230E+03</rscale>
<asrwt>0</asrwt>
<pdfrwt beam="1">  1       21 0.32935025E-01 0.19329268E+03</pdfrwt>
<pdfrwt beam="2">  1       21 0.27917126E-01 0.19329268E+03</pdfrwt>
<totfact> 0.10873160E+05</totfact>
</mgrwt>
</event>
<event>
12    1  0.1019868E-001  0.3939549E+03  0.7546771E-02  0.1046410E+00
         21   -1    0    0  501  502  0.00000000000E+00  0.00000000000E+00  0.41297231183E+03  0.41297231183E+03  0.00000000000E+00 0. -1.
         21   -1    0    0  502  503 -0.00000000000E+00 -0.00000000000E+00 -0.37105172694E+03  0.37105172694E+03  0.00000000000E+00 0.  1.
         -6    2    1    2    0  503 -0.27274754935E+02 -0.34574602950E+03  0.38600289927E+02  0.39005515723E+03  0.17426650316E+03 0.  0.
        -24    2    3    3    0    0 -0.58372931450E+02 -0.11504003947E+03  0.38921924117E+02  0.15721498915E+03  0.80993992558E+02 0.  0.
          6    2    1    2  501    0  0.27274754935E+02  0.34574602950E+03  0.33202949691E+01  0.39396888154E+03  0.18685884001E+03 0.  0.
         24    2    5    5    0    0 -0.35533208433E+02  0.25757679587E+03 -0.43725621960E+02  0.27584156750E+03  0.81044590663E+02 0.  0.
          5    1    5    5  501    0  0.62807963368E+02  0.88169233639E+02  0.47045916929E+02  0.11812731404E+03  0.47000000000E+01 0. -1.
        -11    1    6    6    0    0 -0.53377450715E+02  0.17500324388E+03 -0.53936615866E+02  0.19074707375E+03  0.00000000000E+00 0.  1.
         12    1    6    6    0    0  0.17844242282E+02  0.82573551986E+02  0.10210993906E+02  0.85094493751E+02  0.00000000000E+00 0. -1.
         -5    1    3    3    0  503  0.31098176515E+02 -0.23070599004E+03 -0.32163419014E+00  0.23284016808E+03  0.47000000000E+01 0.  1.
         11    1    4    4    0    0 -0.84676686534E+01 -0.98254619229E+02  0.34075635715E+02  0.10433992794E+03  0.00000000000E+00 0. -1.
        -12    1    4    4    0    0 -0.49905262796E+02 -0.16785420238E+02  0.48462884017E+01  0.52875061216E+02  0.00000000000E+00 0.  1.
<mgrwt>
<rscale>  2 0.39249318E+03</rscale>
<asrwt>0</asrwt>
<pdfrwt beam="1">  1       21 0.63534202E-01 0.39395489E+03</pdfrwt>
<pdfrwt beam="2">  1       21 0.57084881E-01 0.39395489E+03</pdfrwt>
<totfact> 0.59411630E+03</totfact>
</mgrwt>
</event>
<event>
12    1  0.1019868E-001  0.1809135E+03  0.7546771E-02  0.1167531E+00
         21   -1    0    0  503  502  0.00000000000E+00  0.00000000000E+00  0.18456403898E+03  0.18456403898E+03  0.00000000000E+00 0.  1.
         21   -1    0    0  501  503 -0.00000000000E+00 -0.00000000000E+00 -0.22196571473E+03  0.22196571473E+03  0.00000000000E+00 0.  1.
          6    2    1    2  501    0 -0.54688032292E+02  0.11963045129E+02 -0.11242119208E+03  0.21299817804E+03  0.17203431081E+03 0.  0.
         24    2    3    3    0    0  0.17252735967E+02 -0.46558030583E+01 -0.11206230591E+03  0.13901251016E+03  0.80294359534E+02 0.  0.
         -6    2    1    2    0  502  0.54688032292E+02 -0.11963045129E+02  0.75019516342E+02  0.19353157567E+03  0.16938904222E+03 0.  0.
        -24    2    5    5    0    0  0.19611104046E+02  0.13686244268E+02 -0.21581531880E+02  0.87502667068E+02  0.81357516811E+02 0.  0.
          5    1    3    3  501    0 -0.71940768260E+02  0.16618848187E+02 -0.35888616884E+00  0.73985667883E+02  0.47000000000E+01 0. -1.
        -13    1    4    4    0    0 -0.25737706976E+02 -0.18750095884E+01 -0.83318423724E+02  0.87223305104E+02  0.00000000000E+00 0.  1.
         14    1    4    4    0    0  0.42990442943E+02 -0.27807934699E+01 -0.28743882191E+02  0.51789205054E+02  0.00000000000E+00 0. -1.
         -5    1    5    5    0  502  0.35076928246E+02 -0.25649289397E+02  0.96601048222E+02  0.10602890860E+03  0.47000000000E+01 0.  1.
         13    1    6    6    0    0 -0.98839478733E+01  0.14655480260E+02 -0.45948798806E+02  0.49231774688E+02  0.00000000000E+00 0. -1.
        -14    1    6    6    0    0  0.29495051920E+02 -0.96923599207E+00  0.24367266925E+02  0.38270892380E+02  0.00000000000E+00 0.  1.
<mgrwt>
<rscale>  2 0.18028182E+03</rscale>
<asrwt>0</asrwt>
<pdfrwt beam="1">  1       21 0.28394467E-01 0.18091351E+03</pdfrwt>
<pdfrwt beam="2">  1       21 0.34148572E-01 0.18091351E+03</pdfrwt>
<totfact> 0.98417870E+04</totfact>
</mgrwt>
</event>
<event>
12    1  0.1019868E-001  0.1868867E+03  0.7546771E-02  0.1161505E+00
         21   -1    0    0  501  502  0.00000000000E+00  0.00000000000E+00  0.32375733857E+03  0.32375733857E+03  0.00000000000E+00 0. -1.
         21   -1    0    0  502  503 -0.00000000000E+00 -0.00000000000E+00 -0.10737966875E+03  0.10737966875E+03  0.00000000000E+00 0. -1.
         -6    2    1    2    0  503 -0.50985626766E+02 -0.50903886153E+02  0.10599078791E+03  0.21485037779E+03  0.17244099847E+03 0.  0.
        -24    2    3    3    0    0 -0.64233237115E+01 -0.92977675225E+02  0.87810083318E+02  0.15075177719E+03  0.79557403267E+02 0.  0.
          6    2    1    2  501    0  0.50985626766E+02  0.50903886153E+02  0.11038688191E+03  0.21628662953E+03  0.17147566199E+03 0.  0.
         24    2    5    5    0    0  0.15350892615E+02 -0.34411826653E+02  0.77316189031E+02  0.11797912291E+03  0.80755536278E+02 0.  0.
          5    1    5    5  501    0  0.35634734151E+02  0.85315712806E+02  0.33070692879E+02  0.98307506616E+02  0.47000000000E+01 0. -1.
        -13    1    6    6    0    0  0.16604061822E+02 -0.14554228814E+01  0.82874329844E+02  0.84533825607E+02  0.00000000000E+00 0.  1.
         14    1    6    6    0    0 -0.12531692064E+01 -0.32956403772E+02 -0.55581408132E+01  0.33445297307E+02  0.00000000000E+00 0. -1.
         -5    1    3    3    0  503 -0.44562303055E+02  0.42073789073E+02  0.18180704592E+02  0.64098600609E+02  0.47000000000E+01 0.  1.
         13    1    4    4    0    0  0.32048168986E+02 -0.49240219786E+02  0.21674682362E+02  0.62621691413E+02  0.00000000000E+00 0. -1.
        -14    1    4    4    0    0 -0.38471492697E+02 -0.43737455439E+02  0.66135400956E+02  0.88130085773E+02  0.00000000000E+00 0.  1.
<mgrwt>
<rscale>  2 0.18666371E+03</rscale>
<asrwt>0</asrwt>
<pdfrwt beam="1">  1       21 0.49808821E-01 0.18688670E+03</pdfrwt>
<pdfrwt beam="2">  1       21 0.16519949E-01 0.18688670E+03</pdfrwt>
<totfact> 0.12655633E+05</totfact>
</mgrwt>
</event>
<event>
12    1  0.1019868E-001  0.1849466E+03  0.7546771E-02  0.1163178E+00
         21   -1    0    0  501  502  0.00000000000E+00  0.00000000000E+00  0.37543963553E+02  0.37543963553E+02  0.00000000000E+00 0.  1.
         21   -1    0    0  502  503 -0.00000000000E+00 -0.00000000000E+00 -0.91117877730E+03  0.91117877730E+03  0.00000000000E+00 0.  1.
         -6    2    1    2    0  503 -0.35413543360E+02 -0.54893737541E+02 -0.45719104116E+03  0.49305765908E+03  0.17266952709E+03 0.  0.
        -24    2    3    3    0    0 -0.83199589395E+01 -0.32201528369E+02 -0.44186335828E+03  0.45425010136E+03  0.99968830381E+02 0.  0.
          6    2    1    2  501    0  0.35413543360E+02  0.54893737541E+02 -0.41644377259E+03  0.45566508177E+03  0.17302545924E+03 0.  0.
         24    2    5    5    0    0  0.23154824557E+02  0.62866768319E+02 -0.12122047944E+03  0.16004247063E+03  0.80192339461E+02 0.  0.
          5    1    5    5  501    0  0.12258718803E+02 -0.79730307781E+01 -0.29522329314E+03  0.29562261115E+03  0.47000000000E+01 0. -1.
        -11    1    6    6    0    0  0.34961734577E+02  0.49003219473E+02 -0.12732397693E+03  0.14083690392E+03  0.00000000000E+00 0.  1.
         12    1    6    6    0    0 -0.11806910020E+02  0.13863548846E+02  0.61034974913E+01  0.19205566705E+02  0.00000000000E+00 0. -1.
         -5    1    3    3    0  503 -0.27093584420E+02 -0.22692209172E+02 -0.15327682879E+02  0.38807557721E+02  0.47000000000E+01 0.  1.
         13    1    4    4    0    0  0.20072111672E+02  0.20594660607E+02 -0.28292231936E+03  0.28438014788E+03  0.00000000000E+00 0. -1.
        -14    1    4    4    0    0 -0.28392070612E+02 -0.52796188976E+02 -0.15894103892E+03  0.16986995348E+03  0.00000000000E+00 0.  1.
<mgrwt>
<rscale>  2 0.18486332E+03</rscale>
<asrwt>0</asrwt>
<pdfrwt beam="1">  1       21 0.57759943E-02 0.18494662E+03</pdfrwt>
<pdfrwt beam="2">  1       21 0.14018135E+00 0.18494662E+03</pdfrwt>
<totfact> 0.75333067E+04</totfact>
</mgrwt>
</event>
<event>
12    1  0.1019868E-001  0.2550660E+03  0.7546771E-02  0.1110157E+00
         21   -1    0    0  503  502  0.00000000000E+00  0.00000000000E+00  0.42753919284E+03  0.42753919284E+03  0.00000000000E+00 0. -1.
         21   -1    0    0  501  503 -0.00000000000E+00 -0.00000000000E+00 -0.20227204552E+03  0.20227204552E+03  0.00000000000E+00 0.  1.
          6    2    1    2  501    0 -0.11262096080E+03 -0.14904515722E+03 -0.44156926568E+02  0.25885998055E+03  0.17366840721E+03 0.  0.
         24    2    3    3    0    0 -0.75051919947E+02 -0.11614263460E+03 -0.96154422158E+02  0.18661153162E+03  0.80351033432E+02 0.  0.
         -6    2    1    2    0  502  0.11262096080E+03  0.14904515722E+03  0.26942407388E+03  0.37095125781E+03  0.17354412804E+03 0.  0.
        -24    2    5    5    0    0  0.57082565670E+02  0.50198334750E+02  0.22190253836E+03  0.24792445591E+03  0.80296370976E+02 0.  0.
          5    1    3    3  501    0 -0.37569040850E+02 -0.32902522629E+02  0.51997495590E+02  0.72248448934E+02  0.47000000000E+01 0. -1.
        -13    1    4    4    0    0 -0.58349493955E+02 -0.12152802873E+03 -0.62364925321E+02  0.14853655820E+03  0.00000000000E+00 0.  1.
         14    1    4    4    0    0 -0.16702425992E+02  0.53853941372E+01 -0.33789496837E+02  0.38074973415E+02  0.00000000000E+00 0. -1.
         -5    1    5    5    0  502  0.55538395128E+02  0.98846822474E+02  0.47521535524E+02  0.12302680190E+03  0.47000000000E+01 0.  1.
         13    1    6    6    0    0 -0.19470419523E+01 -0.12662210020E+02  0.86164358163E+02  0.87111532833E+02  0.00000000000E+00 0. -1.
        -14    1    6    6    0    0  0.59029607622E+02  0.62860544770E+02  0.13573818020E+03  0.16081292308E+03  0.00000000000E+00 0.  1.
<mgrwt>
<rscale>  2 0.25504483E+03</rscale>
<asrwt>0</asrwt>
<pdfrwt beam="1">  1       21 0.65775260E-01 0.25506598E+03</pdfrwt>
<pdfrwt beam="2">  1       21 0.31118776E-01 0.25506598E+03</pdfrwt>
<totfact> 0.20372925E+04</totfact>
</mgrwt>
</event>
<event>
12    1  0.1019868E-001  0.1881552E+03  0.7546771E-02  0.1161943E+00
         21   -1    0    0  501  502  0.00000000000E+00  0.00000000000E+00  0.21428673435E+02  0.21428673435E+02  0.00000000000E+00 0. -1.
         21   -1    0    0  502  503 -0.00000000000E+00 -0.00000000000E+00 -0.19312864203E+04  0.19312864203E+04  0.00000000000E+00 0. -1.
         -6    2    1    2    0  503 -0.33245086827E+02  0.93229987964E+01 -0.13848249396E+04  0.13975487506E+04  0.18496011172E+03 0.  0.
        -24    2    3    3    0    0  0.37782791378E+02 -0.37913332959E+02 -0.90919732694E+03  0.91430973477E+03  0.80358892715E+02 0.  0.
          6    2    1    2  501    0  0.33245086827E+02 -0.93229987964E+01 -0.52503280734E+03  0.55516634319E+03  0.17708208751E+03 0.  0.
         24    2    5    5    0    0  0.27282026390E+02 -0.68098198188E+02 -0.24133309458E+03  0.26534277759E+03  0.82361723634E+02 0.  0.
          5    1    5    5  501    0  0.59630604371E+01  0.58775199392E+02 -0.28369971277E+03  0.28982356560E+03  0.47000000000E+01 0. -1.
        -11    1    6    6    0    0  0.33551513887E+02  0.74955826283E+01 -0.79496354281E+02  0.86611536108E+02  0.00000000000E+00 0.  1.
         12    1    6    6    0    0 -0.62694874963E+01 -0.75593780817E+02 -0.16183674030E+03  0.17873124148E+03  0.00000000000E+00 0. -1.
         -5    1    3    3    0  503 -0.71027878205E+02  0.47236331755E+02 -0.47562761262E+03  0.48323901582E+03  0.47000000000E+01 0.  1.
         13    1    4    4    0    0  0.52790725476E+02 -0.42877429957E+02 -0.47705816244E+03  0.48188154670E+03  0.00000000000E+00 0. -1.
        -14    1    4    4    0    0 -0.15007934099E+02  0.49640969988E+01 -0.43213916449E+03  0.43242818807E+03  0.00000000000E+00 0.  1.
<mgrwt>
<rscale>  2 0.18619006E+03</rscale>
<asrwt>0</asrwt>
<pdfrwt beam="1">  1       21 0.32967184E-02 0.18815525E+03</pdfrwt>
<pdfrwt beam="2">  1       21 0.29712104E+00 0.18815525E+03</pdfrwt>
<totfact> 0.19276768E+04</totfact>
</mgrwt>
</event>
<event>
12    1  0.1019868E-001  0.2344007E+03  0.7546771E-02  0.1123765E+00
         21   -1    0    0  501  502  0.00000000000E+00  0.00000000000E+00  0.55391270795E+03  0.55391270795E+03  0.00000000000E+00 0. -1.
         21   -1    0    0  502  503 -0.00000000000E+00 -0.00000000000E+00 -0.14448072779E+03  0.14448072779E+03  0.00000000000E+00 0. -1.
         -6    2    1    2    0  503 -0.57005665336E+02 -0.14609741781E+03  0.40087760187E+03  0.46383673886E+03  0.17276448497E+03 0.  0.
        -24    2    3    3    0    0  0.20964750759E+02 -0.78739988491E+01  0.81560610075E+02  0.10722696532E+03  0.65908788064E+02 0.  0.
          6    2    1    2  501    0  0.57005665336E+02  0.14609741781E+03  0.85543782949E+01  0.23455669688E+03  0.17421126626E+03 0.  0.
         24    2    5    5    0    0  0.51271702520E+01  0.24428072352E+02 -0.41734310426E+02  0.92973328896E+02  0.79241836334E+02 0.  0.
          5    1    5    5  501    0  0.51878495084E+02  0.12166934546E+03  0.50288688720E+02  0.14158336798E+03  0.47000000000E+01 0. -1.
        -11    1    6    6    0    0  0.21960764445E+02 -0.11784987186E+02  0.10650012575E+02  0.27103207667E+02  0.00000000000E+00 0.  1.
         12    1    6    6    0    0 -0.16833594193E+02  0.36213059538E+02 -0.52384323000E+02  0.65870121229E+02  0.00000000000E+00 0. -1.
         -5    1    3    3    0  503 -0.77970416095E+02 -0.13822341896E+03  0.31931699179E+03  0.35660977354E+03  0.47000000000E+01 0.  1.
         11    1    4    4    0    0  0.65642030227E+01 -0.78005653657E+01 -0.10153840973E+02  0.14388817459E+02  0.00000000000E+00 0. -1.
        -12    1    4    4    0    0  0.14400547736E+02 -0.73433483412E-01  0.91714451048E+02  0.92838147863E+02  0.00000000000E+00 0.  1.
<mgrwt>
<rscale>  2 0.23413187E+03</rscale>
<asrwt>0</asrwt>
<pdfrwt beam="1">  1       21 0.85217338E-01 0.23440065E+03</pdfrwt>
<pdfrwt beam="2">  1       21 0.22227805E-01 0.23440065E+03</pdfrwt>
<totfact> 0.22027600E+04</totfact>
</mgrwt>
</event>
<event>
12    1  0.1019868E-001  0.1879572E+03  0.7546771E-02  0.1160638E+00
         21   -1    0    0  501  502  0.00000000000E+00  0.00000000000E+00  0.19046429502E+02  0.19046429502E+02  0.00000000000E+00 0. -1.
         21   -1    0    0  502  503 -0.00000000000E+00 -0.00000000000E+00 -0.28066256765E+04  0.28066256765E+04  0.00000000000E+00 0. -1.
         -6    2    1    2    0  503 -0.33709644936E+02 -0.67456124454E+02 -0.22190588729E+04  0.22268872216E+04  0.17063923144E+03 0.  0.
        -24    2    3    3    0    0 -0.30276206224E+01  0.12855526313E+02 -0.15773341696E+04  0.15794121003E+04  0.79906625985E+02 0.  0.
          6    2    1    2  501    0  0.33709644936E+02  0.67456124454E+02 -0.56852037409E+03  0.59878488442E+03  0.17216635319E+03 0.  0.
         24    2    5    5    0    0 -0.18400948865E+02  0.89045090871E+02 -0.46732334199E+03  0.48283434858E+03  0.80438044915E+02 0.  0.
          5    1    5    5  501    0  0.52110593801E+02 -0.21588966416E+02 -0.10119703210E+03  0.11595053585E+03  0.47000000000E+01 0. -1.
        -11    1    6    6    0    0 -0.11650666126E+02  0.10152202207E+02 -0.26675138501E+03  0.26719862768E+03  0.00000000000E+00 0.  1.
         12    1    6    6    0    0 -0.67502827392E+01  0.78892888664E+02 -0.20057195698E+03  0.21563572089E+03  0.00000000000E+00 0. -1.
         -5    1    3    3    0  503 -0.30682024313E+02 -0.80311650767E+02 -0.64172470328E+03  0.64747512127E+03  0.47000000000E+01 0.  1.
         11    1    4    4    0    0 -0.19448469800E+02  0.52073484376E+01 -0.14938317824E+04  0.14939674540E+04  0.00000000000E+00 0. -1.
        -12    1    4    4    0    0  0.16420849177E+02  0.76481778754E+01 -0.83502387245E+02  0.85444646340E+02  0.00000000000E+00 0.  1.
<mgrwt>
<rscale>  2 0.18760680E+03</rscale>
<asrwt>0</asrwt>
<pdfrwt beam="1">  1       21 0.29302207E-02 0.18795723E+03</pdfrwt>
<pdfrwt beam="2">  1       21 0.43178845E+00 0.18795723E+03</pdfrwt>
<totfact> 0.36273345E+03</totfact>
</mgrwt>
</event>
<event>
12    1  0.1019868E-001  0.2279663E+03  0.7546771E-02  0.1128293E+00
         21   -1    0    0  501  502  0.00000000000E+00  0.00000000000E+00  0.34255466851E+02  0.34255466851E+02  0.00000000000E+00 0. -1.
         21   -1    0    0  502  503 -0.00000000000E+00 -0.00000000000E+00 -0.15137352359E+04  0.15137352359E+04  0.00000000000E+00 0.  1.
         -6    2    1    2    0  503  0.97053260069E+02  0.11135367113E+03 -0.78435647011E+03  0.81681313540E+03  0.17363654738E+03 0.  0.
        -24    2    3    3    0    0  0.76267097489E+02  0.10380861497E+03 -0.33174276635E+03  0.36363519323E+03  0.74728789860E+02 0.  0.
          6    2    1    2  501    0 -0.97053260069E+02 -0.11135367113E+03 -0.69512329891E+03  0.73117756733E+03  0.17206178806E+03 0.  0.
         24    2    5    5    0    0 -0.45489369983E+02 -0.60044473738E+02 -0.17480294093E+03  0.20577597481E+03  0.78186073190E+02 0.  0.
          5    1    5    5  501    0 -0.51563890086E+02 -0.51309197389E+02 -0.52032035798E+03  0.52540159252E+03  0.47000000000E+01 0. -1.
        -11    1    6    6    0    0 -0.84046580099E+01  0.16171455058E+02 -0.10851591996E+02  0.21211112272E+02  0.00000000000E+00 0.  1.
         12    1    6    6    0    0 -0.37084711973E+02 -0.76215928796E+02 -0.16395134894E+03  0.18456486254E+03  0.00000000000E+00 0. -1.
         -5    1    3    3    0  503  0.20786162580E+02  0.75450561600E+01 -0.45261370376E+03  0.45317794216E+03  0.47000000000E+01 0.  1.
         13    1    4    4    0    0  0.23718644388E+02  0.86582743378E+02 -0.24322454040E+03  0.25926303746E+03  0.00000000000E+00 0. -1.
        -14    1    4    4    0    0  0.52548453100E+02  0.17225871590E+02 -0.88518225952E+02  0.10437215577E+03  0.00000000000E+00 0.  1.
<mgrwt>
<rscale>  2 0.22766640E+03</rscale>
<asrwt>0</asrwt>
<pdfrwt beam="1">  1       21 0.52700709E-02 0.22796628E+03</pdfrwt>
<pdfrwt beam="2">  1       21 0.23288239E+00 0.22796628E+03</pdfrwt>
<totfact> 0.20104743E+04</totfact>
</mgrwt>
</event>
<event>
12    1  0.1019868E-001  0.1825586E+03  0.7546771E-02  0.1166142E+00
         21   -1    0    0  501  502  0.00000000000E+00  0.00000000000E+00  0.85667995567E+02  0.85667995567E+02  0.00000000000E+00 0.  1.
         21   -1    0    0  502  503 -0.00000000000E+00 -0.00000000000E+00 -0.66700435035E+03  0.66700435035E+03  0.00000000000E+00 0.  1.
         -6    2    1    2    0  503  0.89348029388E+01 -0.57303292930E+02 -0.53817140085E+03  0.56829225967E+03  0.17310152404E+03 0.  0.
        -24    2    3    3    0    0  0.60239546240E+02 -0.60914184256E+01 -0.21246636979E+03  0.23458476795E+03  0.78880585391E+02 0.  0.
          6    2    1    2  501    0 -0.89348029388E+01  0.57303292930E+02 -0.43164953934E+02  0.18438008625E+03  0.16961516699E+03 0.  0.
         24    2    5    5    0    0 -0.42922784412E+01 -0.12085715572E+02 -0.73752690697E+02  0.10826118468E+03  0.78208289516E+02 0.  0.
          5    1    5    5  501    0 -0.46425244976E+01  0.69389008502E+02  0.30587736763E+02  0.76118901561E+02  0.47000000000E+01 0. -1.
        -11    1    6    6    0    0  0.35819712822E+01  0.32414259223E+02 -0.41306815999E+02  0.52628583177E+02  0.00000000000E+00 0.  1.
         12    1    6    6    0    0 -0.78742497234E+01 -0.44499974795E+02 -0.32445874698E+02  0.55632601507E+02  0.00000000000E+00 0. -1.
         -5    1    3    3    0  503 -0.51304743301E+02 -0.51211874504E+02 -0.32570503106E+03  0.33370749173E+03  0.47000000000E+01 0.  1.
         11    1    4    4    0    0  0.48834799104E+02  0.70759444575E+01 -0.21145444973E+03  0.21713565093E+03  0.00000000000E+00 0. -1.
        -12    1    4    4    0    0  0.11404747136E+02 -0.13167362883E+02 -0.10119200601E+01  0.17449117019E+02  0.00000000000E+00 0.  1.
<mgrwt>
<rscale>  2 0.18172734E+03</rscale>
<asrwt>0</asrwt>
<pdfrwt beam="1">  1       21 0.13179692E-01 0.18255858E+03</pdfrwt>
<pdfrwt beam="2">  1       21 0.10261605E+00 0.18255858E+03</pdfrwt>
<totfact> 0.38486665E+04</totfact>
</mgrwt>
</event>
<event>
12    1  0.1019868E-001  0.2041098E+03  0.7546771E-02  0.1146499E+00
         21   -1    0    0  501  502  0.00000000000E+00  0.00000000000E+00  0.10456513660E+03  0.10456513660E+03  0.00000000000E+00 0.  1.
         21   -1    0    0  502  503 -0.00000000000E+00 -0.00000000000E+00 -0.45347574720E+03  0.45347574720E+03  0.00000000000E+00 0.  1.
         -6    2    1    2    0  503  0.10164620722E+03  0.33194302156E+02 -0.75391544411E+02  0.21675878498E+03  0.17281976959E+03 0.  0.
        -24    2    3    3    0    0  0.34101497686E+02 -0.45849920279E+01  0.23504480428E+02  0.91092255696E+02  0.81002494723E+02 0.  0.
          6    2    1    2  501    0 -0.10164620722E+03 -0.33194302156E+02 -0.27351906619E+03  0.34128209881E+03  0.17385907587E+03 0.  0.
         24    2    5    5    0    0 -0.24637926608E+02 -0.76316479900E+02 -0.17972120680E+03  0.21240259725E+03  0.79899428124E+02 0.  0.
          5    1    5    5  501    0 -0.77008280608E+02  0.43122177744E+02 -0.93797859390E+02  0.12887950156E+03  0.47000000000E+01 0. -1.
        -13    1    6    6    0    0 -0.13037802543E+02 -0.72771424385E+02 -0.69347539883E+02  0.10136442073E+03  0.00000000000E+00 0.  1.
         14    1    6    6    0    0 -0.11600124065E+02 -0.35450555147E+01 -0.11037366691E+03  0.11103817652E+03  0.00000000000E+00 0. -1.
         -5    1    3    3    0  503  0.67544709530E+02  0.37779294184E+02 -0.98896024839E+02  0.12566652929E+03  0.47000000000E+01 0.  1.
         11    1    4    4    0    0  0.27780571079E+01 -0.24984501620E+02 -0.21153569119E+02  0.32854473196E+02  0.00000000000E+00 0. -1.
        -12    1    4    4    0    0  0.31323440578E+02  0.20399509592E+02  0.44658049547E+02  0.58237782500E+02  0.00000000000E+00 0.  1.
<mgrwt>
<rscale>  2 0.20388826E+03</rscale>
<asrwt>0</asrwt>
<pdfrwt beam="1">  1       21 0.16086944E-01 0.20410975E+03</pdfrwt>
<pdfrwt beam="2">  1       21 0.69765500E-01 0.20410975E+03</pdfrwt>
<totfact> 0.64102140E+04</totfact>
</mgrwt>
</event>
<event>
12    1  0.1019868E-001  0.2115808E+03  0.7546771E-02  0.1140583E+00
         21   -1    0    0  501  502  0.00000000000E+00  0.00000000000E+00  0.14410801507E+03  0.14410801507E+03  0.00000000000E+00 0.  1.
         21   -1    0    0  502  503 -0.00000000000E+00 -0.00000000000E+00 -0.64236169319E+03  0.64236169319E+03  0.00000000000E+00 0. -1.
         -6    2    1    2    0  503 -0.48644106221E+02 -0.10981062344E+03 -0.53216202581E+03  0.57218901615E+03  0.17256658540E+03 0.  0.
        -24    2    3    3    0    0 -0.10220555709E+02 -0.69468216240E+02 -0.49389959626E+03  0.50443960606E+03  0.74781094862E+02 0.  0.
          6    2    1    2  501    0  0.48644106221E+02  0.10981062344E+03  0.33908347682E+02  0.21428069211E+03  0.17418902629E+03 0.  0.
         24    2    5    5    0    0  0.32118158828E+02 -0.14563162673E+02  0.12387149921E+02  0.86894674186E+02  0.78444764549E+02 0.  0.
          5    1    5    5  501    0  0.16525947393E+02  0.12437378611E+03  0.21521197761E+02  0.12738601792E+03  0.47000000000E+01 0. -1.
        -11    1    6    6    0    0 -0.48184044772E+01 -0.14393757619E+01  0.39123911434E+02  0.39445776328E+02  0.00000000000E+00 0.  1.
         12    1    6    6    0    0  0.36936563306E+02 -0.13123786911E+02 -0.26736761512E+02  0.47448897858E+02  0.00000000000E+00 0. -1.
         -5    1    3    3    0  503 -0.38423550512E+02 -0.40342407201E+02 -0.38262429552E+02  0.67749410093E+02  0.47000000000E+01 0.  1.
         11    1    4    4    0    0  0.18366734663E+01 -0.45510042542E+02 -0.10300324269E+03  0.11262417745E+03  0.00000000000E+00 0. -1.
        -12    1    4    4    0    0 -0.12057229175E+02 -0.23958173699E+02 -0.39089635356E+03  0.39181542860E+03  0.00000000000E+00 0.  1.
<mgrwt>
<rscale>  2 0.21124659E+03</rscale>
<asrwt>0</asrwt>
<pdfrwt beam="1">  1       21 0.22170464E-01 0.21158081E+03</pdfrwt>
<pdfrwt beam="2">  1       21 0.98824877E-01 0.21158081E+03</pdfrwt>
<totfact> 0.15867993E+04</totfact>
</mgrwt>
</event>
<event>
12    1  0.1019868E-001  0.2052264E+03  0.7546771E-02  0.1145500E+00
         21   -1    0    0  503  502  0.00000000000E+00  0.00000000000E+00  0.23982037340E+03  0.23982037340E+03  0.00000000000E+00 0.  1.
         21   -1    0    0  501  503 -0.00000000000E+00 -0.00000000000E+00 -0.21419037513E+03  0.21419037513E+03  0.00000000000E+00 0. -1.
          6    2    1    2  501    0  0.10893094144E+03  0.40216018980E+01 -0.84028981609E+02  0.22132429254E+03  0.17332469366E+03 0.  0.
         24    2    3    3    0    0  0.91115011642E+02  0.57386347485E+02 -0.92769619355E+02  0.16419555919E+03  0.82212171596E+02 0.  0.
         -6    2    1    2    0  502 -0.10893094144E+03 -0.40216018980E+01  0.10965897988E+03  0.23268645599E+03  0.17388436287E+03 0.  0.
        -24    2    5    5    0    0 -0.54332975774E+02 -0.64256031560E+02  0.34169824594E+02  0.12164670213E+03  0.80928569608E+02 0.  0.
          5    1    3    3  501    0  0.17815929802E+02 -0.53364745587E+02  0.87406377451E+01  0.57128733353E+02  0.47000000000E+01 0. -1.
        -13    1    4    4    0    0  0.58194861433E+02  0.64464512458E+02 -0.28090850476E+02  0.91276564047E+02  0.00000000000E+00 0.  1.
         14    1    4    4    0    0  0.32920150209E+02 -0.70781649736E+01 -0.64678768878E+02  0.72918995144E+02  0.00000000000E+00 0. -1.
         -5    1    5    5    0  502 -0.54597965670E+02  0.60234429662E+02  0.75489155283E+02  0.11103975386E+03  0.47000000000E+01 0.  1.
         13    1    6    6    0    0 -0.24488253748E+02 -0.48297117060E+01 -0.23007214779E+02  0.33946025079E+02  0.00000000000E+00 0. -1.
        -14    1    6    6    0    0 -0.29844722026E+02 -0.59426319854E+02  0.57177039373E+02  0.87700677054E+02  0.00000000000E+00 0.  1.
<mgrwt>
<rscale>  2 0.20510785E+03</rscale>
<asrwt>0</asrwt>
<pdfrwt beam="1">  1       21 0.36895442E-01 0.20522645E+03</pdfrwt>
<pdfrwt beam="2">  1       21 0.32952366E-01 0.20522645E+03</pdfrwt>
<totfact> 0.62451088E+04</totfact>
</mgrwt>
</event>
<event>
12    1  0.1019868E-001  0.1816552E+03  0.7546771E-02  0.1166235E+00
         21   -1    0    0  503  502  0.00000000000E+00  0.00000000000E+00  0.95546633743E+03  0.95546633743E+03  0.00000000000E+00 0. -1.
         21   -1    0    0  501  503 -0.00000000000E+00 -0.00000000000E+00 -0.64436417330E+02  0.64436417330E+02  0.00000000000E+00 0. -1.
          6    2    1    2  501    0 -0.49284039500E+02 -0.23973635510E+02  0.97963740929E+02  0.20629807295E+03  0.17308480181E+03 0.  0.
         24    2    3    3    0    0 -0.75968027755E+02 -0.52085597772E+01  0.12592562460E+03  0.16307631645E+03  0.70273406923E+02 0.  0.
         -6    2    1    2    0  502  0.49284039500E+02  0.23973635510E+02  0.79306617917E+03  0.81360468181E+03  0.17319053660E+03 0.  0.
        -24    2    5    5    0    0  0.75243660054E+02  0.53634306872E+02  0.72092988597E+03  0.73126761773E+03  0.80462295513E+02 0.  0.
          5    1    3    3  501    0  0.26683988256E+02 -0.18765075733E+02 -0.27961883670E+02  0.43221756499E+02  0.47000000000E+01 0. -1.
        -13    1    4    4    0    0  0.26560260771E+01 -0.18735106971E+02  0.76519018586E+01  0.20411034021E+02  0.00000000000E+00 0.  1.
         14    1    4    4    0    0 -0.78624053833E+02  0.13526547194E+02  0.11827372274E+03  0.14266528243E+03  0.00000000000E+00 0. -1.
         -5    1    5    5    0  502 -0.25959620554E+02 -0.29660671361E+02  0.72136293200E+02  0.82337064081E+02  0.47000000000E+01 0.  1.
         13    1    6    6    0    0  0.69951268985E+02  0.60773341332E+01  0.32775566007E+03  0.33519231305E+03  0.00000000000E+00 0. -1.
        -14    1    6    6    0    0  0.52923910684E+01  0.47556972739E+02  0.39317422591E+03  0.39607530468E+03  0.00000000000E+00 0.  1.
<mgrwt>
<rscale>  2 0.18163000E+03</rscale>
<asrwt>0</asrwt>
<pdfrwt beam="1">  1       21 0.14699481E+00 0.18165521E+03</pdfrwt>
<pdfrwt beam="2">  1       21 0.99132956E-02 0.18165521E+03</pdfrwt>
<totfact> 0.26156700E+04</totfact>
</mgrwt>
</event>
<event>
12    1  0.1019868E-001  0.1785672E+03  0.7546771E-02  0.1169532E+00
         21   -1    0    0  501  502  0.00000000000E+00  0.00000000000E+00  0.17452473999E+02  0.17452473999E+02  0.00000000000E+00 0. -1.
         21   -1    0    0  502  503 -0.00000000000E+00 -0.00000000000E+00 -0.21498897981E+04  0.21498897981E+04  0.00000000000E+00 0. -1.
         -6    2    1    2    0  503 -0.30430868470E+02 -0.26858017839E+02 -0.14985810197E+04  0.15091823347E+04  0.17389323125E+03 0.  0.
        -24    2    3    3    0    0  0.13431920427E+02 -0.33604692083E+02 -0.40247082802E+03  0.41216405583E+03  0.81158793080E+02 0.  0.
          6    2    1    2  501    0  0.30430868470E+02  0.26858017839E+02 -0.63385630440E+03  0.65815993741E+03  0.17249144238E+03 0.  0.
         24    2    5    5    0    0  0.18195931453E+02 -0.26180359908E+02 -0.55897731910E+03  0.56546842950E+03  0.79261581656E+02 0.  0.
          5    1    5    5  501    0  0.12234937018E+02  0.53038377746E+02 -0.74878985306E+02  0.92691507908E+02  0.47000000000E+01 0. -1.
        -13    1    6    6    0    0 -0.26154611226E+01  0.21603840344E+02 -0.32631517652E+03  0.32703999905E+03  0.00000000000E+00 0.  1.
         14    1    6    6    0    0  0.20811392575E+02 -0.47784200252E+02 -0.23266214258E+03  0.23842843044E+03  0.00000000000E+00 0. -1.
         -5    1    3    3    0  503 -0.43862788897E+02  0.67466742443E+01 -0.10961101917E+04  0.10970182789E+04  0.47000000000E+01 0.  1.
         13    1    4    4    0    0 -0.33642761840E+02 -0.15062088032E+02 -0.20670505995E+03  0.20996591087E+03  0.00000000000E+00 0. -1.
        -14    1    4    4    0    0  0.47074682266E+02 -0.18542604051E+02 -0.19576576808E+03  0.20219814496E+03  0.00000000000E+00 0.  1.
<mgrwt>
<rscale>  2 0.17822502E+03</rscale>
<asrwt>0</asrwt>
<pdfrwt beam="1">  1       21 0.26849973E-02 0.17856721E+03</pdfrwt>
<pdfrwt beam="2">  1       21 0.33075211E+00 0.17856721E+03</pdfrwt>
<totfact> 0.17504015E+04</totfact>
</mgrwt>
</event>
<event>
12    1  0.1019868E-001  0.1803462E+03  0.7546771E-02  0.1167730E+00
         21   -1    0    0  503  502  0.00000000000E+00  0.00000000000E+00  0.81173979076E+02  0.81173979076E+02  0.00000000000E+00 0.  1.
         21   -1    0    0  501  503 -0.00000000000E+00 -0.00000000000E+00 -0.60466819486E+03  0.60466819486E+03  0.00000000000E+00 0.  1.
          6    2    1    2  501    0  0.45609853530E+02  0.18608148373E+02 -0.46157241387E+03  0.49516165069E+03  0.17236428034E+03 0.  0.
         24    2    3    3    0    0 -0.22453969783E+02 -0.81762231423E+01 -0.19848026547E+03  0.22205058326E+03  0.96648923219E+02 0.  0.
         -6    2    1    2    0  502 -0.45609853530E+02 -0.18608148373E+02 -0.61921801906E+02  0.19068052325E+03  0.17348841595E+03 0.  0.
        -24    2    5    5    0    0 -0.57960385875E+02  0.14232518300E+02  0.19930808602E+02  0.10150101392E+03  0.79644508833E+02 0.  0.
          5    1    3    3  501    0  0.68063823313E+02  0.26784371515E+02 -0.26309214840E+03  0.27311106743E+03  0.47000000000E+01 0. -1.
        -13    1    4    4    0    0 -0.49894257748E+02  0.25427198785E+02 -0.10525572850E+03  0.11922561712E+03  0.00000000000E+00 0.  1.
         14    1    4    4    0    0  0.27440287964E+02 -0.33603421927E+02 -0.93224536973E+02  0.10282496614E+03  0.00000000000E+00 0. -1.
         -5    1    5    5    0  502  0.12350532345E+02 -0.32840666673E+02 -0.81852610508E+02  0.89179509326E+02  0.47000000000E+01 0.  1.
         11    1    6    6    0    0 -0.16017221594E+02 -0.24161913969E+02 -0.17087668178E+02  0.33650228498E+02  0.00000000000E+00 0. -1.
        -12    1    6    6    0    0 -0.41943164281E+02  0.38394432269E+02  0.37018476780E+02  0.67850785421E+02  0.00000000000E+00 0.  1.
<mgrwt>
<rscale>  2 0.18007531E+03</rscale>
<asrwt>0</asrwt>
<pdfrwt beam="1">  1       21 0.12488304E-01 0.18034620E+03</pdfrwt>
<pdfrwt beam="2">  1       21 0.93025876E-01 0.18034620E+03</pdfrwt>
<totfact> 0.53473127E+04</totfact>
</mgrwt>
</event>
<event>
12    1  0.1019868E-001  0.2232280E+03  0.7546771E-02  0.1132623E+00
         21   -1    0    0  503  502  0.00000000000E+00  0.00000000000E+00  0.61414450262E+02  0.61414450262E+02  0.00000000000E+00 0. -1.
         21   -1    0    0  501  503 -0.00000000000E+00 -0.00000000000E+00 -0.79177039048E+03  0.79177039048E+03  0.00000000000E+00 0. -1.
          6    2    1    2  501    0 -0.21394941460E+02 -0.12641949375E+03 -0.34745923832E+03  0.41298745854E+03  0.18273228150E+03 0.  0.
         24    2    3    3    0    0 -0.24530263494E+02 -0.51325702224E+02 -0.31676816634E+03  0.33166747533E+03  0.80157229547E+02 0.  0.
         -6    2    1    2    0  502  0.21394941460E+02  0.12641949375E+03 -0.38289670190E+03  0.44019738220E+03  0.17528325376E+03 0.  0.
        -24    2    5    5    0    0 -0.42968240018E+02  0.65108797685E+02 -0.12754400011E+03  0.16977417148E+03  0.80438623510E+02 0.  0.
          5    1    3    3  501    0  0.31353220341E+01 -0.75093791530E+02 -0.30691071974E+02  0.81319983211E+02  0.47000000000E+01 0. -1.
        -13    1    4    4    0    0  0.63338547086E+01  0.84105022393E+01 -0.32480758134E+01  0.11018360126E+02  0.00000000000E+00 0.  1.
         14    1    4    4    0    0 -0.30864118203E+02 -0.59736204463E+02 -0.31352009053E+03  0.32064911520E+03  0.00000000000E+00 0. -1.
         -5    1    5    5    0  502  0.64363181478E+02  0.61310696069E+02 -0.25535270179E+03  0.27042321072E+03  0.47000000000E+01 0.  1.
         13    1    6    6    0    0 -0.61031363146E+02  0.31586217950E+02 -0.10509961896E+03  0.12557247452E+03  0.00000000000E+00 0. -1.
        -14    1    6    6    0    0  0.18063123127E+02  0.33522579735E+02 -0.22444381156E+02  0.44201696966E+02  0.00000000000E+00 0.  1.
<mgrwt>
<rscale>  2 0.22169842E+03</rscale>
<asrwt>0</asrwt>
<pdfrwt beam="1">  1       21 0.94483775E-02 0.22322795E+03</pdfrwt>
<pdfrwt beam="2">  1       21 0.12181082E+00 0.22322795E+03</pdfrwt>
<totfact> 0.44903122E+04</totfact>
</mgrwt>
</event>
<event>
12    1  0.1019868E-001  0.2103549E+03  0.7546771E-02  0.1142271E+00
         21   -1    0    0  501  502  0.00000000000E+00  0.00000000000E+00  0.10269322348E+03  0.10269322348E+03  0.00000000000E+00 0. -1.
         21   -1    0    0  502  503 -0.00000000000E+00 -0.00000000000E+00 -0.42382985769E+03  0.42382985769E+03  0.00000000000E+00 0. -1.
         -6    2    1    2    0  503  0.10748969038E+03 -0.53140077506E+02 -0.13662206792E+03  0.24671096605E+03  0.16680170847E+03 0.  0.
        -24    2    3    3    0    0  0.78259737484E+02 -0.86179055101E+02 -0.52410570394E+02  0.15152887475E+03  0.81625461382E+02 0.  0.
          6    2    1    2  501    0 -0.10748969038E+03  0.53140077506E+02 -0.18451456628E+03  0.27981211513E+03  0.17283313694E+03 0.  0.
         24    2    5    5    0    0 -0.64228043076E+00  0.61277177527E+02 -0.74952411712E+02  0.12648717545E+03  0.81399241540E+02 0.  0.
          5    1    5    5  501    0 -0.10684740995E+03 -0.81371000206E+01 -0.10956215457E+03  0.15332493967E+03  0.47000000000E+01 0. -1.
        -11    1    6    6    0    0  0.34892920940E+02  0.11445323309E+02 -0.11869207707E+02  0.38592608735E+02  0.00000000000E+00 0.  1.
         12    1    6    6    0    0 -0.35535201371E+02  0.49831854218E+02 -0.63083204005E+02  0.87894566720E+02  0.00000000000E+00 0. -1.
         -5    1    3    3    0  503  0.29229952900E+02  0.33038977595E+02 -0.84211497529E+02  0.95182091294E+02  0.47000000000E+01 0.  1.
         13    1    4    4    0    0  0.17149505315E+02 -0.12286857278E+02 -0.51481340437E+02  0.55636326330E+02  0.00000000000E+00 0. -1.
        -14    1    4    4    0    0  0.61110232169E+02 -0.73892197823E+02 -0.92922995733E+00  0.95892548423E+02  0.00000000000E+00 0.  1.
<mgrwt>
<rscale>  2 0.20911225E+03</rscale>
<asrwt>0</asrwt>
<pdfrwt beam="1">  1       21 0.15798957E-01 0.21035493E+03</pdfrwt>
<pdfrwt beam="2">  1       21 0.65204594E-01 0.21035493E+03</pdfrwt>
<totfact> 0.76646503E+04</totfact>
</mgrwt>
</event>
<event>
12    1  0.1019868E-001  0.2031098E+03  0.7546771E-02  0.1147159E+00
         21   -1    0    0  503  502  0.00000000000E+00  0.00000000000E+00  0.18031701155E+03  0.18031701155E+03  0.00000000000E+00 0. -1.
         21   -1    0    0  501  503 -0.00000000000E+00 -0.00000000000E+00 -0.24920794021E+03  0.24920794021E+03  0.00000000000E+00 0. -1.
          6    2    1    2  501    0  0.10679784557E+03  0.55938197228E+00  0.27189031770E+02  0.20483636593E+03  0.17266325791E+03 0.  0.
         24    2    3    3    0    0  0.81161626506E+02  0.15092679843E+02  0.83404907127E+02  0.14119088599E+03  0.78507892286E+02 0.  0.
         -6    2    1    2    0  502 -0.10679784557E+03 -0.55938197228E+00 -0.96079960430E+02  0.22468858583E+03  0.17276431657E+03 0.  0.
        -24    2    5    5    0    0 -0.27268238880E+02 -0.25483013595E+02 -0.11178076069E+03  0.13974889616E+03  0.75112413646E+02 0.  0.
          5    1    3    3  501    0  0.25636219062E+02 -0.14533297871E+02 -0.56215875357E+02  0.63645479941E+02  0.47000000000E+01 0. -1.
        -13    1    4    4    0    0  0.69531981130E+02 -0.23072186880E+02  0.61646218299E+02  0.95745905593E+02  0.00000000000E+00 0.  1.
         14    1    4    4    0    0  0.11629645376E+02  0.38164866723E+02  0.21758688828E+02  0.45444980395E+02  0.00000000000E+00 0. -1.
         -5    1    5    5    0  502 -0.79529606689E+02  0.24923631622E+02  0.15700800257E+02  0.84939689674E+02  0.47000000000E+01 0.  1.
         11    1    6    6    0    0 -0.36779327408E+02  0.17803801363E+01 -0.16795854315E+02  0.40472081737E+02  0.00000000000E+00 0. -1.
        -12    1    6    6    0    0  0.95110885280E+01 -0.27263393731E+02 -0.94984906372E+02  0.99276814419E+02  0.00000000000E+00 0.  1.
<mgrwt>
<rscale>  2 0.20308834E+03</rscale>
<asrwt>0</asrwt>
<pdfrwt beam="1">  1       21 0.27741079E-01 0.20310983E+03</pdfrwt>
<pdfrwt beam="2">  1       21 0.38339683E-01 0.20310983E+03</pdfrwt>
<totfact> 0.81013181E+04</totfact>
</mgrwt>
</event>
<event>
12    1  0.1019868E-001  0.2303596E+03  0.7546771E-02  0.1126418E+00
         21   -1    0    0  501  502  0.00000000000E+00  0.00000000000E+00  0.12297815344E+04  0.12297815344E+04  0.00000000000E+00 0.  1.
         21   -1    0    0  502  503 -0.00000000000E+00 -0.00000000000E+00 -0.74298621981E+02  0.74298621981E+02  0.00000000000E+00 0.  1.
         -6    2    1    2    0  503 -0.15005265848E+03  0.27611920397E+02  0.15546267731E+03  0.27791038377E+03  0.17259003131E+03 0.  0.
        -24    2    3    3    0    0 -0.55402901563E+02  0.36114181071E+02  0.15024103935E+03  0.18262019317E+03  0.80025305208E+02 0.  0.
          6    2    1    2  501    0  0.15005265848E+03 -0.27611920397E+02  0.10000202351E+04  0.10261697726E+04  0.17235345402E+03 0.  0.
         24    2    5    5    0    0  0.10832911754E+03  0.31744947543E+02  0.82301568631E+03  0.83481462651E+03  0.82569372764E+02 0.  0.
          5    1    5    5  501    0  0.41723540946E+02 -0.59356867941E+02  0.17700454876E+03  0.19135514605E+03  0.47000000000E+01 0. -1.
        -13    1    6    6    0    0  0.10991646117E+03  0.34375261813E+02  0.55700990520E+03  0.56879110537E+03  0.00000000000E+00 0.  1.
         14    1    6    6    0    0 -0.15873436328E+01 -0.26303142701E+01  0.26600578111E+03  0.26602352114E+03  0.00000000000E+00 0. -1.
         -5    1    3    3    0  503 -0.94649756921E+02 -0.85022606735E+01  0.52216379574E+01  0.95290190601E+02  0.47000000000E+01 0.  1.
         11    1    4    4    0    0  0.78997142965E+01 -0.17692437548E+02  0.41257852687E+02  0.45581117150E+02  0.00000000000E+00 0. -1.
        -12    1    4    4    0    0 -0.63302615860E+02  0.53806618619E+02  0.10898318666E+03  0.13703907602E+03  0.00000000000E+00 0.  1.
<mgrwt>
<rscale>  2 0.23031527E+03</rscale>
<asrwt>0</asrwt>
<pdfrwt beam="1">  1       21 0.18919714E+00 0.23035958E+03</pdfrwt>
<pdfrwt beam="2">  1       21 0.11430558E-01 0.23035958E+03</pdfrwt>
<totfact> 0.98136551E+03</totfact>
</mgrwt>
</event>
<event>
12    1  0.1019868E-001  0.2133316E+03  0.7546771E-02  0.1138964E+00
         21   -1    0    0  503  502  0.00000000000E+00  0.00000000000E+00  0.19694491206E+03  0.19694491206E+03  0.00000000000E+00 0. -1.
         21   -1    0    0  501  503 -0.00000000000E+00 -0.00000000000E+00 -0.34989761142E+03  0.34989761142E+03  0.00000000000E+00 0. -1.
          6    2    1    2  501    0 -0.81793985861E+02 -0.93958415668E+02 -0.23583535521E+03  0.31797597071E+03  0.17312412652E+03 0.  0.
         24    2    3    3    0    0 -0.72512461029E+02 -0.78849973083E+01 -0.19256821747E+03  0.22107955561E+03  0.80457574779E+02 0.  0.
         -6    2    1    2    0  502  0.81793985861E+02  0.93958415668E+02  0.82882655840E+02  0.22886655277E+03  0.17318176677E+03 0.  0.
        -24    2    5    5    0    0  0.11803513844E+03  0.56623540865E+02  0.85394790930E+02  0.17656249136E+03  0.82118960972E+02 0.  0.
          5    1    3    3  501    0 -0.92815248322E+01 -0.86073418360E+02 -0.43267137736E+02  0.96896415100E+02  0.47000000000E+01 0. -1.
        -11    1    4    4    0    0 -0.15727599178E+02 -0.25737109501E+02 -0.14775115785E+02  0.33586607864E+02  0.00000000000E+00 0.  1.
         12    1    4    4    0    0 -0.56784861851E+02  0.17852112192E+02 -0.17779310169E+03  0.18749294774E+03  0.00000000000E+00 0. -1.
         -5    1    5    5    0  502 -0.36241152583E+02  0.37334874803E+02 -0.25121350894E+01  0.52304061409E+02  0.47000000000E+01 0.  1.
         13    1    6    6    0    0  0.21328240365E+02  0.53258664691E+02  0.25686529237E+02  0.62858388350E+02  0.00000000000E+00 0. -1.
        -14    1    6    6    0    0  0.96706898080E+02  0.33648761738E+01  0.59708261693E+02  0.11370410301E+03  0.00000000000E+00 0.  1.
<mgrwt>
<rscale>  2 0.21331988E+03</rscale>
<asrwt>0</asrwt>
<pdfrwt beam="1">  1       21 0.30299217E-01 0.21333158E+03</pdfrwt>
<pdfrwt beam="2">  1       21 0.53830401E-01 0.21333158E+03</pdfrwt>
<totfact> 0.33745041E+04</totfact>
</mgrwt>
</event>
<event>
11    1  0.1019868E-001  0.2007697E+03  0.7546771E-02  0.1149228E+00
         21   -1    0    0  503  502  0.00000000000E+00  0.00000000000E+00  0.71972348401E+03  0.71972348401E+03  0.00000000000E+00 0.  1.
         21   -1    0    0  501  503 -0.00000000000E+00 -0.00000000000E+00 -0.85824132454E+02  0.85824132454E+02  0.00000000000E+00 0.  1.
          6    2    1    2  501    0  0.95994855554E+02  0.43529017484E+02  0.79151882143E+02  0.21580896078E+03  0.17087626942E+03 0.  0.
         24    2    3    3    0    0  0.12659662952E+03  0.76363606038E+01  0.75044847899E+02  0.16823050853E+03  0.81146498361E+02 0.  0.
         -6    2    1    2    0  502 -0.95994855554E+02 -0.43529017484E+02  0.55474746942E+03  0.58973865569E+03  0.17010919885E+03 0.  0.
          5    1    3    3  501    0 -0.30601773965E+02  0.35892656880E+02  0.41070342435E+01  0.47578452244E+02  0.47000000000E+01 0. -1.
        -11    1    4    4    0    0  0.19910548162E+02  0.24049693881E+02  0.47479065336E+02  0.56824988773E+02  0.00000000000E+00 0.  1.
         12    1    4    4    0    0  0.10668608136E+03 -0.16413333277E+02  0.27565782563E+02  0.11140551976E+03  0.00000000000E+00 0. -1.
         -5    1    5    5    0  502 -0.10067800414E+03 -0.29144922823E+01  0.15472142553E+03  0.18467637722E+03  0.47000000000E+01 0.  1.
         13    1    5    5    0    0  0.24904904185E+02 -0.20034562860E+02  0.14939557104E+03  0.15277655124E+03  0.00000000000E+00 0. -1.
        -14    1    5    5    0    0 -0.20221755600E+02 -0.20579962342E+02  0.25063047284E+03  0.25228572723E+03  0.00000000000E+00 0.  1.
<mgrwt>
<rscale>  2 0.20060642E+03</rscale>
<asrwt>0</asrwt>
<pdfrwt beam="1">  1       21 0.11072669E+00 0.20076974E+03</pdfrwt>
<pdfrwt beam="2">  1       21 0.13203713E-01 0.20076974E+03</pdfrwt>
<totfact> 0.31621740E+04</totfact>
</mgrwt>
</event>
<event>
12    1  0.1019868E-001  0.2811006E+03  0.7546771E-02  0.1095240E+00
         21   -1    0    0  503  502  0.00000000000E+00  0.00000000000E+00  0.99934774352E+03  0.99934774352E+03  0.00000000000E+00 0.  1.
         21   -1    0    0  501  503 -0.00000000000E+00 -0.00000000000E+00 -0.78926619275E+02  0.78926619275E+02  0.00000000000E+00 0.  1.
          6    2    1    2  501    0  0.21596266524E+03 -0.40522344400E+02  0.48608962070E+03  0.56151642425E+03  0.17531583553E+03 0.  0.
         24    2    3    3    0    0  0.20102460257E+03 -0.79795935703E+02  0.45021458081E+03  0.50606672474E+03  0.81437576797E+02 0.  0.
         -6    2    1    2    0  502 -0.21596266524E+03  0.40522344400E+02  0.43433150355E+03  0.51675793854E+03  0.17353091627E+03 0.  0.
        -24    2    5    5    0    0 -0.17372847628E+03  0.47836112452E+02  0.43039734038E+03  0.47345914457E+03  0.80323183705E+02 0.  0.
          5    1    3    3  501    0  0.14938062664E+02  0.39273591303E+02  0.35875039884E+02  0.55449699519E+02  0.47000000000E+01 0. -1.
        -13    1    4    4    0    0  0.14096455174E+03 -0.18780154251E+02  0.23826011428E+03  0.27747356829E+03  0.00000000000E+00 0.  1.
         14    1    4    4    0    0  0.60060050830E+02 -0.61015781453E+02  0.21195446653E+03  0.22859315645E+03  0.00000000000E+00 0. -1.
         -5    1    5    5    0  502 -0.42234188956E+02 -0.73137680521E+01  0.39341631660E+01  0.43298793975E+02  0.47000000000E+01 0.  1.
         13    1    6    6    0    0 -0.46258816908E+02  0.29353787410E+02  0.22040488856E+03  0.22711195010E+03  0.00000000000E+00 0. -1.
        -14    1    6    6    0    0 -0.12746965937E+03  0.18482325042E+02  0.20999245182E+03  0.24634719447E+03  0.00000000000E+00 0.  1.
<mgrwt>
<rscale>  2 0.28082280E+03</rscale>
<asrwt>0</asrwt>
<pdfrwt beam="1">  1       21 0.15374580E+00 0.28110065E+03</pdfrwt>
<pdfrwt beam="2">  1       21 0.12142558E-01 0.28110065E+03</pdfrwt>
<totfact> 0.15252064E+04</totfact>
</mgrwt>
</event>
<event>
12    1  0.1019868E-001  0.2001876E+03  0.7546771E-02  0.1149980E+00
         21   -1    0    0  503  502  0.00000000000E+00  0.00000000000E+00  0.71636813612E+02  0.71636813612E+02  0.00000000000E+00 0. -1.
         21   -1    0    0  501  503 -0.00000000000E+00 -0.00000000000E+00 -0.15519978775E+04  0.15519978775E+04  0.00000000000E+00 0. -1.
          6    2    1    2  501    0  0.86563928233E+02  0.49217699857E+02 -0.13898682984E+04  0.14039439663E+04  0.17149075221E+03 0.  0.
         24    2    3    3    0    0  0.47572736074E+02 -0.39819924769E+02 -0.67278429476E+03  0.68028688600E+03  0.79389850458E+02 0.  0.
         -6    2    1    2    0  502 -0.86563928233E+02 -0.49217699857E+02 -0.90492765487E+02  0.21969072477E+03  0.17366455681E+03 0.  0.
        -24    2    5    5    0    0 -0.12004751320E+03 -0.55674470375E+02 -0.45975499750E+02  0.16341713152E+03  0.84144876373E+02 0.  0.
          5    1    3    3  501    0  0.38991192158E+02  0.89037624626E+02 -0.71708400360E+03  0.72365708032E+03  0.47000000000E+01 0. -1.
        -13    1    4    4    0    0 -0.14144276147E+02 -0.34087121159E+02 -0.19109127009E+03  0.19462236737E+03  0.00000000000E+00 0.  1.
         14    1    4    4    0    0  0.61717012222E+02 -0.57328036102E+01 -0.48169302467E+03  0.48566451862E+03  0.00000000000E+00 0. -1.
         -5    1    5    5    0  502  0.33483584969E+02  0.64567705178E+01 -0.44517265737E+02  0.56273593244E+02  0.47000000000E+01 0.  1.
         11    1    6    6    0    0 -0.18266678475E+02 -0.50802164809E+02 -0.75333261904E+01  0.54509471611E+02  0.00000000000E+00 0. -1.
        -12    1    6    6    0    0 -0.10178083473E+03 -0.48723055664E+01 -0.38442173560E+02  0.10890765991E+03  0.00000000000E+00 0.  1.
<mgrwt>
<rscale>  2 0.19971522E+03</rscale>
<asrwt>0</asrwt>
<pdfrwt beam="1">  1       21 0.11021048E-01 0.20018760E+03</pdfrwt>
<pdfrwt beam="2">  1       21 0.23876890E+00 0.20018760E+03</pdfrwt>
<totfact> 0.52526434E+03</totfact>
</mgrwt>
</event>
<event>
12    1  0.1019868E-001  0.1814583E+03  0.7546771E-02  0.1167078E+00
         21   -1    0    0  501  502  0.00000000000E+00  0.00000000000E+00  0.89364447772E+03  0.89364447772E+03  0.00000000000E+00 0.  1.
         21   -1    0    0  502  503 -0.00000000000E+00 -0.00000000000E+00 -0.17314419560E+03  0.17314419560E+03  0.00000000000E+00 0.  1.
         -6    2    1    2    0  503 -0.45535533770E+02  0.11239327619E+02 -0.11339277872E+03  0.21397437309E+03  0.17529204989E+03 0.  0.
        -24    2    3    3    0    0 -0.93703149410E+02 -0.37283242317E+01 -0.10688235751E+03  0.16289966915E+03  0.79487629549E+02 0.  0.
          6    2    1    2  501    0  0.45535533770E+02 -0.11239327619E+02  0.83389306085E+03  0.85281430022E+03  0.17237977381E+03 0.  0.
         24    2    5    5    0    0  0.47957912035E+02 -0.71360158411E+02  0.59139101577E+03  0.60291489231E+03  0.79817293209E+02 0.  0.
          5    1    5    5  501    0 -0.24223782645E+01  0.60120830792E+02  0.24250204508E+03  0.24989940792E+03  0.47000000000E+01 0. -1.
        -11    1    6    6    0    0  0.68988693490E+02 -0.40598048414E+02  0.40592427014E+03  0.41374165183E+03  0.00000000000E+00 0.  1.
         12    1    6    6    0    0 -0.21030781455E+02 -0.30762109997E+02  0.18546674563E+03  0.18917324048E+03  0.00000000000E+00 0. -1.
         -5    1    3    3    0  503  0.48167615639E+02  0.14967651851E+02 -0.65104212077E+01  0.51074703941E+02  0.47000000000E+01 0.  1.
         13    1    4    4    0    0 -0.25556657780E+02 -0.98548009965E+01  0.85660045242E+01  0.28699064324E+02  0.00000000000E+00 0. -1.
        -14    1    4    4    0    0 -0.68146491630E+02  0.61264767648E+01 -0.11544836204E+03  0.13420060483E+03  0.00000000000E+00 0.  1.
<mgrwt>
<rscale>  2 0.18075123E+03</rscale>
<asrwt>0</asrwt>
<pdfrwt beam="1">  1       21 0.13748376E+00 0.18145829E+03</pdfrwt>
<pdfrwt beam="2">  1       21 0.26637569E-01 0.18145829E+03</pdfrwt>
<totfact> 0.50768906E+03</totfact>
</mgrwt>
</event>
<event>
12    1  0.1019868E-001  0.1799657E+03  0.7546771E-02  0.1168055E+00
         21   -1    0    0  503  502  0.00000000000E+00  0.00000000000E+00  0.12582600144E+04  0.12582600144E+04  0.00000000000E+00 0. -1.
         21   -1    0    0  501  503 -0.00000000000E+00 -0.00000000000E+00 -0.27031545647E+02  0.27031545647E+02  0.00000000000E+00 0. -1.
          6    2    1    2  501    0  0.29199684148E+02 -0.33810205728E+02  0.46684605119E+03  0.50000935158E+03  0.17340232003E+03 0.  0.
         24    2    3    3    0    0 -0.35070761401E+02  0.92302049203E+01  0.34065252679E+03  0.35192132803E+03  0.80556328885E+02 0.  0.
         -6    2    1    2    0  502 -0.29199684148E+02  0.33810205728E+02  0.76438241751E+03  0.78528220842E+03  0.17433277112E+03 0.  0.
        -24    2    5    5    0    0  0.11938999442E+02 -0.37928896007E+02  0.26927189181E+03  0.28329076161E+03  0.78518552168E+02 0.  0.
          5    1    3    3  501    0  0.64270445549E+02 -0.43040410648E+02  0.12619352440E+03  0.14808802355E+03  0.47000000000E+01 0. -1.
        -11    1    4    4    0    0 -0.93856007512E+01 -0.16171699329E+02  0.28474538814E+03  0.28535863300E+03  0.00000000000E+00 0.  1.
         12    1    4    4    0    0 -0.25685160650E+02  0.25401904250E+02  0.55907138648E+02  0.66562695024E+02  0.00000000000E+00 0. -1.
         -5    1    5    5    0  502 -0.41138683591E+02  0.71739101735E+02  0.49511052570E+03  0.50199144680E+03  0.47000000000E+01 0.  1.
         13    1    6    6    0    0 -0.12194467669E+02  0.17398404091E+02  0.12667432207E+03  0.12844373624E+03  0.00000000000E+00 0. -1.
        -14    1    6    6    0    0  0.24133467112E+02 -0.55327300098E+02  0.14259756974E+03  0.15484702537E+03  0.00000000000E+00 0.  1.
<mgrwt>
<rscale>  2 0.17974002E+03</rscale>
<asrwt>0</asrwt>
<pdfrwt beam="1">  1       21 0.19357842E+00 0.17996574E+03</pdfrwt>
<pdfrwt beam="2">  1       21 0.41587003E-02 0.17996574E+03</pdfrwt>
<totfact> 0.54680278E+04</totfact>
</mgrwt>
</event>
<event>
12    1  0.1019868E-001  0.1762233E+03  0.7546771E-02  0.1171742E+00
         21   -1    0    0  503  502  0.00000000000E+00  0.00000000000E+00  0.25389896867E+03  0.25389896867E+03  0.00000000000E+00 0. -1.
         21   -1    0    0  501  503 -0.00000000000E+00 -0.00000000000E+00 -0.15300009663E+03  0.15300009663E+03  0.00000000000E+00 0. -1.
          6    2    1    2  501    0  0.24072997934E+02 -0.21406207101E+02 -0.41516955172E+02  0.18104782652E+03  0.17325392633E+03 0.  0.
         24    2    3    3    0    0  0.57819919429E+02 -0.54869147060E+02  0.61586815966E+01  0.11356687067E+03  0.80658157505E+02 0.  0.
         -6    2    1    2    0  502 -0.24072997934E+02  0.21406207101E+02  0.14241582721E+03  0.22585123879E+03  0.17230432174E+03 0.  0.
        -24    2    5    5    0    0 -0.79809202425E+01  0.75694744619E+02  0.58387339711E+02  0.12441615126E+03  0.79226938628E+02 0.  0.
          5    1    3    3  501    0 -0.33746921495E+02  0.33462939959E+02 -0.47675636768E+02  0.67480955850E+02  0.47000000000E+01 0. -1.
        -13    1    4    4    0    0  0.40363379326E+02 -0.51456270930E+02 -0.30997558939E+02  0.72372638951E+02  0.00000000000E+00 0.  1.
         14    1    4    4    0    0  0.17456540104E+02 -0.34128761305E+01  0.37156240536E+02  0.41194231715E+02  0.00000000000E+00 0. -1.
         -5    1    5    5    0  502 -0.16092077692E+02 -0.54288537518E+02  0.84028487502E+02  0.10143508753E+03  0.47000000000E+01 0.  1.
         11    1    6    6    0    0  0.95168543579E+01 -0.60607708897E+01  0.36196580815E+02  0.37914323459E+02  0.00000000000E+00 0. -1.
        -12    1    6    6    0    0 -0.17497774600E+02  0.81755515509E+02  0.22190758896E+02  0.86501827798E+02  0.00000000000E+00 0.  1.
<mgrwt>
<rscale>  2 0.17598947E+03</rscale>
<asrwt>0</asrwt>
<pdfrwt beam="1">  1       21 0.39061380E-01 0.17622332E+03</pdfrwt>
<pdfrwt beam="2">  1       21 0.23538476E-01 0.17622332E+03</pdfrwt>
<totfact> 0.10799136E+05</totfact>
</mgrwt>
</event>
<event>
12    1  0.1019868E-001  0.2033574E+03  0.7546771E-02  0.1147074E+00
         21   -1    0    0  501  502  0.00000000000E+00  0.00000000000E+00  0.49400659121E+02  0.49400659121E+02  0.00000000000E+00 0. -1.
         21   -1    0    0  502  503 -0.00000000000E+00 -0.00000000000E+00 -0.13780689706E+04  0.13780689706E+04  0.00000000000E+00 0. -1.
         -6    2    1    2    0  503 -0.94802511679E+02 -0.49970466751E+02 -0.11132932211E+04  0.11317137579E+04  0.17282844055E+03 0.  0.
        -24    2    3    3    0    0 -0.16881899424E+02 -0.64749186321E+02 -0.37244896720E+03  0.38662159519E+03  0.79250041272E+02 0.  0.
          6    2    1    2  501    0  0.94802511679E+02  0.49970466751E+02 -0.21537509036E+03  0.29575587182E+03  0.17204808166E+03 0.  0.
         24    2    5    5    0    0 -0.17700876515E+02  0.37578847933E+01 -0.79275123185E+02  0.11316916324E+03  0.78710047798E+02 0.  0.
          5    1    5    5  501    0  0.11250338819E+03  0.46212581958E+02 -0.13609996718E+03  0.18258670858E+03  0.47000000000E+01 0. -1.
        -11    1    6    6    0    0 -0.99856016407E+01  0.37638460784E+02 -0.64643776949E+02  0.75466442003E+02  0.00000000000E+00 0.  1.
         12    1    6    6    0    0 -0.77152748744E+01 -0.33880575991E+02 -0.14631346236E+02  0.37702721235E+02  0.00000000000E+00 0. -1.
         -5    1    3    3    0  503 -0.77920612255E+02  0.14778719570E+02 -0.74084425389E+03  0.74509216268E+03  0.47000000000E+01 0.  1.
         13    1    4    4    0    0 -0.34621697944E+01  0.18757344667E+02 -0.74151155152E+02  0.76565125279E+02  0.00000000000E+00 0. -1.
        -14    1    4    4    0    0 -0.13419729629E+02 -0.83506530988E+02 -0.29829781205E+03  0.31005646991E+03  0.00000000000E+00 0.  1.
<mgrwt>
<rscale>  2 0.20319150E+03</rscale>
<asrwt>0</asrwt>
<pdfrwt beam="1">  1       21 0.76001026E-02 0.20335740E+03</pdfrwt>
<pdfrwt beam="2">  1       21 0.21201058E+00 0.20335740E+03</pdfrwt>
<totfact> 0.14660276E+04</totfact>
</mgrwt>
</event>
<event>
12    1  0.1019868E-001  0.1928850E+03  0.7546771E-02  0.1156030E+00
         21   -1    0    0  503  502  0.00000000000E+00  0.00000000000E+00  0.77915796268E+02  0.77915796268E+02  0.00000000000E+00 0. -1.
         21   -1    0    0  501  503 -0.00000000000E+00 -0.00000000000E+00 -0.81440226179E+03  0.81440226179E+03  0.00000000000E+00 0. -1.
          6    2    1    2  501    0  0.22132608540E+02  0.80848282677E+02 -0.65625894187E+03  0.68401786417E+03  0.17371914845E+03 0.  0.
         24    2    3    3    0    0  0.79428152907E+01  0.54217764494E+01 -0.52988084290E+03  0.53608537289E+03  0.80754785508E+02 0.  0.
         -6    2    1    2    0  502 -0.22132608540E+02 -0.80848282677E+02 -0.80227523650E+02  0.20830019389E+03  0.17299195950E+03 0.  0.
        -24    2    5    5    0    0 -0.78343404079E+02 -0.47363367989E+02 -0.30724957138E+02  0.12612059096E+03  0.81125845963E+02 0.  0.
          5    1    3    3  501    0  0.14189793250E+02  0.75426506228E+02 -0.12637809897E+03  0.14793249127E+03  0.47000000000E+01 0. -1.
        -11    1    4    4    0    0 -0.82191271652E+01  0.14940451878E+02 -0.21887542530E+02  0.27745912702E+02  0.00000000000E+00 0.  1.
         12    1    4    4    0    0  0.16161942456E+02 -0.95186754287E+01 -0.50799330037E+03  0.50833946019E+03  0.00000000000E+00 0. -1.
         -5    1    5    5    0  502  0.56210795538E+02 -0.33484914689E+02 -0.49502566513E+02  0.82179602932E+02  0.47000000000E+01 0.  1.
         11    1    6    6    0    0  0.92668791262E+00 -0.42799127128E+02 -0.82165428295E+01  0.43590544955E+02  0.00000000000E+00 0. -1.
        -12    1    6    6    0    0 -0.79270091991E+02 -0.45642408602E+01 -0.22508414308E+02  0.82530046005E+02  0.00000000000E+00 0.  1.
<mgrwt>
<rscale>  2 0.19272117E+03</rscale>
<asrwt>0</asrwt>
<pdfrwt beam="1">  1       21 0.11987046E-01 0.19288504E+03</pdfrwt>
<pdfrwt beam="2">  1       21 0.12529265E+00 0.19288504E+03</pdfrwt>
<totfact> 0.27880906E+04</totfact>
</mgrwt>
</event>
<event>
12    1  0.1019868E-001  0.2029669E+03  0.7546771E-02  0.1148222E+00
         21   -1    0    0  503  502  0.00000000000E+00  0.00000000000E+00  0.28056531563E+03  0.28056531563E+03  0.00000000000E+00 0.  1.
         21   -1    0    0  501  503 -0.00000000000E+00 -0.00000000000E+00 -0.15520740712E+03  0.15520740712E+03  0.00000000000E+00 0.  1.
          6    2    1    2  501    0 -0.10600309963E+03  0.65629547107E+01  0.12311718528E+03  0.23738871907E+03  0.17296194125E+03 0.  0.
         24    2    3    3    0    0 -0.68548898851E+02  0.12482103000E+02 -0.32951998920E+01  0.10532799592E+03  0.78920047854E+02 0.  0.
         -6    2    1    2    0  502  0.10600309963E+03 -0.65629547107E+01  0.22407232308E+01  0.19838400369E+03  0.16754540451E+03 0.  0.
        -24    2    5    5    0    0  0.99789746506E+02 -0.55256446559E+02 -0.25396389531E+02  0.14185470237E+03  0.80414622982E+02 0.  0.
          5    1    3    3  501    0 -0.37454200780E+02 -0.59191482893E+01  0.12641238518E+03  0.13206072315E+03  0.47000000000E+01 0. -1.
        -13    1    4    4    0    0 -0.44684789748E+02 -0.31852970286E+02 -0.80538322634E-01  0.54875756371E+02  0.00000000000E+00 0.  1.
         14    1    4    4    0    0 -0.23864109102E+02  0.44335073286E+02 -0.32146615694E+01  0.50452239549E+02  0.00000000000E+00 0. -1.
         -5    1    5    5    0  502  0.62133531244E+01  0.48693491848E+02  0.27637112762E+02  0.56529301315E+02  0.47000000000E+01 0.  1.
         11    1    6    6    0    0  0.23900414804E+02 -0.57297954387E+02 -0.91995049002E+00  0.62089706987E+02  0.00000000000E+00 0. -1.
        -12    1    6    6    0    0  0.75889331702E+02  0.20415078288E+01 -0.24476439041E+02  0.79764995384E+02  0.00000000000E+00 0.  1.
<mgrwt>
<rscale>  2 0.20180813E+03</rscale>
<asrwt>0</asrwt>
<pdfrwt beam="1">  1       21 0.43163894E-01 0.20296690E+03</pdfrwt>
<pdfrwt beam="2">  1       21 0.23878063E-01 0.20296690E+03</pdfrwt>
<totfact> 0.84938263E+04</totfact>
</mgrwt>
</event>
<event>
12    1  0.1019868E-001  0.4020881E+03  0.7546771E-02  0.1043131E+00
         21   -1    0    0  503  502  0.00000000000E+00  0.00000000000E+00  0.64883374692E+03  0.64883374692E+03  0.00000000000E+00 0. -1.
         21   -1    0    0  501  503 -0.00000000000E+00 -0.00000000000E+00 -0.27210163873E+03  0.27210163873E+03  0.00000000000E+00 0.  1.
          6    2    1    2  501    0 -0.20599781522E+03  0.29817029578E+03  0.53038635706E+02  0.40474523438E+03  0.17223525399E+03 0.  0.
         24    2    3    3    0    0 -0.14587643412E+03  0.24160501423E+03 -0.20289316358E+02  0.29423147915E+03  0.80669635118E+02 0.  0.
         -6    2    1    2    0  502  0.20599781522E+03 -0.29817029578E+03  0.32369347249E+03  0.51619015127E+03  0.17416711221E+03 0.  0.
        -24    2    5    5    0    0  0.62092452300E+02 -0.17737361903E+03  0.11274296837E+03  0.23366086822E+03  0.81052767139E+02 0.  0.
          5    1    3    3  501    0 -0.60121381106E+02  0.56565281547E+02  0.73327952064E+02  0.11051375524E+03  0.47000000000E+01 0. -1.
        -11    1    4    4    0    0 -0.91836198391E+02  0.13499276702E+03  0.27381445129E+02  0.16554962404E+03  0.00000000000E+00 0.  1.
         12    1    4    4    0    0 -0.54040235727E+02  0.10661224721E+03 -0.47670761487E+02  0.12868185511E+03  0.00000000000E+00 0. -1.
         -5    1    5    5    0  502  0.14390536292E+03 -0.12079667675E+03  0.21095050412E+03  0.28252928305E+03  0.47000000000E+01 0.  1.
         13    1    6    6    0    0 -0.36725316071E+01 -0.81238793461E+02  0.76567806955E+02  0.11169538090E+03  0.00000000000E+00 0. -1.
        -14    1    6    6    0    0  0.65764983907E+02 -0.96134825570E+02  0.36175161416E+02  0.12196548733E+03  0.00000000000E+00 0.  1.
<mgrwt>
<rscale>  2 0.40187964E+03</rscale>
<asrwt>0</asrwt>
<pdfrwt beam="1">  1       21 0.99820576E-01 0.40208806E+03</pdfrwt>
<pdfrwt beam="2">  1       21 0.41861791E-01 0.40208806E+03</pdfrwt>
<totfact> 0.40289255E+03</totfact>
</mgrwt>
</event>
<event>
12    1  0.1019868E-001  0.1740044E+03  0.7546771E-02  0.1174630E+00
         21   -1    0    0  501  502  0.00000000000E+00  0.00000000000E+00  0.16105405694E+03  0.16105405694E+03  0.00000000000E+00 0. -1.
         21   -1    0    0  502  503 -0.00000000000E+00 -0.00000000000E+00 -0.18454815878E+03  0.18454815878E+03  0.00000000000E+00 0. -1.
         -6    2    1    2    0  503  0.68528414332E+01 -0.15603902245E+02 -0.18983875086E+02  0.17503691838E+03  0.17316781479E+03 0.  0.
        -24    2    3    3    0    0 -0.15949464025E+02 -0.74193869016E+02 -0.95846052880E+01  0.11129395317E+03  0.80841596667E+02 0.  0.
          6    2    1    2  501    0 -0.68528414332E+01  0.15603902245E+02 -0.45102267524E+01  0.17056529735E+03  0.16965180610E+03 0.  0.
         24    2    5    5    0    0 -0.26376914916E+02  0.47297891963E+02 -0.51414021661E+02  0.11050071206E+03  0.81450435955E+02 0.  0.
          5    1    5    5  501    0  0.19524073483E+02 -0.31693989718E+02  0.46903794908E+02  0.60064585293E+02  0.47000000000E+01 0. -1.
        -13    1    6    6    0    0  0.27357644870E+01  0.63148845808E+02 -0.42524300963E+02  0.76181213607E+02  0.00000000000E+00 0.  1.
         14    1    6    6    0    0 -0.29112679403E+02 -0.15850953845E+02 -0.88897206976E+01  0.34319498450E+02  0.00000000000E+00 0. -1.
         -5    1    3    3    0  503  0.22802305458E+02  0.58589966771E+02 -0.93992697976E+01  0.63742965206E+02  0.47000000000E+01 0.  1.
         11    1    4    4    0    0  0.15952446867E+01 -0.66209283272E+02 -0.38452404980E+02  0.76581991655E+02  0.00000000000E+00 0. -1.
        -12    1    4    4    0    0 -0.17544708712E+02 -0.79845857440E+01  0.28867799692E+02  0.34711961517E+02  0.00000000000E+00 0.  1.
<mgrwt>
<rscale>  2 0.17312305E+03</rscale>
<asrwt>0</asrwt>
<pdfrwt beam="1">  1       21 0.24777547E-01 0.17400441E+03</pdfrwt>
<pdfrwt beam="2">  1       21 0.28392024E-01 0.17400441E+03</pdfrwt>
<totfact> 0.18374453E+05</totfact>
</mgrwt>
</event>
<event>
12    1  0.1019868E-001  0.2125115E+03  0.7546771E-02  0.1139801E+00
         21   -1    0    0  501  502  0.00000000000E+00  0.00000000000E+00  0.18855066607E+02  0.18855066607E+02  0.00000000000E+00 0. -1.
         21   -1    0    0  502  503 -0.00000000000E+00 -0.00000000000E+00 -0.26898171062E+04  0.26898171062E+04  0.00000000000E+00 0. -1.
         -6    2    1    2    0  503  0.11044803641E+03  0.49323316286E+02 -0.17957541827E+04  0.18082848867E+04  0.17472718344E+03 0.  0.
        -24    2    3    3    0    0 -0.42614226546E+01 -0.50541638548E+01 -0.84345366733E+03  0.84754895427E+03  0.82954425233E+02 0.  0.
          6    2    1    2  501    0 -0.11044803641E+03 -0.49323316286E+02 -0.87520785694E+03  0.90038728611E+03  0.17342696987E+03 0.  0.
         24    2    5    5    0    0 -0.10246137329E+03 -0.57616448761E+02 -0.87621129273E+03  0.88791091976E+03  0.82592879445E+02 0.  0.
          5    1    5    5  501    0 -0.79866631155E+01  0.82931324751E+01  0.10034357969E+01  0.12476366353E+02  0.47000000000E+01 0. -1.
        -13    1    6    6    0    0 -0.54612899671E+02  0.61578953838E+01 -0.51945255553E+03  0.52235184113E+03  0.00000000000E+00 0.  1.
         14    1    6    6    0    0 -0.47848473623E+02 -0.63774344145E+02 -0.35675873720E+03  0.36555907863E+03  0.00000000000E+00 0. -1.
         -5    1    3    3    0  503  0.11470945906E+03  0.54377480141E+02 -0.95230051538E+03  0.96073593247E+03  0.47000000000E+01 0.  1.
         11    1    4    4    0    0  0.29341020233E+02  0.23947940704E+02 -0.32522418420E+03  0.32742200494E+03  0.00000000000E+00 0. -1.
        -12    1    4    4    0    0 -0.33602442888E+02 -0.29002104559E+02 -0.51822948313E+03  0.52012694934E+03  0.00000000000E+00 0.  1.
<mgrwt>
<rscale>  2 0.21224408E+03</rscale>
<asrwt>0</asrwt>
<pdfrwt beam="1">  1       21 0.29007783E-02 0.21251152E+03</pdfrwt>
<pdfrwt beam="2">  1       21 0.41381818E+00 0.21251152E+03</pdfrwt>
<totfact> 0.46500100E+03</totfact>
</mgrwt>
</event>
<event>
12    1  0.1019868E-001  0.1872395E+03  0.7546771E-02  0.1161166E+00
         21   -1    0    0  501  502  0.00000000000E+00  0.00000000000E+00  0.45618932340E+03  0.45618932340E+03  0.00000000000E+00 0.  1.
         21   -1    0    0  502  503 -0.00000000000E+00 -0.00000000000E+00 -0.20994341986E+03  0.20994341986E+03  0.00000000000E+00 0.  1.
         -6    2    1    2    0  503  0.65976445644E+02  0.28862018069E+02 -0.14230464871E+03  0.23517914567E+03  0.17283723571E+03 0.  0.
        -24    2    3    3    0    0 -0.12360141800E+00 -0.19623729626E+02 -0.16353548444E+02  0.84826714330E+02  0.80888978703E+02 0.  0.
          6    2    1    2  501    0 -0.65976445644E+02 -0.28862018069E+02  0.38855055225E+03  0.43095359760E+03  0.17194058322E+03 0.  0.
         24    2    5    5    0    0 -0.17448983621E+02  0.42102939877E+02  0.22186155750E+03  0.24334162890E+03  0.88968944484E+02 0.  0.
          5    1    5    5  501    0 -0.48527462023E+02 -0.70964957946E+02  0.16668899475E+03  0.18761196869E+03  0.47000000000E+01 0. -1.
        -13    1    6    6    0    0 -0.15544232354E+02  0.46060066945E+01  0.19841585189E+03  0.19907709245E+03  0.00000000000E+00 0.  1.
         14    1    6    6    0    0 -0.19047512669E+01  0.37496933183E+02  0.23445705614E+02  0.44264536451E+02  0.00000000000E+00 0. -1.
         -5    1    3    3    0  503  0.66100047062E+02  0.48485747695E+02 -0.12595110027E+03  0.15035243134E+03  0.47000000000E+01 0.  1.
         11    1    4    4    0    0 -0.10542377679E+02 -0.61130251647E+01  0.31632006632E+02  0.33898298591E+02  0.00000000000E+00 0. -1.
        -12    1    4    4    0    0  0.10418776261E+02 -0.13510704461E+02 -0.47985555075E+02  0.50928415739E+02  0.00000000000E+00 0.  1.
<mgrwt>
<rscale>  2 0.18703228E+03</rscale>
<asrwt>0</asrwt>
<pdfrwt beam="1">  1       21 0.70182973E-01 0.18723947E+03</pdfrwt>
<pdfrwt beam="2">  1       21 0.32298988E-01 0.18723947E+03</pdfrwt>
<totfact> 0.17046777E+04</totfact>
</mgrwt>
</event>
<event>
12    1  0.1019868E-001  0.2273347E+03  0.7546771E-02  0.1129344E+00
         21   -1    0    0  503  502  0.00000000000E+00  0.00000000000E+00  0.37991823107E+02  0.37991823107E+02  0.00000000000E+00 0.  1.
         21   -1    0    0  501  503 -0.00000000000E+00 -0.00000000000E+00 -0.13820819471E+04  0.13820819471E+04  0.00000000000E+00 0.  1.
          6    2    1    2  501    0 -0.19538897484E+02 -0.14988193251E+03 -0.79869127947E+03  0.82919224533E+03  0.16372433415E+03 0.  0.
         24    2    3    3    0    0 -0.51512659752E+01 -0.65101853209E+02 -0.64279340086E+03  0.65108861161E+03  0.80425351374E+02 0.  0.
         -6    2    1    2    0  502  0.19538897484E+02  0.14988193251E+03 -0.54539884453E+03  0.59088152489E+03  0.16980787566E+03 0.  0.
        -24    2    5    5    0    0  0.71632325439E+02  0.66661105694E+02 -0.26349895360E+03  0.29233660405E+03  0.80337403870E+02 0.  0.
          5    1    3    3  501    0 -0.14387631509E+02 -0.84780079303E+02 -0.15589787861E+03  0.17810363371E+03  0.47000000000E+01 0. -1.
        -11    1    4    4    0    0 -0.21797979300E+02 -0.78773869024E+02 -0.48658720480E+03  0.49340407601E+03  0.00000000000E+00 0.  1.
         12    1    4    4    0    0  0.16646713324E+02  0.13672015814E+02 -0.15620619606E+03  0.15768453560E+03  0.00000000000E+00 0. -1.
         -5    1    5    5    0  502 -0.52093427955E+02  0.83220826818E+02 -0.28189989093E+03  0.29854492084E+03  0.47000000000E+01 0.  1.
         11    1    6    6    0    0  0.17014735124E+02  0.55149977246E+01 -0.16615457940E+01  0.17963216462E+02  0.00000000000E+00 0. -1.
        -12    1    6    6    0    0  0.54617590316E+02  0.61146107970E+02 -0.26183740780E+03  0.27437338759E+03  0.00000000000E+00 0.  1.
<mgrwt>
<rscale>  2 0.22619940E+03</rscale>
<asrwt>0</asrwt>
<pdfrwt beam="1">  1       21 0.58448963E-02 0.22733472E+03</pdfrwt>
<pdfrwt beam="2">  1       21 0.21262797E+00 0.22733472E+03</pdfrwt>
<totfact> 0.22460917E+04</totfact>
</mgrwt>
</event>
<event>
12    1  0.1019868E-001  0.1767863E+03  0.7546771E-02  0.1171422E+00
         21   -1    0    0  501  502  0.00000000000E+00  0.00000000000E+00  0.82361777132E+03  0.82361777132E+03  0.00000000000E+00 0.  1.
         21   -1    0    0  502  503 -0.00000000000E+00 -0.00000000000E+00 -0.50250900401E+02  0.50250900401E+02  0.00000000000E+00 0.  1.
         -6    2    1    2    0  503 -0.26483151538E+02 -0.26754326719E+02  0.16538522816E+03  0.24070592281E+03  0.17079202636E+03 0.  0.
        -24    2    3    3    0    0  0.39997668647E+02 -0.36228221491E+02  0.13665131203E+03  0.16751314946E+03  0.80465996739E+02 0.  0.
          6    2    1    2  501    0  0.26483151538E+02  0.26754326719E+02  0.60798164276E+03  0.63316274892E+03  0.17273169185E+03 0.  0.
         24    2    5    5    0    0 -0.33265230227E+02  0.21483783943E+02  0.50383494231E+03  0.51288692858E+03  0.87379768216E+02 0.  0.
          5    1    5    5  501    0  0.59748381765E+02  0.52705427761E+01  0.10414670045E+03  0.12027582034E+03  0.47000000000E+01 0. -1.
        -11    1    6    6    0    0  0.18761810258E+02  0.20891532867E+02  0.33601808723E+03  0.33718928900E+03  0.00000000000E+00 0.  1.
         12    1    6    6    0    0 -0.52027040485E+02  0.59225107583E+00  0.16781685508E+03  0.17569763958E+03  0.00000000000E+00 0. -1.
         -5    1    3    3    0  503 -0.66480820185E+02  0.94738947724E+01  0.28733916130E+02  0.73192773351E+02  0.47000000000E+01 0.  1.
         11    1    4    4    0    0  0.39826215600E+02 -0.23549144839E+02  0.14508540308E+03  0.15228415498E+03  0.00000000000E+00 0. -1.
        -12    1    4    4    0    0  0.17145304767E+00 -0.12679076652E+02 -0.84340910485E+01  0.15228994475E+02  0.00000000000E+00 0.  1.
<mgrwt>
<rscale>  2 0.17631069E+03</rscale>
<asrwt>0</asrwt>
<pdfrwt beam="1">  1       21 0.12671042E+00 0.17678628E+03</pdfrwt>
<pdfrwt beam="2">  1       21 0.77309084E-02 0.17678628E+03</pdfrwt>
<totfact> 0.59196174E+04</totfact>
</mgrwt>
</event>
<event>
12    1  0.1019868E-001  0.2203503E+03  0.7546771E-02  0.1133919E+00
         21   -1    0    0  503  502  0.00000000000E+00  0.00000000000E+00  0.74182154927E+03  0.74182154927E+03  0.00000000000E+00 0.  1.
         21   -1    0    0  501  503 -0.00000000000E+00 -0.00000000000E+00 -0.13422205563E+03  0.13422205563E+03  0.00000000000E+00 0. -1.
          6    2    1    2  501    0  0.13295079437E+03 -0.23744779805E+02 -0.10271579644E+02  0.22058961804E+03  0.17411072899E+03 0.  0.
         24    2    3    3    0    0  0.13195189141E+02  0.18599176918E+02 -0.30928039840E+02  0.91813863326E+02  0.83385846832E+02 0.  0.
         -6    2    1    2    0  502 -0.13295079437E+03  0.23744779805E+02  0.61787107328E+03  0.65545398686E+03  0.17209165407E+03 0.  0.
        -24    2    5    5    0    0 -0.14501468636E+03 -0.18934802925E+02  0.40092559203E+03  0.43397144555E+03  0.78753407435E+02 0.  0.
          5    1    3    3  501    0  0.11975560523E+03 -0.42343956723E+02  0.20656460197E+02  0.12877575472E+03  0.47000000000E+01 0. -1.
        -13    1    4    4    0    0  0.70899944192E+00 -0.25771344604E+02  0.12350452962E+02  0.28586685209E+02  0.00000000000E+00 0.  1.
         14    1    4    4    0    0  0.12486189699E+02  0.44370521521E+02 -0.43278492803E+02  0.63227178116E+02  0.00000000000E+00 0. -1.
         -5    1    5    5    0  502  0.12063891986E+02  0.42679582730E+02  0.21694548125E+03  0.22148254132E+03  0.47000000000E+01 0.  1.
         13    1    6    6    0    0 -0.79798718446E+02 -0.46012659143E+02  0.26902994168E+03  0.28436263782E+03  0.00000000000E+00 0. -1.
        -14    1    6    6    0    0 -0.65215967912E+02  0.27077856218E+02  0.13189565035E+03  0.14960880773E+03  0.00000000000E+00 0.  1.
<mgrwt>
<rscale>  2 0.21995129E+03</rscale>
<asrwt>0</asrwt>
<pdfrwt beam="1">  1       21 0.11412639E+00 0.22035034E+03</pdfrwt>
<pdfrwt beam="2">  1       21 0.20649547E-01 0.22035034E+03</pdfrwt>
<totfact> 0.12749524E+04</totfact>
</mgrwt>
</event>
<event>
12    1  0.1019868E-001  0.2185125E+03  0.7546771E-02  0.1135002E+00
         21   -1    0    0  503  502  0.00000000000E+00  0.00000000000E+00  0.53299277452E+03  0.53299277452E+03  0.00000000000E+00 0.  1.
         21   -1    0    0  501  503 -0.00000000000E+00 -0.00000000000E+00 -0.14286685126E+03  0.14286685126E+03  0.00000000000E+00 0.  1.
          6    2    1    2  501    0  0.78808865567E+02 -0.10720495864E+03 -0.11338382421E+02  0.21878053680E+03  0.17329923231E+03 0.  0.
         24    2    3    3    0    0 -0.96312299244E+01  0.24637400286E+01 -0.80524830075E+01  0.77777837915E+02  0.76718439657E+02 0.  0.
         -6    2    1    2    0  502 -0.78808865567E+02  0.10720495864E+03  0.40146430568E+03  0.45707908898E+03  0.17333194858E+03 0.  0.
        -24    2    5    5    0    0 -0.57610345734E+01  0.10383381430E+03  0.17351654937E+03  0.21764304359E+03  0.80286057352E+02 0.  0.
          5    1    3    3  501    0  0.88440095491E+02 -0.10966869867E+03 -0.32858994134E+01  0.14100269889E+03  0.47000000000E+01 0. -1.
        -11    1    4    4    0    0 -0.33509612537E+02 -0.18529854345E+02 -0.20736981104E+02  0.43546205572E+02  0.00000000000E+00 0.  1.
         12    1    4    4    0    0  0.23878382612E+02  0.20993594374E+02  0.12684498096E+02  0.34231632343E+02  0.00000000000E+00 0. -1.
         -5    1    5    5    0  502 -0.73047830994E+02  0.33711443430E+01  0.22794775630E+03  0.23943604539E+03  0.47000000000E+01 0.  1.
         11    1    6    6    0    0  0.15880848832E+02 -0.37935915956E+01  0.60745734382E+01  0.17421054482E+02  0.00000000000E+00 0. -1.
        -12    1    6    6    0    0 -0.21641883405E+02  0.10762740589E+03  0.16744197593E+03  0.20022198911E+03  0.00000000000E+00 0.  1.
<mgrwt>
<rscale>  2 0.21850599E+03</rscale>
<asrwt>0</asrwt>
<pdfrwt beam="1">  1       21 0.81998887E-01 0.21851248E+03</pdfrwt>
<pdfrwt beam="2">  1       21 0.21979516E-01 0.21851248E+03</pdfrwt>
<totfact> 0.24782188E+04</totfact>
</mgrwt>
</event>
<event>
12    1  0.1019868E-001  0.2350428E+03  0.7546771E-02  0.1123230E+00
         21   -1    0    0  503  502  0.00000000000E+00  0.00000000000E+00  0.58136151282E+02  0.58136151282E+02  0.00000000000E+00 0.  1.
         21   -1    0    0  501  503 -0.00000000000E+00 -0.00000000000E+00 -0.11404963358E+04  0.11404963358E+04  0.00000000000E+00 0. -1.
          6    2    1    2  501    0 -0.14590033027E+03 -0.62764162736E+02 -0.29555677948E+03  0.37762275815E+03  0.17325960604E+03 0.  0.
         24    2    3    3    0    0 -0.24961523192E+02 -0.50024595225E+02 -0.19886506103E+03  0.22218830234E+03  0.81821705138E+02 0.  0.
         -6    2    1    2    0  502  0.14590033027E+03  0.62764162736E+02 -0.78680340500E+03  0.82100972889E+03  0.17254312595E+03 0.  0.
        -24    2    5    5    0    0  0.44908860062E+01  0.38310879082E+02 -0.32927524835E+03  0.34148006543E+03  0.81844696819E+02 0.  0.
          5    1    3    3  501    0 -0.12093880708E+03 -0.12739567511E+02 -0.96691718447E+02  0.15543445581E+03  0.47000000000E+01 0. -1.
        -13    1    4    4    0    0  0.24803175628E+02 -0.35488163074E+02 -0.60236316951E+02  0.74182350457E+02  0.00000000000E+00 0.  1.
         14    1    4    4    0    0 -0.49764698820E+02 -0.14536432151E+02 -0.13862874408E+03  0.14800595188E+03  0.00000000000E+00 0. -1.
         -5    1    5    5    0  502  0.14140944426E+03  0.24453283654E+02 -0.45752815665E+03  0.47952966345E+03  0.47000000000E+01 0.  1.
         11    1    6    6    0    0  0.30871895696E+02  0.49872915489E+02 -0.17584180693E+03  0.18536645518E+03  0.00000000000E+00 0. -1.
        -12    1    6    6    0    0 -0.26381009690E+02 -0.11562036407E+02 -0.15343344142E+03  0.15611361025E+03  0.00000000000E+00 0.  1.
<mgrwt>
<rscale>  2 0.23491082E+03</rscale>
<asrwt>0</asrwt>
<pdfrwt beam="1">  1       21 0.89440234E-02 0.23504284E+03</pdfrwt>
<pdfrwt beam="2">  1       21 0.17546097E+00 0.23504284E+03</pdfrwt>
<totfact> 0.18759480E+04</totfact>
</mgrwt>
</event>
<event>
12    1  0.1019868E-001  0.1727377E+03  0.7546771E-02  0.1175096E+00
         21   -1    0    0  503  502  0.00000000000E+00  0.00000000000E+00  0.57897685825E+02  0.57897685825E+02  0.00000000000E+00 0. -1.
         21   -1    0    0  501  503 -0.00000000000E+00 -0.00000000000E+00 -0.67037225578E+03  0.67037225578E+03  0.00000000000E+00 0. -1.
          6    2    1    2  501    0  0.30873668154E+01  0.44455874229E+01 -0.48162310252E+03  0.51156641446E+03  0.17236614646E+03 0.  0.
         24    2    3    3    0    0 -0.54377252515E+01 -0.38111383731E+02 -0.44704535306E+03  0.45587544799E+03  0.80565687258E+02 0.  0.
         -6    2    1    2    0  502 -0.30873668154E+01 -0.44455874229E+01 -0.13085146744E+03  0.21670352715E+03  0.17265288027E+03 0.  0.
        -24    2    5    5    0    0  0.62126312187E+02 -0.23116320215E+02 -0.75724838049E+02  0.12916807456E+03  0.80969731760E+02 0.  0.
          5    1    3    3  501    0  0.85250920669E+01  0.42556971154E+02 -0.34577749454E+02  0.55690966466E+02  0.47000000000E+01 0. -1.
        -11    1    4    4    0    0  0.24807870044E+02  0.31366423817E+01 -0.53912303741E+02  0.59428994912E+02  0.00000000000E+00 0.  1.
         12    1    4    4    0    0 -0.30245595295E+02 -0.41248026113E+02 -0.39313304932E+03  0.39644645308E+03  0.00000000000E+00 0. -1.
         -5    1    5    5    0  502 -0.65213679002E+02  0.18670732792E+02 -0.55126629395E+02  0.87535452592E+02  0.47000000000E+01 0.  1.
         11    1    6    6    0    0  0.19903776797E+02  0.23522724083E+02 -0.54796844530E+02  0.62866310927E+02  0.00000000000E+00 0. -1.
        -12    1    6    6    0    0  0.42222535390E+02 -0.46639044299E+02 -0.20927993519E+02  0.66301763631E+02  0.00000000000E+00 0.  1.
<mgrwt>
<rscale>  2 0.17266600E+03</rscale>
<asrwt>0</asrwt>
<pdfrwt beam="1">  1       21 0.89073364E-02 0.17273770E+03</pdfrwt>
<pdfrwt beam="2">  1       21 0.10313419E+00 0.17273770E+03</pdfrwt>
<totfact> 0.76557114E+04</totfact>
</mgrwt>
</event>
<event>
12    1  0.1019868E-001  0.3046720E+03  0.7546771E-02  0.1082952E+00
         21   -1    0    0  503  502  0.00000000000E+00  0.00000000000E+00  0.78401231757E+03  0.78401231757E+03  0.00000000000E+00 0.  1.
         21   -1    0    0  501  503 -0.00000000000E+00 -0.00000000000E+00 -0.13803527643E+03  0.13803527643E+03  0.00000000000E+00 0. -1.
          6    2    1    2  501    0 -0.19439893792E+03  0.15779272372E+03  0.14885137516E+03  0.33908960006E+03  0.17359589354E+03 0.  0.
         24    2    3    3    0    0 -0.15627554230E+03  0.10111068194E+03  0.17264776410E+03  0.26660094383E+03  0.81384259420E+02 0.  0.
         -6    2    1    2    0  502  0.19439893792E+03 -0.15779272372E+03  0.49712566598E+03  0.58295799394E+03  0.17325300631E+03 0.  0.
        -24    2    5    5    0    0  0.78208541951E+02 -0.67608846896E+02  0.11904618213E+03  0.17724932277E+03  0.80980224308E+02 0.  0.
          5    1    3    3  501    0 -0.38123395625E+02  0.56682041784E+02 -0.23796388939E+02  0.72488656225E+02  0.47000000000E+01 0. -1.
        -11    1    4    4    0    0 -0.98590413997E+02  0.88421654140E+02  0.15720237681E+03  0.20555059214E+03  0.00000000000E+00 0.  1.
         12    1    4    4    0    0 -0.57685128301E+02  0.12689027796E+02  0.15445387288E+02  0.61050351694E+02  0.00000000000E+00 0. -1.
         -5    1    5    5    0  502  0.11619039597E+03 -0.90183876823E+02  0.37807948385E+03  0.40570867117E+03  0.47000000000E+01 0.  1.
         11    1    6    6    0    0  0.79108705312E+02 -0.24511400623E+02  0.52818011340E+02  0.98227991624E+02  0.00000000000E+00 0. -1.
        -12    1    6    6    0    0 -0.90016336055E+00 -0.43097446273E+02  0.66228170794E+02  0.79021331146E+02  0.00000000000E+00 0.  1.
<mgrwt>
<rscale>  2 0.30462317E+03</rscale>
<asrwt>0</asrwt>
<pdfrwt beam="1">  1       21 0.12061728E+00 0.30467200E+03</pdfrwt>
<pdfrwt beam="2">  1       21 0.21236197E-01 0.30467200E+03</pdfrwt>
<totfact> 0.10076098E+04</totfact>
</mgrwt>
</event>
<event>
12    1  0.1019868E-001  0.1896465E+03  0.7546771E-02  0.1158820E+00
         21   -1    0    0  501  502  0.00000000000E+00  0.00000000000E+00  0.78762770731E+02  0.78762770731E+02  0.00000000000E+00 0.  1.
         21   -1    0    0  502  503 -0.00000000000E+00 -0.00000000000E+00 -0.49950542067E+03  0.49950542067E+03  0.00000000000E+00 0.  1.
         -6    2    1    2    0  503  0.12271927125E+02  0.73161775824E+02 -0.29557831809E+03  0.35118703536E+03  0.17453522866E+03 0.  0.
        -24    2    3    3    0    0  0.43912123802E+02  0.35578480016E+00 -0.85444192232E+02  0.12650892066E+03  0.82312792572E+02 0.  0.
          6    2    1    2  501    0 -0.12271927125E+02 -0.73161775824E+02 -0.12516433184E+03  0.22708115604E+03  0.17434590854E+03 0.  0.
         24    2    5    5    0    0 -0.56964810501E+02 -0.87748569985E+02 -0.52947069150E+02  0.14078137956E+03  0.77917928172E+02 0.  0.
          5    1    5    5  501    0  0.44692883375E+02  0.14586794161E+02 -0.72217262695E+02  0.86299776474E+02  0.47000000000E+01 0. -1.
        -13    1    6    6    0    0 -0.18666563466E+02 -0.11939164028E+02  0.19216405540E+02  0.29330094974E+02  0.00000000000E+00 0.  1.
         14    1    6    6    0    0 -0.38298247035E+02 -0.75809405957E+02 -0.72163474689E+02  0.11145128459E+03  0.00000000000E+00 0. -1.
         -5    1    3    3    0  503 -0.31640196677E+02  0.72805991024E+02 -0.21013412586E+03  0.22467811470E+03  0.47000000000E+01 0.  1.
         11    1    4    4    0    0  0.41438438242E+02 -0.32827871615E+02 -0.74753210675E+02  0.91557936985E+02  0.00000000000E+00 0. -1.
        -12    1    4    4    0    0  0.24736855606E+01  0.33183656415E+02 -0.10690981558E+02  0.34950983677E+02  0.00000000000E+00 0.  1.
<mgrwt>
<rscale>  2 0.18960292E+03</rscale>
<asrwt>0</asrwt>
<pdfrwt beam="1">  1       21 0.12117350E-01 0.18964649E+03</pdfrwt>
<pdfrwt beam="2">  1       21 0.76846986E-01 0.18964649E+03</pdfrwt>
<totfact> 0.86939203E+04</totfact>
</mgrwt>
</event>
<event>
12    1  0.1019868E-001  0.2130797E+03  0.7546771E-02  0.1139215E+00
         21   -1    0    0  503  502  0.00000000000E+00  0.00000000000E+00  0.10359393633E+04  0.10359393633E+04  0.00000000000E+00 0. -1.
         21   -1    0    0  501  503 -0.00000000000E+00 -0.00000000000E+00 -0.46514852847E+02  0.46514852847E+02  0.00000000000E+00 0.  1.
          6    2    1    2  501    0 -0.11461250058E+03  0.49555901037E+02  0.62682088313E+03  0.66204786964E+03  0.17265905580E+03 0.  0.
         24    2    3    3    0    0 -0.60525842256E+02 -0.12369645913E+02  0.15781273648E+03  0.18586421641E+03  0.76316848907E+02 0.  0.
         -6    2    1    2    0  502  0.11461250058E+03 -0.49555901037E+02  0.36260362733E+03  0.42040634652E+03  0.17224486356E+03 0.  0.
        -24    2    5    5    0    0  0.12350219729E+03  0.11945839918E+02  0.28282533379E+03  0.31917316535E+03  0.80534739222E+02 0.  0.
          5    1    3    3  501    0 -0.54086658321E+02  0.61925546950E+02  0.46900814665E+03  0.47618365322E+03  0.47000000000E+01 0. -1.
        -13    1    4    4    0    0 -0.46989265069E+02  0.14891127561E+02  0.37981657390E+02  0.62228152872E+02  0.00000000000E+00 0.  1.
         14    1    4    4    0    0 -0.13536577187E+02 -0.27260773474E+02  0.11983107909E+03  0.12363606354E+03  0.00000000000E+00 0. -1.
         -5    1    5    5    0  502 -0.88896967131E+01 -0.61501740955E+02  0.79778293546E+02  0.10123318117E+03  0.47000000000E+01 0.  1.
         13    1    6    6    0    0  0.88694834309E+02  0.33571665877E+02  0.24758208902E+03  0.26512397324E+03  0.00000000000E+00 0. -1.
        -14    1    6    6    0    0  0.34807362981E+02 -0.21625825959E+02  0.35243244764E+02  0.54049192108E+02  0.00000000000E+00 0.  1.
<mgrwt>
<rscale>  2 0.21299579E+03</rscale>
<asrwt>0</asrwt>
<pdfrwt beam="1">  1       21 0.15937527E+00 0.21307971E+03</pdfrwt>
<pdfrwt beam="2">  1       21 0.71561320E-02 0.21307971E+03</pdfrwt>
<totfact> 0.36580475E+04</totfact>
</mgrwt>
</event>
<event>
12    1  0.1019868E-001  0.2112720E+03  0.7546771E-02  0.1140745E+00
         21   -1    0    0  501  502  0.00000000000E+00  0.00000000000E+00  0.42916265887E+03  0.42916265887E+03  0.00000000000E+00 0. -1.
         21   -1    0    0  502  503 -0.00000000000E+00 -0.00000000000E+00 -0.24491084731E+03  0.24491084731E+03  0.00000000000E+00 0. -1.
         -6    2    1    2    0  503 -0.39748948924E+02 -0.11528954913E+03 -0.16401555320E+03  0.26673332680E+03  0.17138817595E+03 0.  0.
        -24    2    3    3    0    0 -0.89438501697E+02 -0.55683836368E+02 -0.99056441656E+02  0.16542356014E+03  0.80329573613E+02 0.  0.
          6    2    1    2  501    0  0.39748948924E+02  0.11528954913E+03  0.34826736476E+03  0.40734017939E+03  0.17252305734E+03 0.  0.
         24    2    5    5    0    0  0.16260975058E+02  0.35227150791E+02  0.60287093524E+02  0.10747954649E+03  0.80074638970E+02 0.  0.
          5    1    5    5  501    0  0.23487973866E+02  0.80062398335E+02  0.28798027123E+03  0.29986063290E+03  0.47000000000E+01 0. -1.
        -13    1    6    6    0    0 -0.27594207070E+02  0.35538798048E+02  0.27633865107E+02  0.52802243620E+02  0.00000000000E+00 0.  1.
         14    1    6    6    0    0  0.43855182128E+02 -0.31164725790E+00  0.32653228417E+02  0.54677302873E+02  0.00000000000E+00 0. -1.
         -5    1    3    3    0  503  0.49689552773E+02 -0.59605712758E+02 -0.64959111539E+02  0.10130976666E+03  0.47000000000E+01 0.  1.
         11    1    4    4    0    0 -0.68240652609E+02 -0.74813464197E+02 -0.62343407618E+02  0.11891400913E+03  0.00000000000E+00 0. -1.
        -12    1    4    4    0    0 -0.21197849088E+02  0.19129627829E+02 -0.36713034038E+02  0.46509551010E+02  0.00000000000E+00 0.  1.
<mgrwt>
<rscale>  2 0.21104021E+03</rscale>
<asrwt>0</asrwt>
<pdfrwt beam="1">  1       21 0.66025024E-01 0.21127202E+03</pdfrwt>
<pdfrwt beam="2">  1       21 0.37678592E-01 0.21127202E+03</pdfrwt>
<totfact> 0.14140701E+04</totfact>
</mgrwt>
</event>
<event>
12    1  0.1019868E-001  0.1893978E+03  0.7546771E-02  0.1159031E+00
         21   -1    0    0  503  502  0.00000000000E+00  0.00000000000E+00  0.73495131109E+02  0.73495131109E+02  0.00000000000E+00 0. -1.
         21   -1    0    0  501  503 -0.00000000000E+00 -0.00000000000E+00 -0.50449788534E+03  0.50449788534E+03  0.00000000000E+00 0.  1.
          6    2    1    2  501    0  0.41597823025E+01  0.76976893099E+02 -0.16297792811E+03  0.24986665320E+03  0.17299940309E+03 0.  0.
         24    2    3    3    0    0  0.40772570078E+02  0.47786608145E+02 -0.17379187346E+03  0.20158000516E+03  0.80529006022E+02 0.  0.
         -6    2    1    2    0  502 -0.41597823025E+01 -0.76976893099E+02 -0.26802482612E+03  0.32812636325E+03  0.17287815647E+03 0.  0.
        -24    2    5    5    0    0 -0.28188267663E+02 -0.10087426114E+02 -0.22023404034E+03  0.24234980405E+03  0.96612941167E+02 0.  0.
          5    1    3    3  501    0 -0.36612787776E+02  0.29190284954E+02  0.10813945352E+02  0.48286648035E+02  0.47000000000E+01 0. -1.
        -11    1    4    4    0    0  0.18259220472E+02  0.23893377467E+02 -0.16482886211E+03  0.16754953418E+03  0.00000000000E+00 0.  1.
         12    1    4    4    0    0  0.22513349606E+02  0.23893230678E+02 -0.89630113504E+01  0.34030470982E+02  0.00000000000E+00 0. -1.
         -5    1    5    5    0  502  0.24028485360E+02 -0.66889466986E+02 -0.47790785780E+02  0.85776559198E+02  0.47000000000E+01 0.  1.
         13    1    6    6    0    0 -0.42135966872E+02  0.62284499039E+01 -0.32979749936E+02  0.53869260235E+02  0.00000000000E+00 0. -1.
        -14    1    6    6    0    0  0.13947699209E+02 -0.16315876017E+02 -0.18725429041E+03  0.18848054382E+03  0.00000000000E+00 0.  1.
<mgrwt>
<rscale>  2 0.18937014E+03</rscale>
<asrwt>0</asrwt>
<pdfrwt beam="1">  1       21 0.11306943E-01 0.18939783E+03</pdfrwt>
<pdfrwt beam="2">  1       21 0.77615060E-01 0.18939783E+03</pdfrwt>
<totfact> 0.96212714E+04</totfact>
</mgrwt>
</event>
<event>
12    1  0.1019868E-001  0.2113847E+03  0.7546771E-02  0.1140791E+00
         21   -1    0    0  503  502  0.00000000000E+00  0.00000000000E+00  0.49908773789E+03  0.49908773789E+03  0.00000000000E+00 0.  1.
         21   -1    0    0  501  503 -0.00000000000E+00 -0.00000000000E+00 -0.90938085416E+02  0.90938085416E+02  0.00000000000E+00 0. -1.
          6    2    1    2  501    0  0.12053195810E+03 -0.97555082619E+01  0.15861980695E+03  0.26299579114E+03  0.17141592731E+03 0.  0.
         24    2    3    3    0    0  0.74967497349E+02  0.36279886314E+02  0.15988064873E+03  0.19804151985E+03  0.81989425743E+02 0.  0.
         -6    2    1    2    0  502 -0.12053195810E+03  0.97555082619E+01  0.24952984552E+03  0.32703003217E+03  0.17337928155E+03 0.  0.
        -24    2    5    5    0    0 -0.64508334221E+02 -0.27982005641E+02  0.50038554718E+02  0.11636054816E+03  0.78048718024E+02 0.  0.
          5    1    3    3  501    0  0.45564460749E+02 -0.46035394576E+02 -0.12608417804E+01  0.64954271293E+02  0.47000000000E+01 0. -1.
        -13    1    4    4    0    0 -0.48937464332E+01 -0.13296015368E+02  0.20153673711E+01  0.14310642349E+02  0.00000000000E+00 0.  1.
         14    1    4    4    0    0  0.79861243782E+02  0.49575901682E+02  0.15786528136E+03  0.18373087750E+03  0.00000000000E+00 0. -1.
         -5    1    5    5    0  502 -0.56023623878E+02  0.37737513903E+02  0.19949129081E+03  0.21066948402E+03  0.47000000000E+01 0.  1.
         11    1    6    6    0    0  0.15597566061E+02  0.76478439540E+01  0.77440093111E+01  0.19019549531E+02  0.00000000000E+00 0. -1.
        -12    1    6    6    0    0 -0.80105900281E+02 -0.35629849595E+02  0.42294545407E+02  0.97340998624E+02  0.00000000000E+00 0.  1.
<mgrwt>
<rscale>  2 0.21098173E+03</rscale>
<asrwt>0</asrwt>
<pdfrwt beam="1">  1       21 0.76782727E-01 0.21138472E+03</pdfrwt>
<pdfrwt beam="2">  1       21 0.13990475E-01 0.21138472E+03</pdfrwt>
<totfact> 0.66582484E+04</totfact>
</mgrwt>
</event>
<event>
12    1  0.1019868E-001  0.1758842E+03  0.7546771E-02  0.1172149E+00
         21   -1    0    0  501  502  0.00000000000E+00  0.00000000000E+00  0.26822308639E+03  0.26822308639E+03  0.00000000000E+00 0. -1.
         21   -1    0    0  502  503 -0.00000000000E+00 -0.00000000000E+00 -0.11727452220E+03  0.11727452220E+03  0.00000000000E+00 0. -1.
         -6    2    1    2    0  503  0.22398933019E+01  0.30339044857E+02  0.45802315935E+02  0.18058059561E+03  0.17200588537E+03 0.  0.
        -24    2    3    3    0    0 -0.32061444245E+02  0.69298513610E+02  0.45587897443E+00  0.11149505944E+03  0.81244816811E+02 0.  0.
          6    2    1    2  501    0 -0.22398933019E+01 -0.30339044857E+02  0.10514624825E+03  0.20491701297E+03  0.17323329334E+03 0.  0.
         24    2    5    5    0    0  0.63913967769E+02 -0.20081861130E+02  0.85430606345E+02  0.13497175089E+03  0.80191699162E+02 0.  0.
          5    1    5    5  501    0 -0.66153861071E+02 -0.10257183727E+02  0.19715641906E+02  0.69945262087E+02  0.47000000000E+01 0. -1.
        -13    1    6    6    0    0 -0.56049460884E+01  0.22287676022E+02  0.21292429478E+02  0.31329275066E+02  0.00000000000E+00 0.  1.
         14    1    6    6    0    0  0.69518913857E+02 -0.42369537152E+02  0.64138176867E+02  0.10364247582E+03  0.00000000000E+00 0. -1.
         -5    1    3    3    0  503  0.34301337547E+02 -0.38959468753E+02  0.45346436961E+02  0.69085536171E+02  0.47000000000E+01 0.  1.
         11    1    4    4    0    0 -0.58856262860E+02  0.36987572318E+02 -0.21870303379E+00  0.69513941154E+02  0.00000000000E+00 0. -1.
        -12    1    4    4    0    0  0.26794818615E+02  0.32310941292E+02  0.67458200823E+00  0.41981118287E+02  0.00000000000E+00 0.  1.
<mgrwt>
<rscale>  2 0.17558121E+03</rscale>
<asrwt>0</asrwt>
<pdfrwt beam="1">  1       21 0.41265090E-01 0.17588419E+03</pdfrwt>
<pdfrwt beam="2">  1       21 0.18042234E-01 0.17588419E+03</pdfrwt>
<totfact> 0.15893773E+05</totfact>
</mgrwt>
</event>
<event>
12    1  0.1019868E-001  0.1952196E+03  0.7546771E-02  0.1153899E+00
         21   -1    0    0  503  502  0.00000000000E+00  0.00000000000E+00  0.16597545105E+03  0.16597545105E+03  0.00000000000E+00 0. -1.
         21   -1    0    0  501  503 -0.00000000000E+00 -0.00000000000E+00 -0.37053979579E+03  0.37053979579E+03  0.00000000000E+00 0.  1.
          6    2    1    2  501    0 -0.69574999992E+02  0.58753532496E+02 -0.26796311233E+03  0.33153418809E+03  0.17267897990E+03 0.  0.
         24    2    3    3    0    0 -0.50812317014E+02  0.10479350578E+03 -0.19701916206E+03  0.24477675905E+03  0.86807494724E+02 0.  0.
         -6    2    1    2    0  502  0.69574999992E+02 -0.58753532496E+02  0.63398767590E+02  0.20498105875E+03  0.17235188571E+03 0.  0.
        -24    2    5    5    0    0  0.40399098242E+02 -0.88371604617E+02  0.91108992121E+02  0.15479729661E+03  0.78865245512E+02 0.  0.
          5    1    3    3  501    0 -0.18762682978E+02 -0.46039973287E+02 -0.70943950275E+02  0.86757429039E+02  0.47000000000E+01 0. -1.
        -13    1    4    4    0    0 -0.37372165210E+02  0.21107870234E+02 -0.12945463363E+03  0.13638446791E+03  0.00000000000E+00 0.  1.
         14    1    4    4    0    0 -0.13440151804E+02  0.83685635550E+02 -0.67564528424E+02  0.10839229114E+03  0.00000000000E+00 0. -1.
         -5    1    5    5    0  502  0.29175901750E+02  0.29618072120E+02 -0.27710224531E+02  0.50183762141E+02  0.47000000000E+01 0.  1.
         13    1    6    6    0    0  0.32301030784E+02  0.29184601600E+01  0.33055733262E+02  0.46309345719E+02  0.00000000000E+00 0. -1.
        -14    1    6    6    0    0  0.80980674586E+01 -0.91290064777E+02  0.58053258859E+02  0.10848795089E+03  0.00000000000E+00 0.  1.
<mgrwt>
<rscale>  2 0.19514723E+03</rscale>
<asrwt>0</asrwt>
<pdfrwt beam="1">  1       21 0.25534685E-01 0.19521959E+03</pdfrwt>
<pdfrwt beam="2">  1       21 0.57006122E-01 0.19521959E+03</pdfrwt>
<totfact> 0.41998429E+04</totfact>
</mgrwt>
</event>
<event>
12    1  0.1019868E-001  0.1816267E+03  0.7546771E-02  0.1166362E+00
         21   -1    0    0  503  502  0.00000000000E+00  0.00000000000E+00  0.21724416309E+03  0.21724416309E+03  0.00000000000E+00 0. -1.
         21   -1    0    0  501  503 -0.00000000000E+00 -0.00000000000E+00 -0.20100365429E+03  0.20100365429E+03  0.00000000000E+00 0. -1.
          6    2    1    2  501    0  0.55464870847E+02  0.97465665538E+01 -0.95759083965E+02  0.20486513243E+03  0.17212952352E+03 0.  0.
         24    2    3    3    0    0 -0.28789422619E+02 -0.19313689531E+02 -0.22958929116E+02  0.89690321830E+02  0.79469440327E+02 0.  0.
         -6    2    1    2    0  502 -0.55464870847E+02 -0.97465665538E+01  0.11199959276E+03  0.21338268495E+03  0.17267574815E+03 0.  0.
        -24    2    5    5    0    0 -0.74355530346E+02 -0.58324402479E+02  0.49594081490E+02  0.13193821923E+03  0.77573448791E+02 0.  0.
          5    1    3    3  501    0  0.84254293466E+02  0.29060256085E+02 -0.72800154849E+02  0.11517481060E+03  0.47000000000E+01 0. -1.
        -11    1    4    4    0    0 -0.28288549412E+02  0.21027935284E+02 -0.32815697407E+02  0.48158966834E+02  0.00000000000E+00 0.  1.
         12    1    4    4    0    0 -0.50087320662E+00 -0.40341624815E+02  0.98567682915E+01  0.41531354997E+02  0.00000000000E+00 0. -1.
         -5    1    5    5    0  502  0.18890659499E+02  0.48577835925E+02  0.62405511267E+02  0.81444465717E+02  0.47000000000E+01 0.  1.
         11    1    6    6    0    0 -0.32273342963E+02 -0.67971989704E+02  0.46934177127E+02  0.88682450535E+02  0.00000000000E+00 0. -1.
        -12    1    6    6    0    0 -0.42082187383E+02  0.96475872248E+01  0.26599043633E+01  0.43255768695E+02  0.00000000000E+00 0.  1.
<mgrwt>
<rscale>  2 0.18149676E+03</rscale>
<asrwt>0</asrwt>
<pdfrwt beam="1">  1       21 0.33422179E-01 0.18162671E+03</pdfrwt>
<pdfrwt beam="2">  1       21 0.30923639E-01 0.18162671E+03</pdfrwt>
<totfact> 0.86969461E+04</totfact>
</mgrwt>
</event>
<event>
12    1  0.1019868E-001  0.2452529E+03  0.7546771E-02  0.1116578E+00
         21   -1    0    0  503  502  0.00000000000E+00  0.00000000000E+00  0.12670319493E+04  0.12670319493E+04  0.00000000000E+00 0.  1.
         21   -1    0    0  501  503 -0.00000000000E+00 -0.00000000000E+00 -0.47255520413E+02  0.47255520413E+02  0.00000000000E+00 0.  1.
          6    2    1    2  501    0 -0.12156217717E+03 -0.12235007507E+03  0.63228412659E+03  0.67765870205E+03  0.17231133433E+03 0.  0.
         24    2    3    3    0    0 -0.12191854686E+03 -0.15287592844E+03  0.56102391809E+03  0.59999235129E+03  0.83712623802E+02 0.  0.
         -6    2    1    2    0  502  0.12156217717E+03  0.12235007507E+03  0.58749230232E+03  0.63662876768E+03  0.17436191893E+03 0.  0.
        -24    2    5    5    0    0  0.13730661476E+03  0.90691349923E+02  0.33941114072E+03  0.38599653725E+03  0.81947403348E+02 0.  0.
          5    1    3    3  501    0  0.35636969337E+00  0.30525853371E+02  0.71260208504E+02  0.77666350754E+02  0.47000000000E+01 0. -1.
        -11    1    4    4    0    0 -0.39628531729E+02 -0.47954104021E+02  0.30549370714E+03  0.31176340664E+03  0.00000000000E+00 0.  1.
         12    1    4    4    0    0 -0.82290015132E+02 -0.10492182442E+03  0.25553021095E+03  0.28822894465E+03  0.00000000000E+00 0. -1.
         -5    1    5    5    0  502 -0.15744437596E+02  0.31658725144E+02  0.24808116160E+03  0.25063223043E+03  0.47000000000E+01 0.  1.
         11    1    6    6    0    0  0.42914940396E+02  0.54050104833E+02  0.70515767174E+02  0.98669039530E+02  0.00000000000E+00 0. -1.
        -12    1    6    6    0    0  0.94391674367E+02  0.36641245090E+02  0.26889537355E+03  0.28732749772E+03  0.00000000000E+00 0.  1.
<mgrwt>
<rscale>  2 0.24488869E+03</rscale>
<asrwt>0</asrwt>
<pdfrwt beam="1">  1       21 0.19492797E+00 0.24525290E+03</pdfrwt>
<pdfrwt beam="2">  1       21 0.72700810E-02 0.24525290E+03</pdfrwt>
<totfact> 0.19788276E+04</totfact>
</mgrwt>
</event>
<event>
12    1  0.1019868E-001  0.1786655E+03  0.7546771E-02  0.1169914E+00
         21   -1    0    0  501  502  0.00000000000E+00  0.00000000000E+00  0.22552307797E+02  0.22552307797E+02  0.00000000000E+00 0. -1.
         21   -1    0    0  502  503 -0.00000000000E+00 -0.00000000000E+00 -0.21521784904E+04  0.21521784904E+04  0.00000000000E+00 0. -1.
         -6    2    1    2    0  503  0.22067241358E+02 -0.39715735799E+02 -0.17057209129E+04  0.17147122905E+04  0.16938153208E+03 0.  0.
        -24    2    3    3    0    0  0.28846084762E+02 -0.77378918841E+02 -0.15490058124E+04  0.15533239985E+04  0.81097740363E+02 0.  0.
          6    2    1    2  501    0 -0.22067241358E+02  0.39715735799E+02 -0.42390526962E+03  0.46001850769E+03  0.17279191820E+03 0.  0.
         24    2    5    5    0    0 -0.13173439644E+02 -0.43939004923E+02 -0.19291351624E+03  0.21413948158E+03  0.80845019362E+02 0.  0.
          5    1    5    5  501    0 -0.88938017145E+01  0.83654740722E+02 -0.23099175338E+03  0.24587902611E+03  0.47000000000E+01 0. -1.
        -13    1    6    6    0    0 -0.47482298080E+02 -0.24553603981E+02 -0.11568353549E+03  0.12743676268E+03  0.00000000000E+00 0.  1.
         14    1    6    6    0    0  0.34308858436E+02 -0.19385400942E+02 -0.77229980751E+02  0.86702718894E+02  0.00000000000E+00 0. -1.
         -5    1    3    3    0  503 -0.67788434039E+01  0.37663183042E+02 -0.15671510050E+03  0.16138829202E+03  0.47000000000E+01 0.  1.
         13    1    4    4    0    0 -0.16505086542E+01 -0.84350814019E+02 -0.11018230950E+04  0.11050483775E+04  0.00000000000E+00 0. -1.
        -14    1    4    4    0    0  0.30496593416E+02  0.69718951782E+01 -0.44718271748E+03  0.44827562096E+03  0.00000000000E+00 0.  1.
<mgrwt>
<rscale>  2 0.17783567E+03</rscale>
<asrwt>0</asrwt>
<pdfrwt beam="1">  1       21 0.34695853E-02 0.17866547E+03</pdfrwt>
<pdfrwt beam="2">  1       21 0.33110443E+00 0.17866547E+03</pdfrwt>
<totfact> 0.11401177E+04</totfact>
</mgrwt>
</event>
<event>
12    1  0.1019868E-001  0.2366217E+03  0.7546771E-02  0.1123552E+00
         21   -1    0    0  503  502  0.00000000000E+00  0.00000000000E+00  0.59042272398E+03  0.59042272398E+03  0.00000000000E+00 0.  1.
         21   -1    0    0  501  503 -0.00000000000E+00 -0.00000000000E+00 -0.34403124658E+03  0.34403124658E+03  0.00000000000E+00 0. -1.
          6    2    1    2  501    0 -0.25902259714E+02  0.15924824401E+03 -0.27776075317E+03  0.35936668325E+03  0.16112866519E+03 0.  0.
         24    2    3    3    0    0 -0.85417381482E+01  0.11162319984E+03 -0.27587990494E+03  0.30842396904E+03  0.80516598863E+02 0.  0.
         -6    2    1    2    0  502  0.25902259714E+02 -0.15924824401E+03  0.52415223058E+03  0.57508728732E+03  0.17308638575E+03 0.  0.
        -24    2    5    5    0    0  0.76253153478E+02 -0.78963623139E+02  0.23467557002E+03  0.27045692136E+03  0.77617819823E+02 0.  0.
          5    1    3    3  501    0 -0.17360521566E+02  0.47625044166E+02 -0.18808482317E+01  0.50942714209E+02  0.47000000000E+01 0. -1.
        -11    1    4    4    0    0 -0.12737549200E+02 -0.56581808439E+00 -0.26419934603E+01  0.13020961530E+02  0.00000000000E+00 0.  1.
         12    1    4    4    0    0  0.41958110514E+01  0.11218901793E+03 -0.27323791148E+03  0.29540300751E+03  0.00000000000E+00 0. -1.
         -5    1    5    5    0  502 -0.50350893764E+02 -0.80284620871E+02  0.28947666056E+03  0.30463036596E+03  0.47000000000E+01 0.  1.
         11    1    6    6    0    0  0.37493566231E+01 -0.22656683647E+02  0.55507892784E+01  0.23626134905E+02  0.00000000000E+00 0. -1.
        -12    1    6    6    0    0  0.72503796855E+02 -0.56306939492E+02  0.22912478074E+03  0.24683078645E+03  0.00000000000E+00 0.  1.
<mgrwt>
<rscale>  2 0.23444146E+03</rscale>
<asrwt>0</asrwt>
<pdfrwt beam="1">  1       21 0.90834266E-01 0.23662170E+03</pdfrwt>
<pdfrwt beam="2">  1       21 0.52927884E-01 0.23662170E+03</pdfrwt>
<totfact> 0.33613821E+03</totfact>
</mgrwt>
</event>
<event>
12    1  0.1019868E-001  0.2252528E+03  0.7546771E-02  0.1130121E+00
         21   -1    0    0  503  502  0.00000000000E+00  0.00000000000E+00  0.77520804210E+02  0.77520804210E+02  0.00000000000E+00 0.  1.
         21   -1    0    0  501  503 -0.00000000000E+00 -0.00000000000E+00 -0.66508223525E+03  0.66508223525E+03  0.00000000000E+00 0. -1.
          6    2    1    2  501    0  0.10255120984E+03  0.10089347240E+03 -0.34348068937E+03  0.41046715324E+03  0.17265009850E+03 0.  0.
         24    2    3    3    0    0  0.13123164547E+03  0.63011091243E+02 -0.31143752552E+03  0.35296500946E+03  0.79992644746E+02 0.  0.
         -6    2    1    2    0  502 -0.10255120984E+03 -0.10089347240E+03 -0.24408074167E+03  0.33213588621E+03  0.17332799844E+03 0.  0.
        -24    2    5    5    0    0 -0.11526504816E+03 -0.64384242328E+02 -0.24870017324E+03  0.29291861051E+03  0.80735210587E+02 0.  0.
          5    1    3    3  501    0 -0.28680435630E+02  0.37882381156E+02 -0.32043163848E+02  0.57502143781E+02  0.47000000000E+01 0. -1.
        -11    1    4    4    0    0  0.65315620231E+02  0.49204660044E+02 -0.90416808859E+02  0.12191155868E+03  0.00000000000E+00 0.  1.
         12    1    4    4    0    0  0.65916025237E+02  0.13806431198E+02 -0.22102071666E+03  0.23105345078E+03  0.00000000000E+00 0. -1.
         -5    1    5    5    0  502  0.12713838317E+02 -0.36509230070E+02  0.46194315711E+01  0.39217275698E+02  0.47000000000E+01 0.  1.
         13    1    6    6    0    0 -0.44743509718E+02 -0.24303601028E+02 -0.17857756729E+03  0.18569489552E+03  0.00000000000E+00 0. -1.
        -14    1    6    6    0    0 -0.70521538437E+02 -0.40080641300E+02 -0.70122605951E+02  0.10722371499E+03  0.00000000000E+00 0.  1.
<mgrwt>
<rscale>  2 0.22512242E+03</rscale>
<asrwt>0</asrwt>
<pdfrwt beam="1">  1       21 0.11926277E-01 0.22525283E+03</pdfrwt>
<pdfrwt beam="2">  1       21 0.10232035E+00 0.22525283E+03</pdfrwt>
<totfact> 0.45363603E+04</totfact>
</mgrwt>
</event>
<event>
12    1  0.1019868E-001  0.1859446E+03  0.7546771E-02  0.1162721E+00
         21   -1    0    0  503  502  0.00000000000E+00  0.00000000000E+00  0.27280356729E+03  0.27280356729E+03  0.00000000000E+00 0.  1.
         21   -1    0    0  501  503 -0.00000000000E+00 -0.00000000000E+00 -0.16432968782E+04  0.16432968782E+04  0.00000000000E+00 0.  1.
          6    2    1    2  501    0 -0.65151642510E+02 -0.94398439775E+01 -0.16057617746E+04  0.16162227295E+04  0.17138024234E+03 0.  0.
         24    2    3    3    0    0 -0.43033143044E+01 -0.54780088091E+02 -0.11536783373E+04  0.11577908577E+04  0.80539355226E+02 0.  0.
         -6    2    1    2    0  502  0.65151642510E+02  0.94398439775E+01  0.23526846368E+03  0.29987771598E+03  0.17390096999E+03 0.  0.
        -24    2    5    5    0    0 -0.26274527842E+02 -0.61912765076E+01  0.16154334805E+03  0.18130048702E+03  0.77749151619E+02 0.  0.
          5    1    3    3  501    0 -0.60848328205E+02  0.45340244114E+02 -0.45208343728E+03  0.45843187176E+03  0.47000000000E+01 0. -1.
        -11    1    4    4    0    0 -0.15318836385E+02  0.16154639061E+02 -0.42570791001E+03  0.42628964773E+03  0.00000000000E+00 0.  1.
         12    1    4    4    0    0  0.11015522081E+02 -0.70934727152E+02 -0.72797042726E+03  0.73150120998E+03  0.00000000000E+00 0. -1.
         -5    1    5    5    0  502  0.91426170351E+02  0.15631120485E+02  0.73725115633E+02  0.11857722896E+03  0.47000000000E+01 0.  1.
         11    1    6    6    0    0 -0.10331201655E+02  0.22638325687E+02  0.13940522930E+03  0.14160877612E+03  0.00000000000E+00 0. -1.
        -12    1    6    6    0    0 -0.15943326186E+02 -0.28829602195E+02  0.22138118744E+02  0.39691710899E+02  0.00000000000E+00 0.  1.
<mgrwt>
<rscale>  2 0.18535296E+03</rscale>
<asrwt>0</asrwt>
<pdfrwt beam="1">  1       21 0.41969778E-01 0.18594460E+03</pdfrwt>
<pdfrwt beam="2">  1       21 0.25281491E+00 0.18594460E+03</pdfrwt>
<totfact> 0.35308280E+02</totfact>
</mgrwt>
</event>
<event>
12    1  0.1019868E-001  0.1964503E+03  0.7546771E-02  0.1152872E+00
         21   -1    0    0  501  502  0.00000000000E+00  0.00000000000E+00  0.71950609350E+03  0.71950609350E+03  0.00000000000E+00 0. -1.
         21   -1    0    0  502  503 -0.00000000000E+00 -0.00000000000E+00 -0.57609083113E+02  0.57609083113E+02  0.00000000000E+00 0. -1.
         -6    2    1    2    0  503  0.89215867486E+02  0.22548358856E+02  0.22764191037E+03  0.30068850301E+03  0.17356507998E+03 0.  0.
        -24    2    3    3    0    0  0.96906533893E+02  0.64122143345E+02  0.10125517775E+03  0.16733475508E+03  0.65159678150E+02 0.  0.
          6    2    1    2  501    0 -0.89215867486E+02 -0.22548358856E+02  0.43425510002E+03  0.47642667360E+03  0.17302307340E+03 0.  0.
         24    2    5    5    0    0  0.35093860665E+01 -0.51864671765E+02  0.17302433961E+03  0.19764177617E+03  0.80141060794E+02 0.  0.
          5    1    5    5  501    0 -0.92725253553E+02  0.29316312909E+02  0.26123076041E+03  0.27878489743E+03  0.47000000000E+01 0. -1.
        -13    1    6    6    0    0  0.58824848498E+01  0.11859159037E+02 -0.28644063173E-02  0.13237948832E+02  0.00000000000E+00 0.  1.
         14    1    6    6    0    0 -0.23730987833E+01 -0.63723830802E+02  0.17302720401E+03  0.18440382734E+03  0.00000000000E+00 0. -1.
         -5    1    3    3    0  503 -0.76906664066E+01 -0.41573784489E+02  0.12638673261E+03  0.13335374793E+03  0.47000000000E+01 0.  1.
         13    1    4    4    0    0  0.21601695657E+02  0.38439535127E+02  0.81084062438E+01  0.44832771137E+02  0.00000000000E+00 0. -1.
        -14    1    4    4    0    0  0.75304838236E+02  0.25682608218E+02  0.93146771508E+02  0.12250198394E+03  0.00000000000E+00 0.  1.
<mgrwt>
<rscale>  2 0.19633056E+03</rscale>
<asrwt>0</asrwt>
<pdfrwt beam="1">  1       21 0.11069324E+00 0.19645034E+03</pdfrwt>
<pdfrwt beam="2">  1       21 0.88629364E-02 0.19645034E+03</pdfrwt>
<totfact> 0.64427791E+04</totfact>
</mgrwt>
</event>
<event>
12    1  0.1019868E-001  0.1920288E+03  0.7546771E-02  0.1157028E+00
         21   -1    0    0  501  502  0.00000000000E+00  0.00000000000E+00  0.42743839990E+03  0.42743839990E+03  0.00000000000E+00 0. -1.
         21   -1    0    0  502  503 -0.00000000000E+00 -0.00000000000E+00 -0.89995590994E+02  0.89995590994E+02  0.00000000000E+00 0.  1.
         -6    2    1    2    0  503  0.26775890110E+02 -0.77041376873E+02  0.11162126540E+03  0.22211342653E+03  0.17384690194E+03 0.  0.
        -24    2    3    3    0    0  0.82203788117E+02 -0.38160388459E+02  0.89739727717E+02  0.15080511825E+03  0.80469167589E+02 0.  0.
          6    2    1    2  501    0 -0.26775890110E+02  0.77041376873E+02  0.22582154350E+03  0.29532056436E+03  0.17194924886E+03 0.  0.
         24    2    5    5    0    0  0.72051804386E+01  0.32816519819E+02  0.22256927371E+03  0.23925615145E+03  0.81102316898E+02 0.  0.
          5    1    5    5  501    0 -0.33981070549E+02  0.44224857054E+02  0.32522697928E+01  0.56064412919E+02  0.47000000000E+01 0. -1.
        -11    1    6    6    0    0  0.51190028909E+01  0.11730306511E+01 -0.62991232790E+01  0.82011673309E+01  0.00000000000E+00 0.  1.
         12    1    6    6    0    0  0.20861775477E+01  0.31643489168E+02  0.22886839699E+03  0.23105498411E+03  0.00000000000E+00 0. -1.
         -5    1    3    3    0  503 -0.55427898007E+02 -0.38880988413E+02  0.21881537682E+02  0.71308308273E+02  0.47000000000E+01 0.  1.
         13    1    4    4    0    0  0.73275821508E+02 -0.61186769326E+02  0.78840823252E+02  0.12381050912E+03  0.00000000000E+00 0. -1.
        -14    1    4    4    0    0  0.89279666091E+01  0.23026380866E+02  0.10898904465E+02  0.26994609130E+02  0.00000000000E+00 0.  1.
<mgrwt>
<rscale>  2 0.19159831E+03</rscale>
<asrwt>0</asrwt>
<pdfrwt beam="1">  1       21 0.65759753E-01 0.19202882E+03</pdfrwt>
<pdfrwt beam="2">  1       21 0.13845476E-01 0.19202882E+03</pdfrwt>
<totfact> 0.96432488E+04</totfact>
</mgrwt>
</event>
<event>
12    1  0.1019868E-001  0.1962389E+03  0.7546771E-02  0.1152981E+00
         21   -1    0    0  501  502  0.00000000000E+00  0.00000000000E+00  0.20566738856E+03  0.20566738856E+03  0.00000000000E+00 0.  1.
         21   -1    0    0  502  503 -0.00000000000E+00 -0.00000000000E+00 -0.19908335286E+03  0.19908335286E+03  0.00000000000E+00 0. -1.
         -6    2    1    2    0  503  0.21161576524E+02  0.89101736159E+02 -0.46333378983E+02  0.20163457027E+03  0.17355917208E+03 0.  0.
        -24    2    3    3    0    0  0.36587019245E+02  0.96287582427E+02 -0.87578541849E+02  0.15676995025E+03  0.79353057929E+02 0.  0.
          6    2    1    2  501    0 -0.21161576524E+02 -0.89101736159E+02  0.52917414676E+02  0.20311617115E+03  0.17340413633E+03 0.  0.
         24    2    5    5    0    0 -0.22890506512E+02 -0.78086894149E+02  0.10225706717E+03  0.15231452500E+03  0.78241091597E+02 0.  0.
          5    1    5    5  501    0  0.17289299885E+01 -0.11014842011E+02 -0.49339652489E+02  0.50801646146E+02  0.47000000000E+01 0. -1.
        -11    1    6    6    0    0  0.56593358559E+01 -0.63433484090E+02  0.24570493301E+02  0.68260853549E+02  0.00000000000E+00 0.  1.
         12    1    6    6    0    0 -0.28549842368E+02 -0.14653410059E+02  0.77686573864E+02  0.84053671450E+02  0.00000000000E+00 0. -1.
         -5    1    3    3    0  503 -0.15425442721E+02 -0.71858462678E+01  0.41245162866E+02  0.44864620021E+02  0.47000000000E+01 0.  1.
         13    1    4    4    0    0 -0.17715416885E+02  0.48180469978E+02 -0.60476643085E+02  0.79326023735E+02  0.00000000000E+00 0. -1.
        -14    1    4    4    0    0  0.54302436130E+02  0.48107112449E+02 -0.27101898764E+02  0.77443926518E+02  0.00000000000E+00 0.  1.
<mgrwt>
<rscale>  2 0.19620465E+03</rscale>
<asrwt>0</asrwt>
<pdfrwt beam="1">  1       21 0.31641137E-01 0.19623893E+03</pdfrwt>
<pdfrwt beam="2">  1       21 0.30628208E-01 0.19623893E+03</pdfrwt>
<totfact> 0.98131114E+04</totfact>
</mgrwt>
</event>
<event>
12    1  0.1019868E-001  0.4181157E+03  0.7546771E-02  0.1037697E+00
         21   -1    0    0  501  502  0.00000000000E+00  0.00000000000E+00  0.69762210260E+03  0.69762210260E+03  0.00000000000E+00 0. -1.
         21   -1    0    0  502  503 -0.00000000000E+00 -0.00000000000E+00 -0.25412330068E+03  0.25412330068E+03  0.00000000000E+00 0.  1.
         -6    2    1    2    0  503  0.34111277245E+03 -0.16833208680E+03  0.16481330802E+03  0.44942646847E+03  0.17357162523E+03 0.  0.
        -24    2    3    3    0    0  0.26468640363E+03 -0.17364434148E+03  0.17759373544E+03  0.37161490619E+03  0.79667145277E+02 0.  0.
          6    2    1    2  501    0 -0.34111277245E+03  0.16833208680E+03  0.27868549390E+03  0.50231893481E+03  0.17310428299E+03 0.  0.
         24    2    5    5    0    0 -0.99879667134E+02  0.89277558780E+02  0.61454263460E+02  0.16817147189E+03  0.80985103890E+02 0.  0.
          5    1    5    5  501    0 -0.24123310531E+03  0.79054528022E+02  0.21723123044E+03  0.33414746292E+03  0.47000000000E+01 0. -1.
        -13    1    6    6    0    0  0.97057177817E+01  0.15151504328E+02 -0.68809117831E+01  0.19264370948E+02  0.00000000000E+00 0.  1.
         14    1    6    6    0    0 -0.10958538492E+03  0.74126054452E+02  0.68335175243E+02  0.14890710094E+03  0.00000000000E+00 0. -1.
         -5    1    3    3    0  503  0.76426368813E+02  0.53122546766E+01 -0.12780427417E+02  0.77811562282E+02  0.47000000000E+01 0.  1.
         11    1    4    4    0    0  0.10153698951E+03 -0.34580311920E+02  0.30118769791E+02  0.11141229064E+03  0.00000000000E+00 0. -1.
        -12    1    4    4    0    0  0.16314941412E+03 -0.13906402956E+03  0.14747496565E+03  0.26020261555E+03  0.00000000000E+00 0.  1.
<mgrwt>
<rscale>  2 0.41806723E+03</rscale>
<asrwt>0</asrwt>
<pdfrwt beam="1">  1       21 0.10732648E+00 0.41811568E+03</pdfrwt>
<pdfrwt beam="2">  1       21 0.39095892E-01 0.41811568E+03</pdfrwt>
<totfact> 0.38601903E+03</totfact>
</mgrwt>
</event>
<event>
12    1  0.1019868E-001  0.2096952E+03  0.7546771E-02  0.1141949E+00
         21   -1    0    0  503  502  0.00000000000E+00  0.00000000000E+00  0.69895439526E+02  0.69895439526E+02  0.00000000000E+00 0.  1.
         21   -1    0    0  501  503 -0.00000000000E+00 -0.00000000000E+00 -0.17144901195E+04  0.17144901195E+04  0.00000000000E+00 0. -1.
          6    2    1    2  501    0  0.11449850631E+03  0.28584905442E+02 -0.15333781423E+04  0.15476500311E+04  0.17333518674E+03 0.  0.
         24    2    3    3    0    0  0.75338058563E+02  0.54130350823E+01 -0.45235887901E+03  0.46566333355E+03  0.80676271462E+02 0.  0.
         -6    2    1    2    0  502 -0.11449850631E+03 -0.28584905442E+02 -0.11121653776E+03  0.23673552793E+03  0.17247488846E+03 0.  0.
        -24    2    5    5    0    0 -0.18573359923E+02 -0.63392867660E+02 -0.32343845083E+02  0.10767655074E+03  0.78641527811E+02 0.  0.
          5    1    3    3  501    0  0.39160447745E+02  0.23171870359E+02 -0.10810192633E+04  0.10819866976E+04  0.47000000000E+01 0. -1.
        -13    1    4    4    0    0  0.29262206501E+02 -0.31269971983E+02 -0.28596342861E+03  0.28915250367E+03  0.00000000000E+00 0.  1.
         14    1    4    4    0    0  0.46075852062E+02  0.36683007066E+02 -0.16639545040E+03  0.17651082988E+03  0.00000000000E+00 0. -1.
         -5    1    5    5    0  502 -0.95925146385E+02  0.34807962218E+02 -0.78872692680E+02  0.12905897719E+03  0.47000000000E+01 0.  1.
         13    1    6    6    0    0  0.15981158542E+02 -0.12187439301E+02 -0.40649732420E+02  0.45346795376E+02  0.00000000000E+00 0. -1.
        -14    1    6    6    0    0 -0.34554518465E+02 -0.51205428358E+02  0.83058873372E+01  0.62329755367E+02  0.00000000000E+00 0.  1.
<mgrwt>
<rscale>  2 0.20951737E+03</rscale>
<asrwt>0</asrwt>
<pdfrwt beam="1">  1       21 0.10753145E-01 0.20969524E+03</pdfrwt>
<pdfrwt beam="2">  1       21 0.26376771E+00 0.20969524E+03</pdfrwt>
<totfact> 0.38711545E+03</totfact>
</mgrwt>
</event>
<event>
12    1  0.1019868E-001  0.1978640E+03  0.7546771E-02  0.1151861E+00
         21   -1    0    0  501  502  0.00000000000E+00  0.00000000000E+00  0.47281489247E+03  0.47281489247E+03  0.00000000000E+00 0.  1.
         21   -1    0    0  502  503 -0.00000000000E+00 -0.00000000000E+00 -0.20271222658E+03  0.20271222658E+03  0.00000000000E+00 0.  1.
         -6    2    1    2    0  503 -0.85364110099E+02  0.40997083670E+02 -0.12517267830E+03  0.23413325462E+03  0.17373079567E+03 0.  0.
        -24    2    3    3    0    0 -0.29339017657E+02 -0.44798808923E+02 -0.50324382178E+02  0.10715253325E+03  0.77983400165E+02 0.  0.
          6    2    1    2  501    0  0.85364110099E+02 -0.40997083670E+02  0.39527534419E+03  0.44139386443E+03  0.17209925530E+03 0.  0.
         24    2    5    5    0    0  0.88936583705E+02  0.20292874689E+02  0.32718661636E+03  0.34959306694E+03  0.82720697790E+02 0.  0.
          5    1    5    5  501    0 -0.35724736054E+01 -0.61289958359E+02  0.68088727829E+02  0.91800797495E+02  0.47000000000E+01 0. -1.
        -11    1    6    6    0    0 -0.50890106865E+00  0.31709616717E+02  0.64790524709E+02  0.72135780752E+02  0.00000000000E+00 0.  1.
         12    1    6    6    0    0  0.89445484773E+02 -0.11416742028E+02  0.26239609165E+03  0.27745728619E+03  0.00000000000E+00 0. -1.
         -5    1    3    3    0  503 -0.56025092442E+02  0.85795892593E+02 -0.74848296122E+02  0.12698072138E+03  0.47000000000E+01 0.  1.
         13    1    4    4    0    0 -0.10303603154E+02 -0.43544835671E+02 -0.67830574916E+02  0.81260715263E+02  0.00000000000E+00 0. -1.
        -14    1    4    4    0    0 -0.19035414504E+02 -0.12539732527E+01  0.17506192738E+02  0.25891817983E+02  0.00000000000E+00 0.  1.
<mgrwt>
<rscale>  2 0.19750533E+03</rscale>
<asrwt>0</asrwt>
<pdfrwt beam="1">  1       21 0.72740753E-01 0.19786405E+03</pdfrwt>
<pdfrwt beam="2">  1       21 0.31186496E-01 0.19786405E+03</pdfrwt>
<totfact> 0.16758208E+04</totfact>
</mgrwt>
</event>
<event>
12    1  0.1019868E-001  0.2288406E+03  0.7546771E-02  0.1127553E+00
         21   -1    0    0  503  502  0.00000000000E+00  0.00000000000E+00  0.14056362334E+04  0.14056362334E+04  0.00000000000E+00 0. -1.
         21   -1    0    0  501  503 -0.00000000000E+00 -0.00000000000E+00 -0.60519304992E+02  0.60519304992E+02  0.00000000000E+00 0. -1.
          6    2    1    2  501    0  0.11002393161E+03 -0.10065475830E+03  0.11274319872E+04  0.11503157684E+04  0.17287809417E+03 0.  0.
         24    2    3    3    0    0  0.13003188632E+03 -0.44481672587E+02  0.65958306624E+03  0.67865865075E+03  0.81491302096E+02 0.  0.
         -6    2    1    2    0  502 -0.11002393161E+03  0.10065475830E+03  0.21768494120E+03  0.31583976995E+03  0.17358393003E+03 0.  0.
        -24    2    5    5    0    0 -0.10927751848E+03  0.12102923788E+03  0.12454779224E+03  0.22038142790E+03  0.80412491224E+02 0.  0.
          5    1    3    3  501    0 -0.20007954716E+02 -0.56173085711E+02  0.46784892095E+03  0.47165711766E+03  0.47000000000E+01 0. -1.
        -13    1    4    4    0    0  0.13264209220E+03 -0.54957335419E+02  0.54594076757E+03  0.56450469886E+03  0.00000000000E+00 0.  1.
         14    1    4    4    0    0 -0.26102058750E+01  0.10475662832E+02  0.11364229867E+03  0.11415395190E+03  0.00000000000E+00 0. -1.
         -5    1    5    5    0  502 -0.74641312930E+00 -0.20374479587E+02  0.93137148957E+02  0.95458342050E+02  0.47000000000E+01 0.  1.
         13    1    6    6    0    0  0.24482823998E+00  0.52698597645E+02  0.34505817577E+02  0.62990900782E+02  0.00000000000E+00 0. -1.
        -14    1    6    6    0    0 -0.10952234672E+03  0.68330640239E+02  0.90041974665E+02  0.15739052712E+03  0.00000000000E+00 0.  1.
<mgrwt>
<rscale>  2 0.22870676E+03</rscale>
<asrwt>0</asrwt>
<pdfrwt beam="1">  1       21 0.21625170E+00 0.22884061E+03</pdfrwt>
<pdfrwt beam="2">  1       21 0.93106633E-02 0.22884061E+03</pdfrwt>
<totfact> 0.94739792E+03</totfact>
</mgrwt>
</event>
<event>
12    1  0.1019868E-001  0.1905786E+03  0.7546771E-02  0.1158087E+00
         21   -1    0    0  503  502  0.00000000000E+00  0.00000000000E+00  0.28105307093E+03  0.28105307093E+03  0.00000000000E+00 0.  1.
         21   -1    0    0  501  503 -0.00000000000E+00 -0.00000000000E+00 -0.21298211506E+03  0.21298211506E+03  0.00000000000E+00 0.  1.
          6    2    1    2  501    0  0.21264282810E+01 -0.78462911211E+02 -0.12130948768E+03  0.22536222812E+03  0.17294852393E+03 0.  0.
         24    2    3    3    0    0  0.46988579592E+02 -0.17661556520E+02 -0.13679937817E+02  0.93773370852E+02  0.78015685548E+02 0.  0.
         -6    2    1    2    0  502 -0.21264282810E+01  0.78462911211E+02  0.18938044355E+03  0.26867295787E+03  0.17366420402E+03 0.  0.
        -24    2    5    5    0    0 -0.42240423951E+02  0.32708352275E+01  0.64851886985E+02  0.11770133027E+03  0.88616500286E+02 0.  0.
          5    1    3    3  501    0 -0.44862151311E+02 -0.60801354691E+02 -0.10762954987E+03  0.13158885727E+03  0.47000000000E+01 0. -1.
        -13    1    4    4    0    0  0.44059130966E+01  0.90378297461E-01 -0.40279411667E+02  0.40519763606E+02  0.00000000000E+00 0.  1.
         14    1    4    4    0    0  0.42582666495E+02 -0.17751934817E+02  0.26599473850E+02  0.53253607246E+02  0.00000000000E+00 0. -1.
         -5    1    5    5    0  502  0.40113995670E+02  0.75192075984E+02  0.12452855656E+03  0.15097162760E+03  0.47000000000E+01 0.  1.
         13    1    6    6    0    0 -0.65915264154E+01 -0.15553323814E+02  0.74382378667E+02  0.76276420723E+02  0.00000000000E+00 0. -1.
        -14    1    6    6    0    0 -0.35648897536E+02  0.18824159042E+02 -0.95304916822E+01  0.41424909545E+02  0.00000000000E+00 0.  1.
<mgrwt>
<rscale>  2 0.19041542E+03</rscale>
<asrwt>0</asrwt>
<pdfrwt beam="1">  1       21 0.43238934E-01 0.19057861E+03</pdfrwt>
<pdfrwt beam="2">  1       21 0.32766479E-01 0.19057861E+03</pdfrwt>
<totfact> 0.46149006E+04</totfact>
</mgrwt>
</event>
<event>
12    1  0.1019868E-001  0.2253603E+03  0.7546771E-02  0.1130144E+00
         21   -1    0    0  501  502  0.00000000000E+00  0.00000000000E+00  0.30370570089E+03  0.30370570089E+03  0.00000000000E+00 0. -1.
         21   -1    0    0  502  503 -0.00000000000E+00 -0.00000000000E+00 -0.20220060091E+03  0.20220060091E+03  0.00000000000E+00 0.  1.
         -6    2    1    2    0  503 -0.14009888002E+03 -0.35275835776E+02 -0.55746827485E+02  0.23110561787E+03  0.17155179120E+03 0.  0.
        -24    2    3    3    0    0 -0.59429284393E+02 -0.70900985566E+02  0.70775815246E+01  0.12272789265E+03  0.80332147215E+02 0.  0.
          6    2    1    2  501    0  0.14009888002E+03  0.35275835776E+02  0.15725192746E+03  0.27480068393E+03  0.17296001395E+03 0.  0.
         24    2    5    5    0    0  0.29524107861E+02  0.47589451563E+02  0.21443077457E+02  0.99174549457E+02  0.78989599595E+02 0.  0.
          5    1    5    5  501    0  0.11057477215E+03 -0.12313615787E+02  0.13580885000E+03  0.17562613447E+03  0.47000000000E+01 0. -1.
        -13    1    6    6    0    0  0.20680642601E+02  0.68249096157E+02  0.26608078824E+02  0.76115819403E+02  0.00000000000E+00 0.  1.
         14    1    6    6    0    0  0.88434652604E+01 -0.20659644595E+02 -0.51650013671E+01  0.23058730054E+02  0.00000000000E+00 0. -1.
         -5    1    3    3    0  503 -0.80669595623E+02  0.35625149790E+02 -0.62824409010E+02  0.10837772522E+03  0.47000000000E+01 0.  1.
         11    1    4    4    0    0 -0.49824392088E+02 -0.66963520960E+01  0.23900378004E+02  0.55664524134E+02  0.00000000000E+00 0. -1.
        -12    1    4    4    0    0 -0.96048923057E+01 -0.64204633470E+02 -0.16822796479E+02  0.67063368516E+02  0.00000000000E+00 0.  1.
<mgrwt>
<rscale>  2 0.22509003E+03</rscale>
<asrwt>0</asrwt>
<pdfrwt beam="1">  1       21 0.46723954E-01 0.22536026E+03</pdfrwt>
<pdfrwt beam="2">  1       21 0.31107785E-01 0.22536026E+03</pdfrwt>
<totfact> 0.42852081E+04</totfact>
</mgrwt>
</event>
<event>
12    1  0.1019868E-001  0.1762222E+03  0.7546771E-02  0.1171778E+00
         21   -1    0    0  503  502  0.00000000000E+00  0.00000000000E+00  0.67988161253E+03  0.67988161253E+03  0.00000000000E+00 0. -1.
         21   -1    0    0  501  503 -0.00000000000E+00 -0.00000000000E+00 -0.48666371749E+02  0.48666371749E+02  0.00000000000E+00 0. -1.
          6    2    1    2  501    0  0.30000412398E+02 -0.48825806833E+01  0.41090835097E+03  0.44710169942E+03  0.17358108304E+03 0.  0.
         24    2    3    3    0    0  0.65463737302E+02 -0.29969616038E+02  0.16333656854E+03  0.19570383902E+03  0.80233903051E+02 0.  0.
         -6    2    1    2    0  502 -0.30000412398E+02  0.48825806833E+01  0.22030688981E+03  0.28144628486E+03  0.17249064098E+03 0.  0.
        -24    2    5    5    0    0 -0.11282817463E+02  0.66988978825E+02  0.16751940373E+03  0.19768375304E+03  0.80008064191E+02 0.  0.
          5    1    3    3  501    0 -0.35463324903E+02  0.25087035354E+02  0.24757178244E+03  0.25139786040E+03  0.47000000000E+01 0. -1.
        -13    1    4    4    0    0  0.21285223175E+02 -0.71517486939E+01 -0.24813077826E+01  0.22591262101E+02  0.00000000000E+00 0.  1.
         14    1    4    4    0    0  0.44178514127E+02 -0.22817867344E+02  0.16581787632E+03  0.17311257692E+03  0.00000000000E+00 0. -1.
         -5    1    5    5    0  502 -0.18717594936E+02 -0.62106398142E+02  0.52787486080E+02  0.83762531820E+02  0.47000000000E+01 0.  1.
         11    1    6    6    0    0 -0.80657366442E+01  0.25339547916E+02  0.16592914171E+01  0.26643987018E+02  0.00000000000E+00 0. -1.
        -12    1    6    6    0    0 -0.32170808184E+01  0.41649430909E+02  0.16586011231E+03  0.17103976602E+03  0.00000000000E+00 0.  1.
<mgrwt>
<rscale>  2 0.17595306E+03</rscale>
<asrwt>0</asrwt>
<pdfrwt beam="1">  1       21 0.10459716E+00 0.17622218E+03</pdfrwt>
<pdfrwt beam="2">  1       21 0.74871346E-02 0.17622218E+03</pdfrwt>
<totfact> 0.99968425E+04</totfact>
</mgrwt>
</event>
<event>
11    1  0.1019868E-001  0.2114499E+03  0.7546771E-02  0.1141934E+00
         21   -1    0    0  501  502  0.00000000000E+00  0.00000000000E+00  0.13518774684E+04  0.13518774684E+04  0.00000000000E+00 0. -1.
         21   -1    0    0  502  503 -0.00000000000E+00 -0.00000000000E+00 -0.69258176603E+02  0.69258176603E+02  0.00000000000E+00 0. -1.
         -6    2    1    2    0  503 -0.10400820422E+03 -0.33261583662E+02  0.11412535575E+03  0.23366390368E+03  0.17219228660E+03 0.  0.
          6    2    1    2  501    0  0.10400820422E+03  0.33261583662E+02  0.11684939360E+04  0.11874717413E+04  0.18107185970E+03 0.  0.
         24    2    4    4    0    0  0.18773621305E+02 -0.33999396805E+02  0.73768024103E+03  0.74316159803E+03  0.81293388075E+02 0.  0.
          5    1    4    4  501    0  0.85234582914E+02  0.67260980466E+02  0.43081369502E+03  0.44431014330E+03  0.47000000000E+01 0. -1.
        -13    1    5    5    0    0 -0.19537545011E+02 -0.37794471593E+02  0.22159364460E+03  0.22564104474E+03  0.00000000000E+00 0.  1.
         14    1    5    5    0    0  0.38311166316E+02  0.37950747883E+01  0.51608659643E+03  0.51752055328E+03  0.00000000000E+00 0. -1.
         -5    1    3    3    0  503 -0.20820591286E+02 -0.75308599498E+02  0.11094354499E+00  0.78275056617E+02  0.47000000000E+01 0.  1.
         11    1    3    3    0    0 -0.30028988100E+02  0.87074364206E+01  0.81260479401E+01  0.32304678151E+02  0.00000000000E+00 0. -1.
        -12    1    3    3    0    0 -0.53158624834E+02  0.33339579416E+02  0.10588836427E+03  0.12308416891E+03  0.00000000000E+00 0.  1.
<mgrwt>
<rscale>  2 0.20953599E+03</rscale>
<asrwt>0</asrwt>
<pdfrwt beam="1">  1       21 0.20798113E+00 0.21144989E+03</pdfrwt>
<pdfrwt beam="2">  1       21 0.10655105E-01 0.21144989E+03</pdfrwt>
<totfact> 0.85263120E+03</totfact>
</mgrwt>
</event>
<event>
12    1  0.1019868E-001  0.3801554E+03  0.7546771E-02  0.1050954E+00
         21   -1    0    0  501  502  0.00000000000E+00  0.00000000000E+00  0.25055993870E+03  0.25055993870E+03  0.00000000000E+00 0.  1.
         21   -1    0    0  502  503 -0.00000000000E+00 -0.00000000000E+00 -0.67563984584E+03  0.67563984584E+03  0.00000000000E+00 0. -1.
         -6    2    1    2    0  503 -0.22670478645E+03  0.25166262765E+03 -0.39062188471E+03  0.54448594803E+03  0.17073474291E+03 0.  0.
        -24    2    3    3    0    0 -0.59490914475E+02  0.14925835607E+03 -0.15044947847E+03  0.23440210689E+03  0.80573422298E+02 0.  0.
          6    2    1    2  501    0  0.22670478645E+03 -0.25166262765E+03 -0.34458022435E+02  0.38171383652E+03  0.17259478359E+03 0.  0.
         24    2    5    5    0    0  0.18174492560E+03 -0.23614162809E+03 -0.76407186300E+02  0.31812049674E+03  0.81046319016E+02 0.  0.
          5    1    5    5  501    0  0.44959860855E+02 -0.15520999554E+02  0.41949163865E+02  0.63593339779E+02  0.47000000000E+01 0. -1.
        -11    1    6    6    0    0  0.15548260895E+02 -0.25818989065E+02 -0.36129317374E+02  0.47049932913E+02  0.00000000000E+00 0.  1.
         12    1    6    6    0    0  0.16619666470E+03 -0.21032263903E+03 -0.40277868926E+02  0.27107056382E+03  0.00000000000E+00 0. -1.
         -5    1    3    3    0  503 -0.16721387198E+03  0.10240427158E+03 -0.24017240624E+03  0.31008384114E+03  0.47000000000E+01 0.  1.
         11    1    4    4    0    0 -0.15869561976E+02  0.28047048222E+02  0.48927243047E+01  0.32594764341E+02  0.00000000000E+00 0. -1.
        -12    1    4    4    0    0 -0.43621352499E+02  0.12121130784E+03 -0.15534220277E+03  0.20180734255E+03  0.00000000000E+00 0.  1.
<mgrwt>
<rscale>  2 0.37994497E+03</rscale>
<asrwt>0</asrwt>
<pdfrwt beam="1">  1       21 0.38547683E-01 0.38015536E+03</pdfrwt>
<pdfrwt beam="2">  1       21 0.10394459E+00 0.38015536E+03</pdfrwt>
<totfact> 0.43630444E+03</totfact>
</mgrwt>
</event>
<event>
12    1  0.1019868E-001  0.1964000E+03  0.7546771E-02  0.1152924E+00
         21   -1    0    0  501  502  0.00000000000E+00  0.00000000000E+00  0.15072963309E+04  0.15072963309E+04  0.00000000000E+00 0. -1.
         21   -1    0    0  502  503 -0.00000000000E+00 -0.00000000000E+00 -0.48631981949E+02  0.48631981949E+02  0.00000000000E+00 0. -1.
         -6    2    1    2    0  503  0.83934486303E+02  0.39939324619E+02  0.19356670063E+03  0.27575535776E+03  0.17301098837E+03 0.  0.
        -24    2    3    3    0    0  0.23248834051E+02 -0.70460753192E+01  0.21832160224E+02  0.87592612863E+02  0.81275255435E+02 0.  0.
          6    2    1    2  501    0 -0.83934486303E+02 -0.39939324619E+02  0.12650976483E+04  0.12801729551E+04  0.17242559997E+03 0.  0.
         24    2    5    5    0    0 -0.12483449154E+03 -0.30129181117E+02  0.91031679972E+03  0.92287673363E+03  0.80829275491E+02 0.  0.
          5    1    5    5  501    0  0.40900005239E+02 -0.98101435016E+01  0.35478084862E+03  0.35729622149E+03  0.47000000000E+01 0. -1.
        -13    1    6    6    0    0 -0.29490495040E+02 -0.45404694708E+02  0.38052296173E+03  0.38435530438E+03  0.00000000000E+00 0.  1.
         14    1    6    6    0    0 -0.95343996501E+02  0.15275513590E+02  0.52979383799E+03  0.53852142925E+03  0.00000000000E+00 0. -1.
         -5    1    3    3    0  503  0.60685652252E+02  0.46985399938E+02  0.17173454041E+03  0.18816274489E+03  0.47000000000E+01 0.  1.
         11    1    4    4    0    0  0.43580732640E+02  0.12353020693E+02  0.34330170476E+02  0.56836942059E+02  0.00000000000E+00 0. -1.
        -12    1    4    4    0    0 -0.20331898589E+02 -0.19399096013E+02 -0.12498010252E+02  0.30755670804E+02  0.00000000000E+00 0.  1.
<mgrwt>
<rscale>  2 0.19627098E+03</rscale>
<asrwt>0</asrwt>
<pdfrwt beam="1">  1       21 0.23189171E+00 0.19639997E+03</pdfrwt>
<pdfrwt beam="2">  1       21 0.74818445E-02 0.19639997E+03</pdfrwt>
<totfact> 0.11445542E+04</totfact>
</mgrwt>
</event>
<event>
12    1  0.1019868E-001  0.2145226E+03  0.7546771E-02  0.1138407E+00
         21   -1    0    0  503  502  0.00000000000E+00  0.00000000000E+00  0.10485435825E+03  0.10485435825E+03  0.00000000000E+00 0.  1.
         21   -1    0    0  501  503 -0.00000000000E+00 -0.00000000000E+00 -0.65667660880E+03  0.65667660880E+03  0.00000000000E+00 0.  1.
          6    2    1    2  501    0  0.11206181719E+03  0.58720201882E+02 -0.49798331496E+03  0.54222441018E+03  0.17324553684E+03 0.  0.
         24    2    3    3    0    0 -0.94761773879E+01  0.82266018961E+01 -0.14791463964E+03  0.16820401608E+03  0.79097253350E+02 0.  0.
         -6    2    1    2    0  502 -0.11206181719E+03 -0.58720201882E+02 -0.53838935584E+02  0.21930655687E+03  0.17085321748E+03 0.  0.
        -24    2    5    5    0    0 -0.11052154124E+03 -0.98780698283E+02 -0.59191393984E+02  0.17858856782E+03  0.80110036836E+02 0.  0.
          5    1    3    3  501    0  0.12153799457E+03  0.50493599986E+02 -0.35006867531E+03  0.37402039410E+03  0.47000000000E+01 0. -1.
        -11    1    4    4    0    0 -0.11331425429E+02 -0.28827970707E+02 -0.11331807603E+03  0.11747527166E+03  0.00000000000E+00 0.  1.
         12    1    4    4    0    0  0.18552480414E+01  0.37054572603E+02 -0.34596563614E+02  0.50728744416E+02  0.00000000000E+00 0. -1.
         -5    1    5    5    0  502 -0.15402759451E+01  0.40060496400E+02  0.53524584000E+01  0.40717989056E+02  0.47000000000E+01 0.  1.
         11    1    6    6    0    0 -0.33720896601E+02 -0.77568214690E+02 -0.10545288350E+02  0.85235731382E+02  0.00000000000E+00 0. -1.
        -12    1    6    6    0    0 -0.76800644641E+02 -0.21212483592E+02 -0.48646105634E+02  0.93352836436E+02  0.00000000000E+00 0.  1.
<mgrwt>
<rscale>  2 0.21403910E+03</rscale>
<asrwt>0</asrwt>
<pdfrwt beam="1">  1       21 0.16131440E-01 0.21452256E+03</pdfrwt>
<pdfrwt beam="2">  1       21 0.10102717E+00 0.21452256E+03</pdfrwt>
<totfact> 0.27178723E+04</totfact>
</mgrwt>
</event>
<event>
12    1  0.1019868E-001  0.1808496E+03  0.7546771E-02  0.1166986E+00
         21   -1    0    0  501  502  0.00000000000E+00  0.00000000000E+00  0.34377033107E+03  0.34377033107E+03  0.00000000000E+00 0.  1.
         21   -1    0    0  502  503 -0.00000000000E+00 -0.00000000000E+00 -0.18394721629E+03  0.18394721629E+03  0.00000000000E+00 0.  1.
         -6    2    1    2    0  503 -0.29912589009E+02 -0.44316758230E+02 -0.10342815397E+03  0.20833619824E+03  0.17276530445E+03 0.  0.
        -24    2    3    3    0    0 -0.19332670722E+02  0.40456893821E+02 -0.75301380346E+02  0.11827115426E+03  0.79418232369E+02 0.  0.
          6    2    1    2  501    0  0.29912589009E+02  0.44316758230E+02  0.26325126875E+03  0.31938134912E+03  0.17275554296E+03 0.  0.
         24    2    5    5    0    0 -0.12670804076E+02  0.31578615126E+02  0.49519746101E+02  0.10102645581E+03  0.81218109499E+02 0.  0.
          5    1    5    5  501    0  0.42583393085E+02  0.12738143103E+02  0.21373152265E+03  0.21835489331E+03  0.47000000000E+01 0. -1.
        -13    1    6    6    0    0  0.32220861952E+02  0.12107396181E+02  0.36964518975E+02  0.50508896743E+02  0.00000000000E+00 0.  1.
         14    1    6    6    0    0 -0.44891666028E+02  0.19471218945E+02  0.12555227126E+02  0.50517559068E+02  0.00000000000E+00 0. -1.
         -5    1    3    3    0  503 -0.10579918287E+02 -0.84773652050E+02 -0.28126773627E+02  0.90065043982E+02  0.47000000000E+01 0.  1.
         13    1    4    4    0    0 -0.45708073962E+02  0.44668438139E+02 -0.46819110637E+02  0.79224532260E+02  0.00000000000E+00 0. -1.
        -14    1    4    4    0    0  0.26375403240E+02 -0.42115443183E+01 -0.28482269709E+02  0.39046621997E+02  0.00000000000E+00 0.  1.
<mgrwt>
<rscale>  2 0.18084730E+03</rscale>
<asrwt>0</asrwt>
<pdfrwt beam="1">  1       21 0.52887743E-01 0.18084963E+03</pdfrwt>
<pdfrwt beam="2">  1       21 0.28299572E-01 0.18084963E+03</pdfrwt>
<totfact> 0.40672425E+04</totfact>
</mgrwt>
</event>
<event>
12    1  0.1019868E-001  0.1730295E+03  0.7546771E-02  0.1174808E+00
         21   -1    0    0  503  502  0.00000000000E+00  0.00000000000E+00  0.32268546788E+03  0.32268546788E+03  0.00000000000E+00 0.  1.
         21   -1    0    0  501  503 -0.00000000000E+00 -0.00000000000E+00 -0.16549825432E+03  0.16549825432E+03  0.00000000000E+00 0.  1.
          6    2    1    2  501    0 -0.44745251732E+01  0.76467737879E+01 -0.83357106898E+02  0.19206145089E+03  0.17280248587E+03 0.  0.
         24    2    3    3    0    0  0.35826088337E+02 -0.47527888449E+02 -0.73489174289E+02  0.12286716719E+03  0.78442802413E+02 0.  0.
         -6    2    1    2    0  502  0.44745251732E+01 -0.76467737879E+01  0.24054432047E+03  0.29612227131E+03  0.17247705625E+03 0.  0.
        -24    2    5    5    0    0 -0.52120353394E+02 -0.20827536047E+02  0.83704475552E+02  0.12879761764E+03  0.80200184451E+02 0.  0.
          5    1    3    3  501    0 -0.40300613511E+02  0.55174662237E+02 -0.98679326085E+01  0.69194283696E+02  0.47000000000E+01 0. -1.
        -13    1    4    4    0    0 -0.96884097347E+01 -0.14364587710E+02 -0.63311935049E+02  0.65639986159E+02  0.00000000000E+00 0.  1.
         14    1    4    4    0    0  0.45514498072E+02 -0.33163300739E+02 -0.10177239240E+02  0.57227181035E+02  0.00000000000E+00 0. -1.
         -5    1    5    5    0  502  0.56594878567E+02  0.13180762259E+02  0.15683984491E+03  0.16732465367E+03  0.47000000000E+01 0.  1.
         13    1    6    6    0    0 -0.38776423295E+01 -0.44121197100E+02  0.39375697083E+02  0.59263493521E+02  0.00000000000E+00 0. -1.
        -14    1    6    6    0    0 -0.48242711064E+02  0.23293661053E+02  0.44328778469E+02  0.69534124116E+02  0.00000000000E+00 0.  1.
<mgrwt>
<rscale>  2 0.17294815E+03</rscale>
<asrwt>0</asrwt>
<pdfrwt beam="1">  1       21 0.49643918E-01 0.17302946E+03</pdfrwt>
<pdfrwt beam="2">  1       21 0.25461270E-01 0.17302946E+03</pdfrwt>
<totfact> 0.57083785E+04</totfact>
</mgrwt>
</event>
<event>
12    1  0.1019868E-001  0.2925990E+03  0.7546771E-02  0.1089770E+00
         21   -1    0    0  501  502  0.00000000000E+00  0.00000000000E+00  0.18766676144E+03  0.18766676144E+03  0.00000000000E+00 0. -1.
         21   -1    0    0  502  503 -0.00000000000E+00 -0.00000000000E+00 -0.49006760118E+03  0.49006760118E+03  0.00000000000E+00 0. -1.
         -6    2    1    2    0  503  0.11942588905E+03  0.19666308524E+03 -0.25018860302E+03  0.38051343879E+03  0.17104744356E+03 0.  0.
        -24    2    3    3    0    0  0.82540515186E+02  0.17512357003E+03 -0.11575274188E+03  0.23937672394E+03  0.80133122262E+02 0.  0.
          6    2    1    2  501    0 -0.11942588905E+03 -0.19666308524E+03 -0.52212236724E+02  0.29722092384E+03  0.18076296035E+03 0.  0.
         24    2    5    5    0    0  0.14962963859E+02 -0.87372149237E+02 -0.14231280230E+02  0.11982443139E+03  0.79357307605E+02 0.  0.
          5    1    5    5  501    0 -0.13438885291E+03 -0.10929093600E+03 -0.37980956495E+02  0.17739649245E+03  0.47000000000E+01 0. -1.
        -11    1    6    6    0    0  0.16156836377E+01  0.13771088175E+02 -0.11091558144E+02  0.17756012087E+02  0.00000000000E+00 0.  1.
         12    1    6    6    0    0  0.13347280222E+02 -0.10114323741E+03 -0.31397220852E+01  0.10206841930E+03  0.00000000000E+00 0. -1.
         -5    1    3    3    0  503  0.36885373866E+02  0.21539515209E+02 -0.13443586113E+03  0.14113671485E+03  0.47000000000E+01 0.  1.
         11    1    4    4    0    0  0.23690412248E+01  0.74130753703E+02 -0.71576249542E+02  0.10307347137E+03  0.00000000000E+00 0. -1.
        -12    1    4    4    0    0  0.80171473962E+02  0.10099281632E+03 -0.44176492343E+02  0.13630325257E+03  0.00000000000E+00 0.  1.
<mgrwt>
<rscale>  2 0.29111262E+03</rscale>
<asrwt>0</asrwt>
<pdfrwt beam="1">  1       21 0.28871810E-01 0.29259897E+03</pdfrwt>
<pdfrwt beam="2">  1       21 0.75395015E-01 0.29259897E+03</pdfrwt>
<totfact> 0.17126585E+04</totfact>
</mgrwt>
</event>
<event>
12    1  0.1019868E-001  0.1811007E+03  0.7546771E-02  0.1167072E+00
         21   -1    0    0  501  502  0.00000000000E+00  0.00000000000E+00  0.16895378281E+03  0.16895378281E+03  0.00000000000E+00 0. -1.
         21   -1    0    0  502  503 -0.00000000000E+00 -0.00000000000E+00 -0.27785012217E+03  0.27785012217E+03  0.00000000000E+00 0. -1.
         -6    2    1    2    0  503  0.49775003459E+02 -0.90384994921E+01 -0.17800955662E+03  0.25296354183E+03  0.17246421602E+03 0.  0.
        -24    2    3    3    0    0 -0.10461535516E+02  0.39214206355E+02 -0.53051918336E+02  0.10601706990E+03  0.82328095841E+02 0.  0.
          6    2    1    2  501    0 -0.49775003459E+02  0.90384994921E+01  0.69113217250E+02  0.19384036315E+03  0.17389135730E+03 0.  0.
         24    2    5    5    0    0 -0.30376939000E+02  0.64945679223E+02  0.36929654140E+01  0.10550126082E+03  0.77305746022E+02 0.  0.
          5    1    5    5  501    0 -0.19398064460E+02 -0.55907179731E+02  0.65420251836E+02  0.88339102330E+02  0.47000000000E+01 0. -1.
        -13    1    6    6    0    0 -0.31796721936E+02  0.68923921145E+02  0.27943979028E+02  0.80885130869E+02  0.00000000000E+00 0.  1.
         14    1    6    6    0    0  0.14197829361E+01 -0.39782419218E+01 -0.24251013614E+02  0.24616129949E+02  0.00000000000E+00 0. -1.
         -5    1    3    3    0  503  0.60236538975E+02 -0.48252705847E+02 -0.12495763828E+03  0.14694647193E+03  0.47000000000E+01 0.  1.
         13    1    4    4    0    0 -0.22034763403E+02  0.56707642498E+02 -0.58441472570E+02  0.84360495684E+02  0.00000000000E+00 0. -1.
        -14    1    4    4    0    0  0.11573227887E+02 -0.17493436142E+02  0.53895542337E+01  0.21656574213E+02  0.00000000000E+00 0.  1.
<mgrwt>
<rscale>  2 0.18075721E+03</rscale>
<asrwt>0</asrwt>
<pdfrwt beam="1">  1       21 0.25992890E-01 0.18110066E+03</pdfrwt>
<pdfrwt beam="2">  1       21 0.42746172E-01 0.18110066E+03</pdfrwt>
<totfact> 0.74364382E+04</totfact>
</mgrwt>
</event>
<event>
12    1  0.1019868E-001  0.2282227E+03  0.7546771E-02  0.1128109E+00
         21   -1    0    0  501  502  0.00000000000E+00  0.00000000000E+00  0.13330434246E+03  0.13330434246E+03  0.00000000000E+00 0. -1.
         21   -1    0    0  502  503 -0.00000000000E+00 -0.00000000000E+00 -0.39527663932E+03  0.39527663932E+03  0.00000000000E+00 0.  1.
         -6    2    1    2    0  503  0.13175376399E+03 -0.66365217804E+02 -0.96528496409E+02  0.24669931872E+03  0.17256710804E+03 0.  0.
        -24    2    3    3    0    0  0.66454081512E+02 -0.10748406170E+03 -0.69453997272E+02  0.16478517855E+03  0.79757939203E+02 0.  0.
          6    2    1    2  501    0 -0.13175376399E+03  0.66365217804E+02 -0.16544380045E+03  0.28188166306E+03  0.17413277809E+03 0.  0.
         24    2    5    5    0    0 -0.13528397009E+03  0.56707370842E+02 -0.19103443179E+03  0.25390476589E+03  0.80349222397E+02 0.  0.
          5    1    5    5  501    0  0.35302060913E+01  0.96578469622E+01  0.25590631345E+02  0.27976897177E+02  0.47000000000E+01 0. -1.
        -11    1    6    6    0    0 -0.50681949549E+02 -0.49071724174E+01 -0.11109278828E+03  0.12220616989E+03  0.00000000000E+00 0.  1.
         12    1    6    6    0    0 -0.84602020538E+02  0.61614543259E+02 -0.79941643510E+02  0.13169859600E+03  0.00000000000E+00 0. -1.
         -5    1    3    3    0  503  0.65299682483E+02  0.41118843892E+02 -0.27074499137E+02  0.81914140165E+02  0.47000000000E+01 0.  1.
         11    1    4    4    0    0  0.12177671175E+02 -0.92059856966E+02 -0.46717300008E+02  0.10395104165E+03  0.00000000000E+00 0. -1.
        -12    1    4    4    0    0  0.54276410337E+02 -0.15424204731E+02 -0.22736697264E+02  0.60834136906E+02  0.00000000000E+00 0.  1.
<mgrwt>
<rscale>  2 0.22792407E+03</rscale>
<asrwt>0</asrwt>
<pdfrwt beam="1">  1       21 0.20508361E-01 0.22822274E+03</pdfrwt>
<pdfrwt beam="2">  1       21 0.60811790E-01 0.22822274E+03</pdfrwt>
<totfact> 0.54546504E+04</totfact>
</mgrwt>
</event>
<event>
12    1  0.1019868E-001  0.2098312E+03  0.7546771E-02  0.1141759E+00
         21   -1    0    0  501  502  0.00000000000E+00  0.00000000000E+00  0.36663376355E+02  0.36663376355E+02  0.00000000000E+00 0.  1.
         21   -1    0    0  502  503 -0.00000000000E+00 -0.00000000000E+00 -0.16500065616E+04  0.16500065616E+04  0.00000000000E+00 0. -1.
         -6    2    1    2    0  503  0.80018235129E+02  0.86949542498E+02 -0.12470697818E+04  0.12645498995E+04  0.17303255999E+03 0.  0.
        -24    2    3    3    0    0  0.49901438625E+02 -0.13256144099E+02 -0.79573171651E+03  0.80121811750E+03  0.78074504235E+02 0.  0.
          6    2    1    2  501    0 -0.80018235129E+02 -0.86949542498E+02 -0.36627340349E+03  0.42212003848E+03  0.17339544367E+03 0.  0.
         24    2    5    5    0    0 -0.62241158622E+02 -0.17835388431E+02 -0.32258245412E+03  0.33831204483E+03  0.78762535929E+02 0.  0.
          5    1    5    5  501    0 -0.17777076507E+02 -0.69114154067E+02 -0.43690949373E+02  0.83807993644E+02  0.47000000000E+01 0. -1.
        -13    1    6    6    0    0 -0.38785083363E+02 -0.41067825221E+02 -0.11504075165E+03  0.12816092813E+03  0.00000000000E+00 0.  1.
         14    1    6    6    0    0 -0.23456075258E+02  0.23232436790E+02 -0.20754170247E+03  0.21015111670E+03  0.00000000000E+00 0. -1.
         -5    1    3    3    0  503  0.30116796504E+02  0.10020568660E+03 -0.45133806527E+03  0.46333178201E+03  0.47000000000E+01 0.  1.
         13    1    4    4    0    0  0.32321577266E+02 -0.41886383161E+02 -0.32397442629E+03  0.32826602373E+03  0.00000000000E+00 0. -1.
        -14    1    4    4    0    0  0.17579861359E+02  0.28630239062E+02 -0.47175729023E+03  0.47295209376E+03  0.00000000000E+00 0.  1.
<mgrwt>
<rscale>  2 0.20975619E+03</rscale>
<asrwt>0</asrwt>
<pdfrwt beam="1">  1       21 0.56405208E-02 0.20983117E+03</pdfrwt>
<pdfrwt beam="2">  1       21 0.25384710E+00 0.20983117E+03</pdfrwt>
<totfact> 0.13619575E+04</totfact>
</mgrwt>
</event>
<event>
12    1  0.1019868E-001  0.1812712E+03  0.7546771E-02  0.1166934E+00
         21   -1    0    0  503  502  0.00000000000E+00  0.00000000000E+00  0.34672078351E+03  0.34672078351E+03  0.00000000000E+00 0.  1.
         21   -1    0    0  501  503 -0.00000000000E+00 -0.00000000000E+00 -0.18696509406E+03  0.18696509406E+03  0.00000000000E+00 0.  1.
          6    2    1    2  501    0  0.14520491199E+02 -0.49418446587E+02 -0.10844898245E+03  0.20996843153E+03  0.17225717088E+03 0.  0.
         24    2    3    3    0    0 -0.19972759000E+02 -0.82106238044E+02 -0.34866380642E+02  0.12224862016E+03  0.81170901215E+02 0.  0.
         -6    2    1    2    0  502 -0.14520491199E+02  0.49418446587E+02  0.26820467190E+03  0.32371744603E+03  0.17379934209E+03 0.  0.
        -24    2    5    5    0    0  0.32602159520E+02 -0.25186060066E+02  0.15121375396E+03  0.17710454925E+03  0.82481413362E+02 0.  0.
          5    1    3    3  501    0  0.34493250199E+02  0.32687791457E+02 -0.73582601803E+02  0.87719811376E+02  0.47000000000E+01 0. -1.
        -11    1    4    4    0    0 -0.81456630355E+01 -0.15587497576E+02 -0.50008087256E+02  0.53010665889E+02  0.00000000000E+00 0.  1.
         12    1    4    4    0    0 -0.11827095964E+02 -0.66518740467E+02  0.15141706614E+02  0.69237954270E+02  0.00000000000E+00 0. -1.
         -5    1    5    5    0  502 -0.47122650719E+02  0.74604506653E+02  0.11699091794E+03  0.14661289679E+03  0.47000000000E+01 0.  1.
         13    1    6    6    0    0  0.30229708613E+02  0.39238231286E+00  0.75479877766E+01  0.31160252987E+02  0.00000000000E+00 0. -1.
        -14    1    6    6    0    0  0.23724509066E+01 -0.25578442379E+02  0.14366576618E+03  0.14594429626E+03  0.00000000000E+00 0.  1.
<mgrwt>
<rscale>  2 0.18090052E+03</rscale>
<asrwt>0</asrwt>
<pdfrwt beam="1">  1       21 0.53341659E-01 0.18127117E+03</pdfrwt>
<pdfrwt beam="2">  1       21 0.28763861E-01 0.18127117E+03</pdfrwt>
<totfact> 0.38702113E+04</totfact>
</mgrwt>
</event>
<event>
12    1  0.1019868E-001  0.2985617E+03  0.7546771E-02  0.1086076E+00
         21   -1    0    0  501  502  0.00000000000E+00  0.00000000000E+00  0.63275903174E+03  0.63275903174E+03  0.00000000000E+00 0.  1.
         21   -1    0    0  502  503 -0.00000000000E+00 -0.00000000000E+00 -0.27437093530E+03  0.27437093530E+03  0.00000000000E+00 0. -1.
         -6    2    1    2    0  503  0.18000970215E+03  0.15994138399E+03  0.49593953728E+03  0.57840596888E+03  0.17496485652E+03 0.  0.
        -24    2    3    3    0    0  0.37548801234E+02  0.11324568015E+03  0.20747996031E+03  0.25328043221E+03  0.82876696761E+02 0.  0.
          6    2    1    2  501    0 -0.18000970215E+03 -0.15994138399E+03 -0.13755144083E+03  0.32872399816E+03  0.17650588917E+03 0.  0.
         24    2    5    5    0    0 -0.11514672826E+03 -0.62996323796E+02 -0.85259992103E+01  0.15472628362E+03  0.81487571695E+02 0.  0.
          5    1    5    5  501    0 -0.64862973886E+02 -0.96945060196E+02 -0.12902544162E+03  0.17399771453E+03  0.47000000000E+01 0. -1.
        -13    1    6    6    0    0 -0.97378130750E+02 -0.82828236504E+02 -0.80815539153E+01  0.12809499844E+03  0.00000000000E+00 0.  1.
         14    1    6    6    0    0 -0.17768597510E+02  0.19831912708E+02 -0.44444529500E+00  0.26631285188E+02  0.00000000000E+00 0. -1.
         -5    1    3    3    0  503  0.14246090091E+03  0.46695703845E+02  0.28845957697E+03  0.32512553667E+03  0.47000000000E+01 0.  1.
         11    1    4    4    0    0  0.49391329338E+02  0.10670658038E+03  0.20885849233E+03  0.23968243058E+03  0.00000000000E+00 0. -1.
        -12    1    4    4    0    0 -0.11842528104E+02  0.65390997697E+01 -0.13785320294E+01  0.13598001627E+02  0.00000000000E+00 0.  1.
<mgrwt>
<rscale>  2 0.29833429E+03</rscale>
<asrwt>0</asrwt>
<pdfrwt beam="1">  1       21 0.97347543E-01 0.29856167E+03</pdfrwt>
<pdfrwt beam="2">  1       21 0.42210913E-01 0.29856167E+03</pdfrwt>
<totfact> 0.44073205E+03</totfact>
</mgrwt>
</event>
<event>
12    1  0.1019868E-001  0.2134030E+03  0.7546771E-02  0.1138978E+00
         21   -1    0    0  503  502  0.00000000000E+00  0.00000000000E+00  0.43154605698E+03  0.43154605698E+03  0.00000000000E+00 0. -1.
         21   -1    0    0  501  503 -0.00000000000E+00 -0.00000000000E+00 -0.11235790550E+03  0.11235790550E+03  0.00000000000E+00 0.  1.
          6    2    1    2  501    0  0.84759186192E+02  0.91611800611E+02  0.91715311031E+02  0.23227687120E+03  0.17310114085E+03 0.  0.
         24    2    3    3    0    0  0.80273786653E+02  0.54864923365E+02 -0.82387470980E+01  0.12558406201E+03  0.79053393588E+02 0.  0.
         -6    2    1    2    0  502 -0.84759186192E+02 -0.91611800611E+02  0.22747284044E+03  0.31162709128E+03  0.17259985292E+03 0.  0.
        -24    2    5    5    0    0  0.86613442622E+01 -0.67787743736E+02  0.64269174627E+02  0.12201562609E+03  0.78019799526E+02 0.  0.
          5    1    3    3  501    0  0.44853995395E+01  0.36746877246E+02  0.99954058129E+02  0.10669280919E+03  0.47000000000E+01 0. -1.
        -13    1    4    4    0    0  0.34738569871E+02  0.46418843476E+02  0.30223731517E+02  0.65383111070E+02  0.00000000000E+00 0.  1.
         14    1    4    4    0    0  0.45535216782E+02  0.84460798888E+01 -0.38462478615E+02  0.60200950940E+02  0.00000000000E+00 0. -1.
         -5    1    5    5    0  502 -0.93420530454E+02 -0.23824056875E+02  0.16320366582E+03  0.18961146519E+03  0.47000000000E+01 0.  1.
         13    1    6    6    0    0  0.17733088974E+02 -0.37816968985E+01  0.53487184480E+02  0.56476920769E+02  0.00000000000E+00 0. -1.
        -14    1    6    6    0    0 -0.90717447115E+01 -0.64006046837E+02  0.10781990147E+02  0.65538705323E+02  0.00000000000E+00 0.  1.
<mgrwt>
<rscale>  2 0.21330134E+03</rscale>
<asrwt>0</asrwt>
<pdfrwt beam="1">  1       21 0.66391700E-01 0.21340301E+03</pdfrwt>
<pdfrwt beam="2">  1       21 0.17285832E-01 0.21340301E+03</pdfrwt>
<totfact> 0.62363581E+04</totfact>
</mgrwt>
</event>
<event>
12    1  0.1019868E-001  0.1768123E+03  0.7546771E-02  0.1171139E+00
         21   -1    0    0  501  502  0.00000000000E+00  0.00000000000E+00  0.23151344307E+03  0.23151344307E+03  0.00000000000E+00 0.  1.
         21   -1    0    0  502  503 -0.00000000000E+00 -0.00000000000E+00 -0.15092700348E+03  0.15092700348E+03  0.00000000000E+00 0.  1.
         -6    2    1    2    0  503  0.23319131134E+02 -0.27117050639E+02 -0.23117962802E+02  0.17745951246E+03  0.17227397379E+03 0.  0.
        -24    2    3    3    0    0  0.60148132180E+02 -0.48967898503E+02  0.23579127889E+02  0.11392571713E+03  0.80046491883E+02 0.  0.
          6    2    1    2  501    0 -0.23319131134E+02  0.27117050639E+02  0.10370440239E+03  0.20498093409E+03  0.17315733872E+03 0.  0.
         24    2    5    5    0    0 -0.36720604451E+02  0.44735133443E+01 -0.92208692403E+01  0.88935528140E+02  0.80349789191E+02 0.  0.
          5    1    5    5  501    0  0.13401473317E+02  0.22643537295E+02  0.11292527163E+03  0.11604540595E+03  0.47000000000E+01 0. -1.
        -13    1    6    6    0    0 -0.37236017153E+02  0.38858610119E+02 -0.23740504194E+01  0.53871594270E+02  0.00000000000E+00 0.  1.
         14    1    6    6    0    0  0.51541270216E+00 -0.34385096775E+02 -0.68468188210E+01  0.35063933870E+02  0.00000000000E+00 0. -1.
         -5    1    3    3    0  503 -0.36829001046E+02  0.21850847864E+02 -0.46697090692E+02  0.63533795333E+02  0.47000000000E+01 0.  1.
         11    1    4    4    0    0  0.15358084310E+01 -0.38298630961E+02  0.36541002475E+02  0.52956479329E+02  0.00000000000E+00 0. -1.
        -12    1    4    4    0    0  0.58612323749E+02 -0.10669267542E+02 -0.12961874586E+02  0.60969237800E+02  0.00000000000E+00 0.  1.
<mgrwt>
<rscale>  2 0.17659562E+03</rscale>
<asrwt>0</asrwt>
<pdfrwt beam="1">  1       21 0.35617453E-01 0.17681227E+03</pdfrwt>
<pdfrwt beam="2">  1       21 0.23219539E-01 0.17681227E+03</pdfrwt>
<totfact> 0.13320761E+05</totfact>
</mgrwt>
</event>
<event>
12    1  0.1019868E-001  0.2018651E+03  0.7546771E-02  0.1148512E+00
         21   -1    0    0  503  502  0.00000000000E+00  0.00000000000E+00  0.72203138359E+03  0.72203138359E+03  0.00000000000E+00 0. -1.
         21   -1    0    0  501  503 -0.00000000000E+00 -0.00000000000E+00 -0.72948137865E+02  0.72948137865E+02  0.00000000000E+00 0. -1.
          6    2    1    2  501    0 -0.10008873362E+03 -0.29513999486E+02  0.13387872210E+03  0.24222518838E+03  0.17280248520E+03 0.  0.
         24    2    3    3    0    0 -0.56311040469E+02 -0.72573628725E+02  0.37823065139E+02  0.12812261469E+03  0.80913257716E+02 0.  0.
         -6    2    1    2    0  502  0.10008873362E+03  0.29513999486E+02  0.51520452362E+03  0.55275433307E+03  0.17091758484E+03 0.  0.
        -24    2    5    5    0    0  0.33464075500E+02 -0.97640658843E+01  0.12628030446E+03  0.15618687382E+03  0.85043770655E+02 0.  0.
          5    1    3    3  501    0 -0.43777693147E+02  0.43059629239E+02  0.96055656961E+02  0.11410257369E+03  0.47000000000E+01 0. -1.
        -11    1    4    4    0    0  0.19007152708E+02 -0.28453267028E+02  0.37654719676E+01  0.34424395968E+02  0.00000000000E+00 0.  1.
         12    1    4    4    0    0 -0.75318193177E+02 -0.44120361698E+02  0.34057593171E+02  0.93698218725E+02  0.00000000000E+00 0. -1.
         -5    1    5    5    0  502  0.66624658116E+02  0.39278065370E+02  0.38892421916E+03  0.39656745926E+03  0.47000000000E+01 0.  1.
         13    1    6    6    0    0  0.19079903631E+02  0.17404421978E+00  0.13521368639E+03  0.13655333757E+03  0.00000000000E+00 0. -1.
        -14    1    6    6    0    0  0.14384171870E+02 -0.99381101041E+01 -0.89333819336E+01  0.19633536248E+02  0.00000000000E+00 0.  1.
<mgrwt>
<rscale>  2 0.20146113E+03</rscale>
<asrwt>0</asrwt>
<pdfrwt beam="1">  1       21 0.11108175E+00 0.20186513E+03</pdfrwt>
<pdfrwt beam="2">  1       21 0.11222791E-01 0.20186513E+03</pdfrwt>
<totfact> 0.41968126E+04</totfact>
</mgrwt>
</event>
<event>
12    1  0.1019868E-001  0.2562938E+03  0.7546771E-02  0.1109487E+00
         21   -1    0    0  503  502  0.00000000000E+00  0.00000000000E+00  0.87432413333E+02  0.87432413333E+02  0.00000000000E+00 0. -1.
         21   -1    0    0  501  503 -0.00000000000E+00 -0.00000000000E+00 -0.10167464503E+04  0.10167464503E+04  0.00000000000E+00 0.  1.
          6    2    1    2  501    0  0.17040760615E+03 -0.77466949005E+02 -0.74815891247E+03  0.79084021738E+03  0.17506173394E+03 0.  0.
         24    2    3    3    0    0  0.87922490426E+02 -0.41504573012E+02 -0.62874346805E+03  0.64124334185E+03  0.80135391333E+02 0.  0.
         -6    2    1    2    0  502 -0.17040760615E+03  0.77466949005E+02 -0.18115512450E+03  0.31333864626E+03  0.17413801334E+03 0.  0.
        -24    2    5    5    0    0 -0.21992624885E+02  0.13336771902E+02 -0.10525928996E+03  0.13467148650E+03  0.79970907954E+02 0.  0.
          5    1    3    3  501    0  0.82485115719E+02 -0.35962375994E+02 -0.11941544443E+03  0.14959687553E+03  0.47000000000E+01 0. -1.
        -11    1    4    4    0    0  0.51372188041E+02  0.10043147625E+02 -0.41698192554E+03  0.42025455707E+03  0.00000000000E+00 0.  1.
         12    1    4    4    0    0  0.36550302386E+02 -0.51547720637E+02 -0.21176154251E+03  0.22098878477E+03  0.00000000000E+00 0. -1.
         -5    1    5    5    0  502 -0.14841498126E+03  0.64130177104E+02 -0.75895834547E+02  0.17866715977E+03  0.47000000000E+01 0.  1.
         13    1    6    6    0    0 -0.46166447278E+01 -0.24506434675E+02 -0.40943134252E+01  0.25271370194E+02  0.00000000000E+00 0. -1.
        -14    1    6    6    0    0 -0.17375980158E+02  0.37843206577E+02 -0.10116497653E+03  0.10940011630E+03  0.00000000000E+00 0.  1.
<mgrwt>
<rscale>  2 0.25613610E+03</rscale>
<asrwt>0</asrwt>
<pdfrwt beam="1">  1       21 0.13451141E-01 0.25629376E+03</pdfrwt>
<pdfrwt beam="2">  1       21 0.15642253E+00 0.25629376E+03</pdfrwt>
<totfact> 0.12257856E+04</totfact>
</mgrwt>
</event>
<event>
12    1  0.1019868E-001  0.1815567E+03  0.7546771E-02  0.1167177E+00
         21   -1    0    0  503  502  0.00000000000E+00  0.00000000000E+00  0.33597727901E+02  0.33597727901E+02  0.00000000000E+00 0.  1.
         21   -1    0    0  501  503 -0.00000000000E+00 -0.00000000000E+00 -0.96521918347E+03  0.96521918347E+03  0.00000000000E+00 0. -1.
          6    2    1    2  501    0 -0.30666193658E+02  0.47874974979E+02 -0.49125257476E+03  0.52248973370E+03  0.16862384456E+03 0.  0.
         24    2    3    3    0    0 -0.32739261200E+02  0.82892641619E+02 -0.23438716915E+03  0.26319750245E+03  0.79953304985E+02 0.  0.
         -6    2    1    2    0  502  0.30666193658E+02 -0.47874974979E+02 -0.44036888081E+03  0.47632717767E+03  0.17242505716E+03 0.  0.
        -24    2    5    5    0    0  0.68747087657E+02 -0.40403554155E+02 -0.41550346965E+03  0.42999840379E+03  0.76791176072E+02 0.  0.
          5    1    3    3  501    0  0.20730675427E+01 -0.35017666640E+02 -0.25686540561E+03  0.25929223125E+03  0.47000000000E+01 0. -1.
        -13    1    4    4    0    0 -0.21218024914E+02  0.97962109659E+02 -0.20545540669E+03  0.22860162652E+03  0.00000000000E+00 0.  1.
         14    1    4    4    0    0 -0.11521236286E+02 -0.15069468040E+02 -0.28931762457E+02  0.34595875931E+02  0.00000000000E+00 0. -1.
         -5    1    5    5    0  502 -0.38080893999E+02 -0.74714208238E+01 -0.24865411160E+02  0.46328773878E+02  0.47000000000E+01 0.  1.
         11    1    6    6    0    0  0.37532072667E+01 -0.31250400065E+02 -0.24970612669E+03  0.25168198937E+03  0.00000000000E+00 0. -1.
        -12    1    6    6    0    0  0.64993880390E+02 -0.91531540901E+01 -0.16579734296E+03  0.17831641442E+03  0.00000000000E+00 0.  1.
<mgrwt>
<rscale>  2 0.18064838E+03</rscale>
<asrwt>0</asrwt>
<pdfrwt beam="1">  1       21 0.51688821E-02 0.18155668E+03</pdfrwt>
<pdfrwt beam="2">  1       21 0.14849523E+00 0.18155668E+03</pdfrwt>
<totfact> 0.78472403E+04</totfact>
</mgrwt>
</event>
<event>
12    1  0.1019868E-001  0.2075800E+03  0.7546771E-02  0.1143552E+00
         21   -1    0    0  501  502  0.00000000000E+00  0.00000000000E+00  0.59809103568E+03  0.59809103568E+03  0.00000000000E+00 0. -1.
         21   -1    0    0  502  503 -0.00000000000E+00 -0.00000000000E+00 -0.75287498193E+02  0.75287498193E+02  0.00000000000E+00 0. -1.
         -6    2    1    2    0  503 -0.45670789979E+02 -0.10289761934E+03  0.19035461003E+03  0.28144518541E+03  0.17407691894E+03 0.  0.
        -24    2    3    3    0    0  0.38795035657E+02 -0.44755331348E+02  0.67706224511E+02  0.12150857977E+03  0.81682970345E+02 0.  0.
          6    2    1    2  501    0  0.45670789979E+02  0.10289761934E+03  0.33244892746E+03  0.39193334846E+03  0.17440102966E+03 0.  0.
         24    2    5    5    0    0  0.55611432099E+02  0.98969525581E+01  0.93462169878E+02  0.13525319596E+03  0.79797673965E+02 0.  0.
          5    1    5    5  501    0 -0.99406421197E+01  0.93000666784E+02  0.23898675758E+03  0.25668015250E+03  0.47000000000E+01 0. -1.
        -13    1    6    6    0    0 -0.11043733786E+02  0.24319511980E+02  0.12779632107E+02  0.29609486920E+02  0.00000000000E+00 0.  1.
         14    1    6    6    0    0  0.66655165885E+02 -0.14422559422E+02  0.80682537771E+02  0.10564370904E+03  0.00000000000E+00 0. -1.
         -5    1    3    3    0  503 -0.84465825636E+02 -0.58142287994E+02  0.12264838552E+03  0.15993660564E+03  0.47000000000E+01 0.  1.
         13    1    4    4    0    0  0.83750068398E+01  0.24138642765E+02  0.15757894555E+02  0.30018761715E+02  0.00000000000E+00 0. -1.
        -14    1    4    4    0    0  0.30420028817E+02 -0.68893974114E+02  0.51948329956E+02  0.91489818054E+02  0.00000000000E+00 0.  1.
<mgrwt>
<rscale>  2 0.20751192E+03</rscale>
<asrwt>0</asrwt>
<pdfrwt beam="1">  1       21 0.92014002E-01 0.20758001E+03</pdfrwt>
<pdfrwt beam="2">  1       21 0.11582692E-01 0.20758001E+03</pdfrwt>
<totfact> 0.61943433E+04</totfact>
</mgrwt>
</event>
<event>
12    1  0.1019868E-001  0.1767576E+03  0.7546771E-02  0.1171279E+00
         21   -1    0    0  503  502  0.00000000000E+00  0.00000000000E+00  0.76833123995E+03  0.76833123995E+03  0.00000000000E+00 0. -1.
         21   -1    0    0  501  503 -0.00000000000E+00 -0.00000000000E+00 -0.51825210813E+02  0.51825210813E+02  0.00000000000E+00 0. -1.
          6    2    1    2  501    0  0.33616004360E+02  0.10327613009E+01  0.16463879752E+03  0.24067334174E+03  0.17229805986E+03 0.  0.
         24    2    3    3    0    0  0.38856286338E+02 -0.52392130842E+02  0.15344489457E+03  0.18563632584E+03  0.81613500350E+02 0.  0.
         -6    2    1    2    0  502 -0.33616004360E+02 -0.10327613009E+01  0.55186723162E+03  0.57948310903E+03  0.17352847019E+03 0.  0.
        -24    2    5    5    0    0  0.24036760758E+02 -0.52181610569E+02  0.25584424904E+03  0.27355543404E+03  0.77946195399E+02 0.  0.
          5    1    3    3  501    0 -0.52402819775E+01  0.53424892143E+02  0.11193902947E+02  0.55037015897E+02  0.47000000000E+01 0. -1.
        -11    1    4    4    0    0  0.28541006811E+02 -0.65758963774E+02  0.15275361065E+03  0.16873795054E+03  0.00000000000E+00 0.  1.
         12    1    4    4    0    0  0.10315279527E+02  0.13366832932E+02  0.69128392426E+00  0.16898375301E+02  0.00000000000E+00 0. -1.
         -5    1    5    5    0  502 -0.57652765118E+02  0.51148849268E+02  0.29602298258E+03  0.30592767498E+03  0.47000000000E+01 0.  1.
         11    1    6    6    0    0  0.11197959265E+02 -0.68644048116E+01  0.20029621488E+03  0.20072640095E+03  0.00000000000E+00 0. -1.
        -12    1    6    6    0    0  0.12838801493E+02 -0.45317205757E+02  0.55548034167E+02  0.72829033093E+02  0.00000000000E+00 0.  1.
<mgrwt>
<rscale>  2 0.17645483E+03</rscale>
<asrwt>0</asrwt>
<pdfrwt beam="1">  1       21 0.11820480E+00 0.17675755E+03</pdfrwt>
<pdfrwt beam="2">  1       21 0.79731099E-02 0.17675755E+03</pdfrwt>
<totfact> 0.66679291E+04</totfact>
</mgrwt>
</event>
<event>
12    1  0.1019868E-001  0.3106758E+03  0.7546771E-02  0.1080270E+00
         21   -1    0    0  501  502  0.00000000000E+00  0.00000000000E+00  0.11738455643E+03  0.11738455643E+03  0.00000000000E+00 0.  1.
         21   -1    0    0  502  503 -0.00000000000E+00 -0.00000000000E+00 -0.86945936850E+03  0.86945936850E+03  0.00000000000E+00 0.  1.
         -6    2    1    2    0  503 -0.25294260688E+03  0.50039875952E+02 -0.49864999967E+03  0.58751277420E+03  0.17330749007E+03 0.  0.
        -24    2    3    3    0    0 -0.37529109902E+02  0.34771083268E+01 -0.11799095009E+03  0.14763271323E+03  0.80330749655E+02 0.  0.
          6    2    1    2  501    0  0.25294260688E+03 -0.50039875952E+02 -0.25342481239E+03  0.39933115073E+03  0.16957971826E+03 0.  0.
         24    2    5    5    0    0  0.19060215692E+03 -0.59509275082E+02 -0.10918046841E+03  0.24183663656E+03  0.81817162370E+02 0.  0.
          5    1    5    5  501    0  0.62340449963E+02  0.94693991305E+01 -0.14424434398E+03  0.15749451416E+03  0.47000000000E+01 0. -1.
        -13    1    6    6    0    0  0.50307372854E+02 -0.35887574066E+02 -0.71814267960E+02  0.94741959123E+02  0.00000000000E+00 0.  1.
         14    1    6    6    0    0  0.14029478407E+03 -0.23621701016E+02 -0.37366200450E+02  0.14709467744E+03  0.00000000000E+00 0. -1.
         -5    1    3    3    0  503 -0.21541349698E+03  0.46562767625E+02 -0.38065904959E+03  0.43988006098E+03  0.47000000000E+01 0.  1.
         11    1    4    4    0    0 -0.54467993312E+02 -0.59414745723E+01 -0.41524922333E+02  0.68748691554E+02  0.00000000000E+00 0. -1.
        -12    1    4    4    0    0  0.16938883410E+02  0.94185828990E+01 -0.76466027753E+02  0.78884021673E+02  0.00000000000E+00 0.  1.
<mgrwt>
<rscale>  2 0.31015849E+03</rscale>
<asrwt>0</asrwt>
<pdfrwt beam="1">  1       21 0.18059163E-01 0.31067578E+03</pdfrwt>
<pdfrwt beam="2">  1       21 0.13376298E+00 0.31067578E+03</pdfrwt>
<totfact> 0.10473889E+04</totfact>
</mgrwt>
</event>
<event>
12    1  0.1019868E-001  0.2641446E+03  0.7546771E-02  0.1104858E+00
         21   -1    0    0  503  502  0.00000000000E+00  0.00000000000E+00  0.91920359779E+03  0.91920359779E+03  0.00000000000E+00 0.  1.
         21   -1    0    0  501  503 -0.00000000000E+00 -0.00000000000E+00 -0.11131308254E+03  0.11131308254E+03  0.00000000000E+00 0. -1.
          6    2    1    2  501    0 -0.19956722700E+03  0.15183007998E+02  0.11254620378E+03  0.28712195928E+03  0.17237972530E+03 0.  0.
         24    2    3    3    0    0 -0.60196851694E+02 -0.13207862238E+02  0.10091239047E+03  0.14433688080E+03  0.82775093047E+02 0.  0.
         -6    2    1    2    0  502  0.19956722700E+03 -0.15183007998E+02  0.69534431148E+03  0.74339472105E+03  0.17051216367E+03 0.  0.
        -24    2    5    5    0    0  0.53848419552E+02  0.22114480256E+02  0.16937361695E+03  0.19631855179E+03  0.80404285534E+02 0.  0.
          5    1    3    3  501    0 -0.13937037530E+03  0.28390870236E+02  0.11633813302E+02  0.14278507848E+03  0.47000000000E+01 0. -1.
        -13    1    4    4    0    0 -0.71959010460E+02  0.33976978078E+01  0.10091225294E+03  0.12398760555E+03  0.00000000000E+00 0.  1.
         14    1    4    4    0    0  0.11762158766E+02 -0.16605560046E+02  0.13753890021E-03  0.20349275252E+02  0.00000000000E+00 0. -1.
         -5    1    5    5    0  502  0.14571880745E+03 -0.37297488254E+02  0.52597069453E+03  0.54707616926E+03  0.47000000000E+01 0.  1.
         11    1    6    6    0    0  0.37392986931E+02  0.43228828164E+02  0.56705076339E+02  0.80513556241E+02  0.00000000000E+00 0. -1.
        -12    1    6    6    0    0  0.16455432621E+02 -0.21114347907E+02  0.11266854061E+03  0.11580499555E+03  0.00000000000E+00 0.  1.
<mgrwt>
<rscale>  2 0.26384034E+03</rscale>
<asrwt>0</asrwt>
<pdfrwt beam="1">  1       21 0.14141593E+00 0.26414460E+03</pdfrwt>
<pdfrwt beam="2">  1       21 0.17125090E-01 0.26414460E+03</pdfrwt>
<totfact> 0.10242561E+04</totfact>
</mgrwt>
</event>
<event>
12    1  0.1019868E-001  0.2426574E+03  0.7546771E-02  0.1118611E+00
         21   -1    0    0  501  502  0.00000000000E+00  0.00000000000E+00  0.33532775283E+03  0.33532775283E+03  0.00000000000E+00 0. -1.
         21   -1    0    0  502  503 -0.00000000000E+00 -0.00000000000E+00 -0.21807583748E+03  0.21807583748E+03  0.00000000000E+00 0.  1.
         -6    2    1    2    0  503 -0.45738408728E+02 -0.16057568650E+03 -0.67382001253E+02  0.24849003093E+03  0.17126122811E+03 0.  0.
        -24    2    3    3    0    0  0.37242612878E+02 -0.82114301437E+02 -0.12634617681E+02  0.12175643278E+03  0.80840736297E+02 0.  0.
          6    2    1    2  501    0  0.45738408728E+02  0.16057568650E+03  0.18463391660E+03  0.30491355937E+03  0.17608532705E+03 0.  0.
         24    2    5    5    0    0  0.89642775668E+02  0.83845385810E+02  0.15123364257E+03  0.21029431828E+03  0.79285621029E+02 0.  0.
          5    1    5    5  501    0 -0.43904366939E+02  0.76730300693E+02  0.33400274029E+02  0.94619241098E+02  0.47000000000E+01 0. -1.
        -11    1    6    6    0    0  0.75652645133E+02  0.63781146028E+02  0.59737669872E+02  0.11558523481E+03  0.00000000000E+00 0.  1.
         12    1    6    6    0    0  0.13990130535E+02  0.20064239782E+02  0.91495972701E+02  0.94709083466E+02  0.00000000000E+00 0. -1.
         -5    1    3    3    0  503 -0.82981021606E+02 -0.78461385066E+02 -0.54747383572E+02  0.12673359815E+03  0.47000000000E+01 0.  1.
         13    1    4    4    0    0 -0.15691130687E+02 -0.61561546701E+02 -0.13579042770E+02  0.64964805988E+02  0.00000000000E+00 0. -1.
        -14    1    4    4    0    0  0.52933743565E+02 -0.20552754736E+02  0.94442508905E+00  0.56791626793E+02  0.00000000000E+00 0.  1.
<mgrwt>
<rscale>  2 0.24178325E+03</rscale>
<asrwt>0</asrwt>
<pdfrwt beam="1">  1       21 0.51588885E-01 0.24265736E+03</pdfrwt>
<pdfrwt beam="2">  1       21 0.33550129E-01 0.24265736E+03</pdfrwt>
<totfact> 0.29773463E+04</totfact>
</mgrwt>
</event>
<event>
12    1  0.1019868E-001  0.2230983E+03  0.7546771E-02  0.1132914E+00
         21   -1    0    0  503  502  0.00000000000E+00  0.00000000000E+00  0.72415589339E+03  0.72415589339E+03  0.00000000000E+00 0.  1.
         21   -1    0    0  501  503 -0.00000000000E+00 -0.00000000000E+00 -0.90841866757E+02  0.90841866757E+02  0.00000000000E+00 0. -1.
          6    2    1    2  501    0 -0.49386627129E+02 -0.11839794252E+03  0.10227850842E+03  0.23900161783E+03  0.17379231373E+03 0.  0.
         24    2    3    3    0    0  0.28465953532E+02 -0.10358035560E+03  0.79933433789E+02  0.15652751549E+03  0.81069776676E+02 0.  0.
         -6    2    1    2    0  502  0.49386627129E+02  0.11839794252E+03  0.53103551821E+03  0.57599614231E+03  0.18252595055E+03 0.  0.
        -24    2    5    5    0    0  0.25246926637E+02  0.37617467630E+02  0.44823197626E+03  0.45773064937E+03  0.80950365338E+02 0.  0.
          5    1    3    3  501    0 -0.77852580661E+02 -0.14817586917E+02  0.22345074627E+02  0.82474102345E+02  0.47000000000E+01 0. -1.
        -11    1    4    4    0    0  0.40357107003E+02 -0.17009975897E+02  0.10809593974E+02  0.45109673991E+02  0.00000000000E+00 0.  1.
         12    1    4    4    0    0 -0.11891153471E+02 -0.86570379702E+02  0.69123839815E+02  0.11141784150E+03  0.00000000000E+00 0. -1.
         -5    1    5    5    0  502  0.24139700492E+02  0.80780474886E+02  0.82803541950E+02  0.11826549295E+03  0.47000000000E+01 0.  1.
         13    1    6    6    0    0 -0.28901511937E+02  0.47237158647E+01  0.13090918206E+03  0.13414479055E+03  0.00000000000E+00 0. -1.
        -14    1    6    6    0    0  0.54148438574E+02  0.32893751766E+02  0.31732279420E+03  0.32358585881E+03  0.00000000000E+00 0.  1.
<mgrwt>
<rscale>  2 0.22130501E+03</rscale>
<asrwt>0</asrwt>
<pdfrwt beam="1">  1       21 0.11140860E+00 0.22309826E+03</pdfrwt>
<pdfrwt beam="2">  1       21 0.13975672E-01 0.22309826E+03</pdfrwt>
<totfact> 0.27760622E+04</totfact>
</mgrwt>
</event>
<event>
12    1  0.1019868E-001  0.1893004E+03  0.7546771E-02  0.1159283E+00
         21   -1    0    0  503  502  0.00000000000E+00  0.00000000000E+00  0.10026716927E+03  0.10026716927E+03  0.00000000000E+00 0.  1.
         21   -1    0    0  501  503 -0.00000000000E+00 -0.00000000000E+00 -0.36056489922E+03  0.36056489922E+03  0.00000000000E+00 0.  1.
          6    2    1    2  501    0  0.67307250294E+02  0.33016303659E+02 -0.15628541701E+03  0.24483856196E+03  0.17291745892E+03 0.  0.
         24    2    3    3    0    0  0.87924861702E+02  0.60899923299E+02 -0.66671630532E+02  0.14863407728E+03  0.78787058881E+02 0.  0.
         -6    2    1    2    0  502 -0.67307250294E+02 -0.33016303659E+02 -0.10401231294E+03  0.21599350654E+03  0.17382258591E+03 0.  0.
        -24    2    5    5    0    0 -0.14867954314E+02 -0.70399901261E+02 -0.10519722501E+03  0.15141094582E+03  0.81741153646E+02 0.  0.
          5    1    3    3  501    0 -0.20617611408E+02 -0.27883619640E+02 -0.89613786483E+02  0.96204484679E+02  0.47000000000E+01 0. -1.
        -11    1    4    4    0    0  0.27596308772E+02 -0.41149915493E+01 -0.51612676644E+02  0.58671609861E+02  0.00000000000E+00 0.  1.
         12    1    4    4    0    0  0.60328552930E+02  0.65014914848E+02 -0.15058953887E+02  0.89962467416E+02  0.00000000000E+00 0. -1.
         -5    1    5    5    0  502 -0.52439295980E+02  0.37383597602E+02  0.11849120704E+01  0.64582560720E+02  0.47000000000E+01 0.  1.
         13    1    6    6    0    0 -0.14593643161E+02  0.76351344342E+01 -0.57818535480E+02  0.60118655537E+02  0.00000000000E+00 0. -1.
        -14    1    6    6    0    0 -0.27431115384E+00 -0.78035035695E+02 -0.47378689533E+02  0.91292290279E+02  0.00000000000E+00 0.  1.
<mgrwt>
<rscale>  2 0.18909234E+03</rscale>
<asrwt>0</asrwt>
<pdfrwt beam="1">  1       21 0.15425718E-01 0.18930038E+03</pdfrwt>
<pdfrwt beam="2">  1       21 0.55471523E-01 0.18930038E+03</pdfrwt>
<totfact> 0.11433288E+05</totfact>
</mgrwt>
</event>
<event>
11    1  0.1019868E-001  0.2832249E+03  0.7546771E-02  0.1094107E+00
         21   -1    0    0  503  502  0.00000000000E+00  0.00000000000E+00  0.80683262435E+02  0.80683262435E+02  0.00000000000E+00 0. -1.
         21   -1    0    0  501  503 -0.00000000000E+00 -0.00000000000E+00 -0.11708693292E+04  0.11708693292E+04  0.00000000000E+00 0. -1.
          6    2    1    2  501    0 -0.22210180913E+03 -0.30134516514E+02 -0.79213729657E+03  0.84124779167E+03  0.17314458605E+03 0.  0.
         24    2    3    3    0    0 -0.12821160293E+03 -0.81186761974E+02 -0.40580968378E+03  0.44038270591E+03  0.78904516757E+02 0.  0.
         -6    2    1    2    0  502  0.22210180913E+03  0.30134516514E+02 -0.29804877017E+03  0.41030479993E+03  0.17111299409E+03 0.  0.
          5    1    3    3  501    0 -0.93890206197E+02  0.51052245460E+02 -0.38632761278E+03  0.40086508577E+03  0.47000000000E+01 0. -1.
        -13    1    4    4    0    0 -0.35342652444E+02 -0.16200402466E+02 -0.33896437805E+02  0.51580273533E+02  0.00000000000E+00 0.  1.
         14    1    4    4    0    0 -0.92868950484E+02 -0.64986359508E+02 -0.37191324598E+03  0.38880243238E+03  0.00000000000E+00 0. -1.
         -5    1    5    5    0  502  0.23336176592E+02 -0.41055649663E+02 -0.12420727780E+03  0.13296496293E+03  0.47000000000E+01 0.  1.
         11    1    5    5    0    0  0.13809580927E+03  0.38474791023E+02 -0.91991456841E+02  0.17033258705E+03  0.00000000000E+00 0. -1.
        -12    1    5    5    0    0  0.60669823268E+02  0.32715375153E+02 -0.81850035529E+02  0.10700724995E+03  0.00000000000E+00 0.  1.
<mgrwt>
<rscale>  2 0.28291505E+03</rscale>
<asrwt>0</asrwt>
<pdfrwt beam="1">  1       21 0.12412810E-01 0.28322491E+03</pdfrwt>
<pdfrwt beam="2">  1       21 0.18013374E+00 0.28322491E+03</pdfrwt>
<totfact> 0.94275996E+03</totfact>
</mgrwt>
</event>
<event>
12    1  0.1019868E-001  0.1781849E+03  0.7546771E-02  0.1169620E+00
         21   -1    0    0  501  502  0.00000000000E+00  0.00000000000E+00  0.71342674719E+02  0.71342674719E+02  0.00000000000E+00 0.  1.
         21   -1    0    0  502  503 -0.00000000000E+00 -0.00000000000E+00 -0.44608489316E+03  0.44608489316E+03  0.00000000000E+00 0.  1.
         -6    2    1    2    0  503 -0.35223950351E+02  0.24281984633E+02 -0.17222636620E+03  0.24781398484E+03  0.17297256550E+03 0.  0.
        -24    2    3    3    0    0  0.11958883512E+02 -0.27958673857E+02 -0.14851282213E+03  0.17338463322E+03  0.84151472727E+02 0.  0.
          6    2    1    2  501    0  0.35223950351E+02 -0.24281984633E+02 -0.20251585225E+03  0.26961358304E+03  0.17276710419E+03 0.  0.
         24    2    5    5    0    0 -0.33762462096E+02 -0.15727113415E+02 -0.46764174353E+02  0.98988303284E+02  0.78895818907E+02 0.  0.
          5    1    5    5  501    0  0.68986412447E+02 -0.85548712181E+01 -0.15575167789E+03  0.17062527975E+03  0.47000000000E+01 0. -1.
        -13    1    6    6    0    0 -0.13549667280E+02 -0.26965160442E+01 -0.66473964878E+02  0.67894423105E+02  0.00000000000E+00 0.  1.
         14    1    6    6    0    0 -0.20212794816E+02 -0.13030597371E+02  0.19709790525E+02  0.31093880180E+02  0.00000000000E+00 0. -1.
         -5    1    3    3    0  503 -0.47182833863E+02  0.52240658490E+02 -0.23713544067E+02  0.74429351623E+02  0.47000000000E+01 0.  1.
         11    1    4    4    0    0 -0.36477704099E+02 -0.13607328140E+02 -0.62564428887E+02  0.73689144638E+02  0.00000000000E+00 0. -1.
        -12    1    4    4    0    0  0.48436587611E+02 -0.14351345717E+02 -0.85948393242E+02  0.99695488584E+02  0.00000000000E+00 0.  1.
<mgrwt>
<rscale>  2 0.17813499E+03</rscale>
<asrwt>0</asrwt>
<pdfrwt beam="1">  1       21 0.10975796E-01 0.17818488E+03</pdfrwt>
<pdfrwt beam="2">  1       21 0.68628444E-01 0.17818488E+03</pdfrwt>
<totfact> 0.13383668E+05</totfact>
</mgrwt>
</event>
<event>
12    1  0.1019868E-001  0.1988808E+03  0.7546771E-02  0.1151950E+00
         21   -1    0    0  503  502  0.00000000000E+00  0.00000000000E+00  0.34502434518E+02  0.34502434518E+02  0.00000000000E+00 0. -1.
         21   -1    0    0  501  503 -0.00000000000E+00 -0.00000000000E+00 -0.11135410479E+04  0.11135410479E+04  0.00000000000E+00 0.  1.
          6    2    1    2  501    0  0.83631838827E+02  0.28734251213E+02 -0.54501976017E+03  0.57819286883E+03  0.17158237942E+03 0.  0.
         24    2    3    3    0    0  0.76429395201E+02 -0.17377922574E+02 -0.50508256860E+03  0.51658704900E+03  0.74902159207E+02 0.  0.
         -6    2    1    2    0  502 -0.83631838827E+02 -0.28734251213E+02 -0.53401885319E+03  0.56985061357E+03  0.17813939644E+03 0.  0.
        -24    2    5    5    0    0 -0.48827607712E+02 -0.33775406839E+02 -0.12423811409E+03  0.15853675301E+03  0.78574039473E+02 0.  0.
          5    1    3    3  501    0  0.72024436260E+01  0.46112173787E+02 -0.39937191576E+02  0.61605819827E+02  0.47000000000E+01 0. -1.
        -11    1    4    4    0    0  0.34140009741E+02 -0.45743694802E+02 -0.28934798394E+03  0.29492419651E+03  0.00000000000E+00 0.  1.
         12    1    4    4    0    0  0.42289385460E+02  0.28365772228E+02 -0.21573458465E+03  0.22166285249E+03  0.00000000000E+00 0. -1.
         -5    1    5    5    0  502 -0.34804231115E+02  0.50411556261E+01 -0.40978073910E+03  0.41131386056E+03  0.47000000000E+01 0.  1.
         13    1    6    6    0    0 -0.43864580906E+02 -0.56677290719E+02 -0.10945065105E+03  0.13082760319E+03  0.00000000000E+00 0. -1.
        -14    1    6    6    0    0 -0.49630268056E+01  0.22901883880E+02 -0.14787463041E+02  0.27709149816E+02  0.00000000000E+00 0.  1.
<mgrwt>
<rscale>  2 0.19740162E+03</rscale>
<asrwt>0</asrwt>
<pdfrwt beam="1">  1       21 0.53080670E-02 0.19888083E+03</pdfrwt>
<pdfrwt beam="2">  1       21 0.17131400E+00 0.19888083E+03</pdfrwt>
<totfact> 0.50577469E+04</totfact>
</mgrwt>
</event>
<event>
12    1  0.1019868E-001  0.1827079E+03  0.7546771E-02  0.1166037E+00
         21   -1    0    0  503  502  0.00000000000E+00  0.00000000000E+00  0.54796420736E+02  0.54796420736E+02  0.00000000000E+00 0.  1.
         21   -1    0    0  501  503 -0.00000000000E+00 -0.00000000000E+00 -0.72376198954E+03  0.72376198954E+03  0.00000000000E+00 0.  1.
          6    2    1    2  501    0 -0.27258986520E+02 -0.54396137286E+02 -0.16940168662E+03  0.24663147620E+03  0.16860652872E+03 0.  0.
         24    2    3    3    0    0 -0.32563334060E+02 -0.27009446739E+02 -0.18681345026E+02  0.93279337998E+02  0.81007168245E+02 0.  0.
         -6    2    1    2    0  502  0.27258986520E+02  0.54396137286E+02 -0.49956388219E+03  0.53192693408E+03  0.17227942046E+03 0.  0.
        -24    2    5    5    0    0 -0.39335902832E+02  0.60161338300E+02 -0.22718970182E+03  0.25143112134E+03  0.80223115677E+02 0.  0.
          5    1    3    3  501    0  0.53043475397E+01 -0.27386690546E+02 -0.15072034159E+03  0.15335213820E+03  0.47000000000E+01 0. -1.
        -11    1    4    4    0    0 -0.32294976050E+02 -0.54744502769E+02 -0.14930946205E+02  0.65290575247E+02  0.00000000000E+00 0.  1.
         12    1    4    4    0    0 -0.26835800954E+00  0.27735056030E+02 -0.37503988214E+01  0.27988762751E+02  0.00000000000E+00 0. -1.
         -5    1    5    5    0  502  0.66594889352E+02 -0.57652010140E+01 -0.27237418037E+03  0.28049581274E+03  0.47000000000E+01 0.  1.
         11    1    6    6    0    0  0.13565147343E+02 -0.12022030741E+02 -0.42376276639E+02  0.46090034360E+02  0.00000000000E+00 0. -1.
        -12    1    6    6    0    0 -0.52901050175E+02  0.72183369041E+02 -0.18481342518E+03  0.20534108698E+03  0.00000000000E+00 0.  1.
<mgrwt>
<rscale>  2 0.18183696E+03</rscale>
<asrwt>0</asrwt>
<pdfrwt beam="1">  1       21 0.84302188E-02 0.18270794E+03</pdfrwt>
<pdfrwt beam="2">  1       21 0.11134800E+00 0.18270794E+03</pdfrwt>
<totfact> 0.69776344E+04</totfact>
</mgrwt>
</event>
<event>
12    1  0.1019868E-001  0.3817660E+03  0.7546771E-02  0.1050333E+00
         21   -1    0    0  501  502  0.00000000000E+00  0.00000000000E+00  0.15668530084E+04  0.15668530084E+04  0.00000000000E+00 0.  1.
         21   -1    0    0  502  503 -0.00000000000E+00 -0.00000000000E+00 -0.20513834888E+03  0.20513834888E+03  0.00000000000E+00 0.  1.
         -6    2    1    2    0  503  0.34040025691E+03 -0.25859531854E+01  0.25677244788E+02  0.38262857306E+03  0.17281863895E+03 0.  0.
        -24    2    3    3    0    0  0.33332657187E+03  0.36725977099E+00 -0.12304493144E+02  0.34359703577E+03  0.82466866376E+02 0.  0.
          6    2    1    2  501    0 -0.34040025691E+03  0.25859531854E+01  0.13360374147E+04  0.13893627842E+04  0.17162153284E+03 0.  0.
         24    2    5    5    0    0 -0.31469441672E+03  0.48524903656E+02  0.11487470908E+04  0.11947582292E+04  0.80250267591E+02 0.  0.
          5    1    5    5  501    0 -0.25705840184E+02 -0.45938950471E+02  0.18729032395E+03  0.19460455502E+03  0.47000000000E+01 0. -1.
        -13    1    6    6    0    0 -0.16298795052E+03 -0.15424798475E+02  0.57941863700E+03  0.60210377289E+03  0.00000000000E+00 0.  1.
         14    1    6    6    0    0 -0.15170646621E+03  0.63949702132E+02  0.56932845375E+03  0.59265445628E+03  0.00000000000E+00 0. -1.
         -5    1    3    3    0  503  0.70736850418E+01 -0.29532129563E+01  0.37981737932E+02  0.39031537290E+02  0.47000000000E+01 0.  1.
         11    1    4    4    0    0  0.13692732002E+03  0.37353532034E+02 -0.21417745594E+02  0.14353778997E+03  0.00000000000E+00 0. -1.
        -12    1    4    4    0    0  0.19639925184E+03 -0.36986272263E+02  0.91132524498E+01  0.20005924580E+03  0.00000000000E+00 0.  1.
<mgrwt>
<rscale>  2 0.38163086E+03</rscale>
<asrwt>0</asrwt>
<pdfrwt beam="1">  1       21 0.24105430E+00 0.38176603E+03</pdfrwt>
<pdfrwt beam="2">  1       21 0.31559747E-01 0.38176603E+03</pdfrwt>
<totfact> 0.61430538E+02</totfact>
</mgrwt>
</event>
<event>
12    1  0.1019868E-001  0.1810046E+03  0.7546771E-02  0.1167691E+00
         21   -1    0    0  501  502  0.00000000000E+00  0.00000000000E+00  0.12167593730E+03  0.12167593730E+03  0.00000000000E+00 0. -1.
         21   -1    0    0  502  503 -0.00000000000E+00 -0.00000000000E+00 -0.27959883816E+03  0.27959883816E+03  0.00000000000E+00 0. -1.
         -6    2    1    2    0  503  0.50793065687E+02  0.11471387265E+02 -0.32365763666E+02  0.18387553776E+03  0.17335265351E+03 0.  0.
        -24    2    3    3    0    0  0.84092452057E+02 -0.20342210195E+02 -0.57612245339E+02  0.13114576483E+03  0.79966835695E+02 0.  0.
          6    2    1    2  501    0 -0.50793065687E+02 -0.11471387265E+02 -0.12555713720E+03  0.21739923770E+03  0.16966527519E+03 0.  0.
         24    2    5    5    0    0  0.37610771337E+02 -0.75281192942E+01 -0.60142281398E+02  0.10725396489E+03  0.80094171281E+02 0.  0.
          5    1    5    5  501    0 -0.88403837024E+02 -0.39432679704E+01 -0.65414855799E+02  0.11014527281E+03  0.47000000000E+01 0. -1.
        -13    1    6    6    0    0 -0.63736498219E+00 -0.35107362691E+02 -0.46302210107E+02  0.58110479348E+02  0.00000000000E+00 0.  1.
         14    1    6    6    0    0  0.38248136319E+02  0.27579243397E+02 -0.13840071290E+02  0.49143485546E+02  0.00000000000E+00 0. -1.
         -5    1    3    3    0  503 -0.33299386371E+02  0.31813597459E+02  0.25246481674E+02  0.52729772926E+02  0.47000000000E+01 0.  1.
         11    1    4    4    0    0  0.78291832863E+02  0.50593426908E+01 -0.13061228777E+02  0.79534921504E+02  0.00000000000E+00 0. -1.
        -12    1    4    4    0    0  0.58006191947E+01 -0.25401552886E+02 -0.44551016562E+02  0.51610843326E+02  0.00000000000E+00 0.  1.
<mgrwt>
<rscale>  2 0.18011601E+03</rscale>
<asrwt>0</asrwt>
<pdfrwt beam="1">  1       21 0.18719375E-01 0.18100462E+03</pdfrwt>
<pdfrwt beam="2">  1       21 0.43015205E-01 0.18100462E+03</pdfrwt>
<totfact> 0.13622780E+05</totfact>
</mgrwt>
</event>
<event>
12    1  0.1019868E-001  0.1857063E+03  0.7546771E-02  0.1163604E+00
         21   -1    0    0  501  502  0.00000000000E+00  0.00000000000E+00  0.14927924142E+03  0.14927924142E+03  0.00000000000E+00 0.  1.
         21   -1    0    0  502  503 -0.00000000000E+00 -0.00000000000E+00 -0.22471323360E+03  0.22471323360E+03  0.00000000000E+00 0.  1.
         -6    2    1    2    0  503 -0.26104119127E+02  0.44396236666E+02 -0.39629491786E+02  0.18486608777E+03  0.17306797198E+03 0.  0.
        -24    2    3    3    0    0  0.20135393088E+02  0.35404205196E+00 -0.74921328488E+02  0.11175376915E+03  0.80437180813E+02 0.  0.
          6    2    1    2  501    0  0.26104119127E+02 -0.44396236666E+02 -0.35804500387E+02  0.18912638725E+03  0.17842190796E+03 0.  0.
         24    2    5    5    0    0  0.25483388983E+02 -0.98295373155E+02 -0.44347099832E+02  0.13434894458E+03  0.75970982272E+02 0.  0.
          5    1    5    5  501    0  0.62073014405E+00  0.53899136489E+02  0.85425994445E+01  0.54777442670E+02  0.47000000000E+01 0. -1.
        -11    1    6    6    0    0 -0.25297283370E+02 -0.28253674152E+02 -0.25806198567E+02  0.45871369431E+02  0.00000000000E+00 0.  1.
         12    1    6    6    0    0  0.50780672353E+02 -0.70041699003E+02 -0.18540901265E+02  0.88477575145E+02  0.00000000000E+00 0. -1.
         -5    1    3    3    0  503 -0.46239512214E+02  0.44042194614E+02  0.35291836702E+02  0.73112318620E+02  0.47000000000E+01 0.  1.
         13    1    4    4    0    0 -0.27311225688E+02  0.17104221624E+02 -0.24122322862E+02  0.40253495578E+02  0.00000000000E+00 0. -1.
        -14    1    4    4    0    0  0.47446618776E+02 -0.16750179572E+02 -0.50799005626E+02  0.71500273577E+02  0.00000000000E+00 0.  1.
<mgrwt>
<rscale>  2 0.18440829E+03</rscale>
<asrwt>0</asrwt>
<pdfrwt beam="1">  1       21 0.22966037E-01 0.18570630E+03</pdfrwt>
<pdfrwt beam="2">  1       21 0.34571266E-01 0.18570630E+03</pdfrwt>
<totfact> 0.14385203E+05</totfact>
</mgrwt>
</event>
<event>
12    1  0.1019868E-001  0.2461393E+03  0.7546771E-02  0.1115878E+00
         21   -1    0    0  503  502  0.00000000000E+00  0.00000000000E+00  0.16496942460E+03  0.16496942460E+03  0.00000000000E+00 0.  1.
         21   -1    0    0  501  503 -0.00000000000E+00 -0.00000000000E+00 -0.44367966809E+03  0.44367966809E+03  0.00000000000E+00 0.  1.
          6    2    1    2  501    0 -0.79322169792E+02 -0.15563342070E+03 -0.12064111939E+02  0.24576523251E+03  0.17245648279E+03 0.  0.
         24    2    3    3    0    0 -0.66386190917E+01 -0.43711924801E+02  0.39260943215E+02  0.10270695392E+03  0.83979122932E+02 0.  0.
         -6    2    1    2    0  502  0.79322169792E+02  0.15563342070E+03 -0.26664613156E+03  0.36288386018E+03  0.17340925075E+03 0.  0.
        -24    2    5    5    0    0  0.45304888242E+02  0.76937133307E+02 -0.50448404207E+02  0.13026006861E+03  0.80316801526E+02 0.  0.
          5    1    3    3  501    0 -0.72683550700E+02 -0.11192149590E+03 -0.51325055154E+02  0.14305827859E+03  0.47000000000E+01 0. -1.
        -11    1    4    4    0    0 -0.12163020593E+02 -0.68468768218E+02  0.28887676319E+02  0.75302119056E+02  0.00000000000E+00 0.  1.
         12    1    4    4    0    0  0.55244015016E+01  0.24756843417E+02  0.10373266896E+02  0.27404834866E+02  0.00000000000E+00 0. -1.
         -5    1    5    5    0  502  0.34017281550E+02  0.78696287390E+02 -0.21619772735E+03  0.23262379157E+03  0.47000000000E+01 0.  1.
         13    1    6    6    0    0 -0.97376292469E+01  0.60350270678E+02 -0.15804631675E+02  0.63140818625E+02  0.00000000000E+00 0. -1.
        -14    1    6    6    0    0  0.55042517489E+02  0.16586862629E+02 -0.34643772532E+02  0.67119249986E+02  0.00000000000E+00 0.  1.
<mgrwt>
<rscale>  2 0.24597151E+03</rscale>
<asrwt>0</asrwt>
<pdfrwt beam="1">  1       21 0.25379911E-01 0.24613926E+03</pdfrwt>
<pdfrwt beam="2">  1       21 0.68258411E-01 0.24613926E+03</pdfrwt>
<totfact> 0.28037511E+04</totfact>
</mgrwt>
</event>
<event>
12    1  0.1019868E-001  0.2053620E+03  0.7546771E-02  0.1145445E+00
         21   -1    0    0  501  502  0.00000000000E+00  0.00000000000E+00  0.28356417418E+03  0.28356417418E+03  0.00000000000E+00 0. -1.
         21   -1    0    0  502  503 -0.00000000000E+00 -0.00000000000E+00 -0.15020553416E+03  0.15020553416E+03  0.00000000000E+00 0. -1.
         -6    2    1    2    0  503 -0.36637911652E+02 -0.10365145673E+03  0.91710494510E+02  0.22422702317E+03  0.17257167225E+03 0.  0.
        -24    2    3    3    0    0 -0.46566767779E+02 -0.13125809945E+03  0.42333495694E+02  0.16659988617E+03  0.81032368127E+02 0.  0.
          6    2    1    2  501    0  0.36637911652E+02  0.10365145673E+03  0.41648145516E+02  0.20954268517E+03  0.17345779842E+03 0.  0.
         24    2    5    5    0    0  0.31296014025E+02  0.88387126296E+02 -0.37635441016E+02  0.12849015438E+03  0.79382421004E+02 0.  0.
          5    1    5    5  501    0  0.53418976273E+01  0.15264330434E+02  0.79283586532E+02  0.81052530789E+02  0.47000000000E+01 0. -1.
        -11    1    6    6    0    0  0.48181022827E+02  0.20680630858E+02 -0.96770891074E+01  0.53317403415E+02  0.00000000000E+00 0.  1.
         12    1    6    6    0    0 -0.16885008802E+02  0.67706495438E+02 -0.27958351909E+02  0.75172750969E+02  0.00000000000E+00 0. -1.
         -5    1    3    3    0  503  0.99288561270E+01  0.27606642715E+02  0.49376998816E+02  0.57627136994E+02  0.47000000000E+01 0.  1.
         13    1    4    4    0    0 -0.34829966970E+01 -0.63579787313E+02  0.56503067369E+02  0.85130002014E+02  0.00000000000E+00 0. -1.
        -14    1    4    4    0    0 -0.43083771082E+02 -0.67678312132E+02 -0.14169571675E+02  0.81469884161E+02  0.00000000000E+00 0.  1.
<mgrwt>
<rscale>  2 0.20517481E+03</rscale>
<asrwt>0</asrwt>
<pdfrwt beam="1">  1       21 0.43625258E-01 0.20536204E+03</pdfrwt>
<pdfrwt beam="2">  1       21 0.23108544E-01 0.20536204E+03</pdfrwt>
<totfact> 0.88358400E+04</totfact>
</mgrwt>
</event>
<event>
12    1  0.1019868E-001  0.2799883E+03  0.7546771E-02  0.1095775E+00
         21   -1    0    0  501  502  0.00000000000E+00  0.00000000000E+00  0.34962316604E+03  0.34962316604E+03  0.00000000000E+00 0.  1.
         21   -1    0    0  502  503 -0.00000000000E+00 -0.00000000000E+00 -0.46253548668E+03  0.46253548668E+03  0.00000000000E+00 0.  1.
         -6    2    1    2    0  503 -0.16587826085E+03  0.14474207612E+03 -0.34819521276E+03  0.44643814105E+03  0.17205011356E+03 0.  0.
        -24    2    3    3    0    0 -0.13849534618E+03  0.15736347286E+03 -0.34985199486E+03  0.41587740483E+03  0.81322653854E+02 0.  0.
          6    2    1    2  501    0  0.16587826085E+03 -0.14474207612E+03  0.23528289212E+03  0.36572051166E+03  0.17299591703E+03 0.  0.
         24    2    5    5    0    0  0.13899309564E+03 -0.16354625868E+03  0.24048630102E+03  0.33217092367E+03  0.80233423138E+02 0.  0.
          5    1    5    5  501    0  0.26885165211E+02  0.18804182564E+02 -0.52034089066E+01  0.33549587994E+02  0.47000000000E+01 0. -1.
        -13    1    6    6    0    0  0.11213408550E+03 -0.10484572915E+03  0.11767443036E+03  0.19342686373E+03  0.00000000000E+00 0.  1.
         14    1    6    6    0    0  0.26859010136E+02 -0.58700529532E+02  0.12281187066E+03  0.13874405994E+03  0.00000000000E+00 0. -1.
         -5    1    3    3    0  503 -0.27382914672E+02 -0.12621396746E+02  0.16567821058E+01  0.30560736226E+02  0.47000000000E+01 0.  1.
         13    1    4    4    0    0 -0.17653692430E+02  0.57741066301E+02 -0.53425918937E+02  0.80622654435E+02  0.00000000000E+00 0. -1.
        -14    1    4    4    0    0 -0.12084165375E+03  0.99622406562E+02 -0.29642607593E+03  0.33525475039E+03  0.00000000000E+00 0.  1.
<mgrwt>
<rscale>  2 0.27984235E+03</rscale>
<asrwt>0</asrwt>
<pdfrwt beam="1">  1       21 0.53788180E-01 0.27998831E+03</pdfrwt>
<pdfrwt beam="2">  1       21 0.71159305E-01 0.27998831E+03</pdfrwt>
<totfact> 0.55201564E+03</totfact>
</mgrwt>
</event>
<event>
12    1  0.1019868E-001  0.2050289E+03  0.7546771E-02  0.1146487E+00
         21   -1    0    0  503  502  0.00000000000E+00  0.00000000000E+00  0.22439882580E+03  0.22439882580E+03  0.00000000000E+00 0. -1.
         21   -1    0    0  501  503 -0.00000000000E+00 -0.00000000000E+00 -0.26765339574E+03  0.26765339574E+03  0.00000000000E+00 0. -1.
          6    2    1    2  501    0 -0.10094188119E+03  0.22405572825E+02 -0.15992394672E+03  0.26002409921E+03  0.17704685923E+03 0.  0.
         24    2    3    3    0    0 -0.11201449638E+03  0.41762106655E+01 -0.54614710529E+02  0.15247393567E+03  0.87754466077E+02 0.  0.
         -6    2    1    2    0  502  0.10094188119E+03 -0.22405572825E+02  0.11666937678E+03  0.23202812233E+03  0.17185468571E+03 0.  0.
        -24    2    5    5    0    0  0.13192294966E+03 -0.47631654006E+02  0.95753150071E+02  0.18668762923E+03  0.77531709961E+02 0.  0.
          5    1    3    3  501    0  0.11072615188E+02  0.18229362159E+02 -0.10530923619E+03  0.10755016354E+03  0.47000000000E+01 0. -1.
        -13    1    4    4    0    0  0.13308933847E+02 -0.91672125526E+01 -0.85869183545E+01  0.18300291609E+02  0.00000000000E+00 0.  1.
         14    1    4    4    0    0 -0.12532343023E+03  0.13343423218E+02 -0.46027792175E+02  0.13417364406E+03  0.00000000000E+00 0. -1.
         -5    1    5    5    0  502 -0.30981068461E+02  0.25226081181E+02  0.20916226713E+02  0.45340493101E+02  0.47000000000E+01 0.  1.
         13    1    6    6    0    0  0.35538485910E+02 -0.24074067191E+02  0.73321081982E+02  0.84961907670E+02  0.00000000000E+00 0. -1.
        -14    1    6    6    0    0  0.96384463745E+02 -0.23557586815E+02  0.22432068089E+02  0.10172572156E+03  0.00000000000E+00 0.  1.
<mgrwt>
<rscale>  2 0.20390308E+03</rscale>
<asrwt>0</asrwt>
<pdfrwt beam="1">  1       21 0.34522896E-01 0.20502893E+03</pdfrwt>
<pdfrwt beam="2">  1       21 0.41177446E-01 0.20502893E+03</pdfrwt>
<totfact> 0.45648843E+04</totfact>
</mgrwt>
</event>
<event>
12    1  0.1019868E-001  0.1724374E+03  0.7546771E-02  0.1175440E+00
         21   -1    0    0  501  502  0.00000000000E+00  0.00000000000E+00  0.23902536054E+04  0.23902536054E+04  0.00000000000E+00 0.  1.
         21   -1    0    0  502  503 -0.00000000000E+00 -0.00000000000E+00 -0.13675342603E+02  0.13675342603E+02  0.00000000000E+00 0.  1.
         -6    2    1    2    0  503 -0.53404388980E+01 -0.15658803660E+02  0.82115861774E+03  0.83898008676E+03  0.17120862146E+03 0.  0.
        -24    2    3    3    0    0  0.37179967421E+02  0.40670462407E+02  0.38995382363E+03  0.40201254147E+03  0.80707263894E+02 0.  0.
          6    2    1    2  501    0  0.53404388980E+01  0.15658803660E+02  0.15554196451E+04  0.15649488613E+04  0.17164191700E+03 0.  0.
         24    2    5    5    0    0  0.66826237127E+02  0.22493637831E+02  0.11412670334E+04  0.11461748242E+04  0.79085880221E+02 0.  0.
          5    1    5    5  501    0 -0.61485798229E+02 -0.68348341708E+01  0.41415261170E+03  0.41877403706E+03  0.47000000000E+01 0. -1.
        -11    1    6    6    0    0  0.15927831961E+02 -0.29176422084E+02  0.39079082355E+03  0.39220202346E+03  0.00000000000E+00 0.  1.
         12    1    6    6    0    0  0.50898405167E+02  0.51670059915E+02  0.75047620983E+03  0.75397280074E+03  0.00000000000E+00 0. -1.
         -5    1    3    3    0  503 -0.42520406319E+02 -0.56329266067E+02  0.43120479412E+03  0.43696754529E+03  0.47000000000E+01 0.  1.
         13    1    4    4    0    0  0.61571522520E+02  0.17829960432E+02  0.24364428466E+03  0.25193550231E+03  0.00000000000E+00 0. -1.
        -14    1    4    4    0    0 -0.24391555099E+02  0.22840501975E+02  0.14630953897E+03  0.15007703916E+03  0.00000000000E+00 0.  1.
<mgrwt>
<rscale>  2 0.17232950E+03</rscale>
<asrwt>0</asrwt>
<pdfrwt beam="1">  1       21 0.36773099E+00 0.17243743E+03</pdfrwt>
<pdfrwt beam="2">  1       21 0.21039008E-02 0.17243743E+03</pdfrwt>
<totfact> 0.15940550E+04</totfact>
</mgrwt>
</event>
<event>
12    1  0.1019868E-001  0.2586547E+03  0.7546771E-02  0.1108086E+00
         21   -1    0    0  503  502  0.00000000000E+00  0.00000000000E+00  0.19458941037E+04  0.19458941037E+04  0.00000000000E+00 0.  1.
         21   -1    0    0  501  503 -0.00000000000E+00 -0.00000000000E+00 -0.56260977410E+02  0.56260977410E+02  0.00000000000E+00 0.  1.
          6    2    1    2  501    0  0.19077618885E+03  0.19087017274E+02  0.31790703272E+03  0.40928812284E+03  0.17231371850E+03 0.  0.
         24    2    3    3    0    0  0.20853158097E+03  0.31659878755E+02  0.24701583198E+03  0.33498480435E+03  0.81915991822E+02 0.  0.
         -6    2    1    2    0  502 -0.19077618885E+03 -0.19087017274E+02  0.15717260936E+04  0.15928669583E+04  0.17361556693E+03 0.  0.
        -24    2    5    5    0    0 -0.21913657624E+02 -0.12413874473E+02  0.64471523303E+03  0.65056641659E+03  0.83334374826E+02 0.  0.
          5    1    3    3  501    0 -0.17755392117E+02 -0.12572861481E+02  0.70891200740E+02  0.74303318482E+02  0.47000000000E+01 0. -1.
        -13    1    4    4    0    0  0.17340415504E+03  0.12537186181E+02  0.23668553561E+03  0.29367707570E+03  0.00000000000E+00 0.  1.
         14    1    4    4    0    0  0.35127425931E+02  0.19122692574E+02  0.10330296365E+02  0.41307728657E+02  0.00000000000E+00 0. -1.
         -5    1    5    5    0  502 -0.16886253123E+03 -0.66731428011E+01  0.92701086059E+03  0.94230054173E+03  0.47000000000E+01 0.  1.
         13    1    6    6    0    0 -0.14446334468E+02 -0.16016803509E+02  0.64119711545E+03  0.64155979880E+03  0.00000000000E+00 0. -1.
        -14    1    6    6    0    0 -0.74673231553E+01  0.36029290358E+01  0.35181175775E+01  0.90066177909E+01  0.00000000000E+00 0.  1.
<mgrwt>
<rscale>  2 0.25843638E+03</rscale>
<asrwt>0</asrwt>
<pdfrwt beam="1">  1       21 0.29936827E+00 0.25865466E+03</pdfrwt>
<pdfrwt beam="2">  1       21 0.86555365E-02 0.25865466E+03</pdfrwt>
<totfact> 0.33614749E+03</totfact>
</mgrwt>
</event>
<event>
12    1  0.1019868E-001  0.3181956E+03  0.7546771E-02  0.1076635E+00
         21   -1    0    0  501  502  0.00000000000E+00  0.00000000000E+00  0.16900212314E+03  0.16900212314E+03  0.00000000000E+00 0. -1.
         21   -1    0    0  502  503 -0.00000000000E+00 -0.00000000000E+00 -0.98461028387E+03  0.98461028387E+03  0.00000000000E+00 0.  1.
         -6    2    1    2    0  503  0.26471690131E+03  0.19135786652E+02 -0.76937166318E+03  0.83207508711E+03  0.17313283429E+03 0.  0.
        -24    2    3    3    0    0  0.95719003361E+02  0.62427786263E+02 -0.29642808427E+03  0.32795981699E+03  0.81416683231E+02 0.  0.
          6    2    1    2  501    0 -0.26471690131E+03 -0.19135786652E+02 -0.46236497544E+02  0.32153731990E+03  0.17551985133E+03 0.  0.
         24    2    5    5    0    0 -0.15348890784E+03  0.49868550013E+02  0.77423116826E+01  0.17987198590E+03  0.79046004406E+02 0.  0.
          5    1    5    5  501    0 -0.11122799347E+03 -0.69004336665E+02 -0.53978809227E+02  0.14166533399E+03  0.47000000000E+01 0. -1.
        -13    1    6    6    0    0 -0.76491028864E+02  0.62897219479E+02 -0.10774299420E+02  0.99614372672E+02  0.00000000000E+00 0.  1.
         14    1    6    6    0    0 -0.76997878976E+02 -0.13028669466E+02  0.18516611103E+02  0.80257613231E+02  0.00000000000E+00 0. -1.
         -5    1    3    3    0  503  0.16899789795E+03 -0.43291999611E+02 -0.47294357891E+03  0.50411527012E+03  0.47000000000E+01 0.  1.
         13    1    4    4    0    0  0.64958976913E+02  0.66244751620E+00 -0.95386512839E+02  0.11540664777E+03  0.00000000000E+00 0. -1.
        -14    1    4    4    0    0  0.30760026448E+02  0.61765338747E+02 -0.20104157144E+03  0.21255316921E+03  0.00000000000E+00 0.  1.
<mgrwt>
<rscale>  2 0.31786747E+03</rscale>
<asrwt>0</asrwt>
<pdfrwt beam="1">  1       21 0.26000326E-01 0.31819559E+03</pdfrwt>
<pdfrwt beam="2">  1       21 0.15147851E+00 0.31819559E+03</pdfrwt>
<totfact> 0.37543452E+03</totfact>
</mgrwt>
</event>
<event>
12    1  0.1019868E-001  0.3266792E+03  0.7546771E-02  0.1072634E+00
         21   -1    0    0  503  502  0.00000000000E+00  0.00000000000E+00  0.11844578726E+04  0.11844578726E+04  0.00000000000E+00 0. -1.
         21   -1    0    0  501  503 -0.00000000000E+00 -0.00000000000E+00 -0.11724726655E+03  0.11724726655E+03  0.00000000000E+00 0.  1.
          6    2    1    2  501    0 -0.17517427956E+03  0.21429968327E+03  0.22026320371E+03  0.39399892270E+03  0.17351913357E+03 0.  0.
         24    2    3    3    0    0 -0.37921569927E+02  0.14869221771E+03  0.12830465831E+03  0.21617566801E+03  0.81990322727E+02 0.  0.
         -6    2    1    2    0  502  0.17517427956E+03 -0.21429968327E+03  0.84694740235E+03  0.90770621647E+03  0.17320591964E+03 0.  0.
        -24    2    5    5    0    0  0.14326310716E+03 -0.73590827441E+02  0.52837502505E+03  0.55795236787E+03  0.78681318962E+02 0.  0.
          5    1    3    3  501    0 -0.13725270963E+03  0.65607465560E+02  0.91958545399E+02  0.17782325469E+03  0.47000000000E+01 0. -1.
        -13    1    4    4    0    0 -0.25875729234E+02  0.10238492837E+03  0.34887881980E+02  0.11121776491E+03  0.00000000000E+00 0.  1.
         14    1    4    4    0    0 -0.12045840693E+02  0.46307289340E+02  0.93416776333E+02  0.10495790311E+03  0.00000000000E+00 0. -1.
         -5    1    5    5    0  502  0.31911172400E+02 -0.14070885583E+03  0.31857237730E+03  0.34975384860E+03  0.47000000000E+01 0.  1.
         13    1    6    6    0    0  0.37940797480E+01 -0.33737909131E+02  0.89145328856E+02  0.95391462986E+02  0.00000000000E+00 0. -1.
        -14    1    6    6    0    0  0.13946902741E+03 -0.39852918310E+02  0.43922969620E+03  0.46256090488E+03  0.00000000000E+00 0.  1.
<mgrwt>
<rscale>  2 0.32663759E+03</rscale>
<asrwt>0</asrwt>
<pdfrwt beam="1">  1       21 0.18222428E+00 0.32667916E+03</pdfrwt>
<pdfrwt beam="2">  1       21 0.18038042E-01 0.32667916E+03</pdfrwt>
<totfact> 0.44768557E+03</totfact>
</mgrwt>
</event>
<event>
12    1  0.1019868E-001  0.2199301E+03  0.7546771E-02  0.1134224E+00
         21   -1    0    0  501  502  0.00000000000E+00  0.00000000000E+00  0.70575318500E+03  0.70575318500E+03  0.00000000000E+00 0. -1.
         21   -1    0    0  502  503 -0.00000000000E+00 -0.00000000000E+00 -0.21355240500E+03  0.21355240500E+03  0.00000000000E+00 0.  1.
         -6    2    1    2    0  503 -0.61545332235E+02  0.12082356536E+03 -0.13302950026E+03  0.25703330069E+03  0.17315631047E+03 0.  0.
        -24    2    3    3    0    0 -0.33331348269E+02  0.15025285915E+03 -0.11067753557E+03  0.21030202048E+03  0.91052306277E+02 0.  0.
          6    2    1    2  501    0  0.61545332235E+02 -0.12082356536E+03  0.62523028026E+03  0.66227228931E+03  0.17118855090E+03 0.  0.
         24    2    5    5    0    0  0.62733918348E+02 -0.23866631465E+02  0.19795479322E+03  0.22410737561E+03  0.80826078933E+02 0.  0.
          5    1    5    5  501    0 -0.11885861130E+01 -0.96956933898E+02  0.42727548704E+03  0.43816491369E+03  0.47000000000E+01 0. -1.
        -11    1    6    6    0    0  0.78881894077E+02 -0.11053264371E+02  0.17974119058E+03  0.19659965274E+03  0.00000000000E+00 0.  1.
         12    1    6    6    0    0 -0.16147975729E+02 -0.12813367094E+02  0.18213602642E+02  0.27507722872E+02  0.00000000000E+00 0. -1.
         -5    1    3    3    0  503 -0.28213983966E+02 -0.29429293788E+02 -0.22351964687E+02  0.46731280204E+02  0.47000000000E+01 0.  1.
         11    1    4    4    0    0 -0.64556212806E+02  0.90017351790E+02 -0.63759820313E+02  0.12781213918E+03  0.00000000000E+00 0. -1.
        -12    1    4    4    0    0  0.31224864537E+02  0.60235507361E+02 -0.46917715260E+02  0.82489881305E+02  0.00000000000E+00 0.  1.
<mgrwt>
<rscale>  2 0.21954265E+03</rscale>
<asrwt>0</asrwt>
<pdfrwt beam="1">  1       21 0.10857741E+00 0.21993015E+03</pdfrwt>
<pdfrwt beam="2">  1       21 0.32854217E-01 0.21993015E+03</pdfrwt>
<totfact> 0.58888034E+03</totfact>
</mgrwt>
</event>
<event>
12    1  0.1019868E-001  0.2141887E+03  0.7546771E-02  0.1141195E+00
         21   -1    0    0  503  502  0.00000000000E+00  0.00000000000E+00  0.55091709216E+02  0.55091709216E+02  0.00000000000E+00 0. -1.
         21   -1    0    0  501  503 -0.00000000000E+00 -0.00000000000E+00 -0.78925617741E+03  0.78925617741E+03  0.00000000000E+00 0. -1.
          6    2    1    2  501    0  0.98069023606E+02  0.23421433492E+02 -0.40626973108E+03  0.45269530303E+03  0.17237124487E+03 0.  0.
         24    2    3    3    0    0  0.19948478562E+02  0.49419856297E+02 -0.11841618888E+03  0.15326168885E+03  0.81403240022E+02 0.  0.
         -6    2    1    2    0  502 -0.98069023606E+02 -0.23421433492E+02 -0.32789473712E+03  0.39165258360E+03  0.18897272468E+03 0.  0.
        -24    2    5    5    0    0 -0.11378487189E+03  0.34957127186E+02 -0.17307658067E+03  0.22538233431E+03  0.81686571902E+02 0.  0.
          5    1    3    3  501    0  0.78120545043E+02 -0.25998422806E+02 -0.28785354220E+03  0.29943361418E+03  0.47000000000E+01 0. -1.
        -13    1    4    4    0    0  0.26756178368E+02  0.47870778768E+02 -0.12923288615E+03  0.14038747595E+03  0.00000000000E+00 0.  1.
         14    1    4    4    0    0 -0.68076998059E+01  0.15490775293E+01  0.10816697272E+02  0.12874212897E+02  0.00000000000E+00 0. -1.
         -5    1    5    5    0  502  0.15715848282E+02 -0.58378560678E+02 -0.15481815645E+03  0.16627024929E+03  0.47000000000E+01 0.  1.
         11    1    6    6    0    0 -0.87596028744E+02  0.57440667567E+02 -0.15309122508E+03  0.18549775669E+03  0.00000000000E+00 0. -1.
        -12    1    6    6    0    0 -0.26188843144E+02 -0.22483540381E+02 -0.19985355596E+02  0.39884577616E+02  0.00000000000E+00 0.  1.
<mgrwt>
<rscale>  2 0.21046940E+03</rscale>
<asrwt>0</asrwt>
<pdfrwt beam="1">  1       21 0.84756475E-02 0.21418867E+03</pdfrwt>
<pdfrwt beam="2">  1       21 0.12142403E+00 0.21418867E+03</pdfrwt>
<totfact> 0.55035688E+04</totfact>
</mgrwt>
</event>
<event>
12    1  0.1019868E-001  0.1916352E+03  0.7546771E-02  0.1157008E+00
         21   -1    0    0  503  502  0.00000000000E+00  0.00000000000E+00  0.56258842682E+03  0.56258842682E+03  0.00000000000E+00 0.  1.
         21   -1    0    0  501  503 -0.00000000000E+00 -0.00000000000E+00 -0.69668320479E+02  0.69668320479E+02  0.00000000000E+00 0.  1.
          6    2    1    2  501    0 -0.58491971394E+02  0.54789153511E+02  0.16687962717E+03  0.25406839606E+03  0.17400798216E+03 0.  0.
         24    2    3    3    0    0 -0.56272844186E+02 -0.75447331248E+01  0.28753773664E+02  0.10243964102E+03  0.80271692160E+02 0.  0.
         -6    2    1    2    0  502  0.58491971394E+02 -0.54789153511E+02  0.32604047917E+03  0.37818835124E+03  0.17407145915E+03 0.  0.
        -24    2    5    5    0    0 -0.94217518815E+01 -0.71775631649E+02  0.26186489357E+03  0.28310202185E+03  0.79580283888E+02 0.  0.
          5    1    3    3  501    0 -0.22191272079E+01  0.62333886636E+02  0.13812585350E+03  0.15162875504E+03  0.47000000000E+01 0. -1.
        -13    1    4    4    0    0 -0.58902680336E+02 -0.23265548242E+02  0.46512968741E+02  0.78576508875E+02  0.00000000000E+00 0.  1.
         14    1    4    4    0    0  0.26298361506E+01  0.15720815117E+02 -0.17759195077E+02  0.23863132148E+02  0.00000000000E+00 0. -1.
         -5    1    5    5    0  502  0.67913723275E+02  0.16986478138E+02  0.64175585598E+02  0.95086329383E+02  0.47000000000E+01 0.  1.
         13    1    6    6    0    0 -0.39356659739E+01  0.12343579174E+02  0.97733238352E+02  0.98588231002E+02  0.00000000000E+00 0. -1.
        -14    1    6    6    0    0 -0.54860859076E+01 -0.84119210823E+02  0.16413165522E+03  0.18451379085E+03  0.00000000000E+00 0.  1.
<mgrwt>
<rscale>  2 0.19162075E+03</rscale>
<asrwt>0</asrwt>
<pdfrwt beam="1">  1       21 0.86552063E-01 0.19163516E+03</pdfrwt>
<pdfrwt beam="2">  1       21 0.10718204E-01 0.19163516E+03</pdfrwt>
<totfact> 0.82540555E+04</totfact>
</mgrwt>
</event>
<event>
12    1  0.1019868E-001  0.1908393E+03  0.7546771E-02  0.1159307E+00
         21   -1    0    0  503  502  0.00000000000E+00  0.00000000000E+00  0.42679179703E+03  0.42679179703E+03  0.00000000000E+00 0. -1.
         21   -1    0    0  501  503 -0.00000000000E+00 -0.00000000000E+00 -0.38622858454E+03  0.38622858454E+03  0.00000000000E+00 0. -1.
          6    2    1    2  501    0  0.56451750557E+02 -0.55276593882E+02 -0.34027198727E+03  0.39013415151E+03  0.17371623092E+03 0.  0.
         24    2    3    3    0    0  0.26745371683E+02  0.37245511667E+02 -0.14815959146E+03  0.17479239619E+03  0.80613734431E+02 0.  0.
         -6    2    1    2    0  502 -0.56451750557E+02  0.55276593882E+02  0.38083519977E+03  0.42288623006E+03  0.16599702472E+03 0.  0.
        -24    2    5    5    0    0 -0.92304112926E+02  0.68398873976E+02  0.25089117141E+03  0.28736823631E+03  0.80222616041E+02 0.  0.
          5    1    3    3  501    0  0.29706378874E+02 -0.92522105549E+02 -0.19211239581E+03  0.21534175532E+03  0.47000000000E+01 0. -1.
        -13    1    4    4    0    0  0.17177605625E+02 -0.78002780281E+00  0.40061722559E+01  0.17655820415E+02  0.00000000000E+00 0.  1.
         14    1    4    4    0    0  0.95677660577E+01  0.38025539470E+02 -0.15216576372E+03  0.15713657578E+03  0.00000000000E+00 0. -1.
         -5    1    5    5    0  502  0.35852362369E+02 -0.13122280094E+02  0.12994402836E+03  0.13551799375E+03  0.47000000000E+01 0.  1.
         11    1    6    6    0    0 -0.32524527866E+02 -0.14862566176E+02  0.45956189164E+02  0.58229821472E+02  0.00000000000E+00 0. -1.
        -12    1    6    6    0    0 -0.59779585060E+02  0.83261440152E+02  0.20493498224E+03  0.22913841484E+03  0.00000000000E+00 0.  1.
<mgrwt>
<rscale>  2 0.18906498E+03</rscale>
<asrwt>0</asrwt>
<pdfrwt beam="1">  1       21 0.65660276E-01 0.19083928E+03</pdfrwt>
<pdfrwt beam="2">  1       21 0.59419782E-01 0.19083928E+03</pdfrwt>
<totfact> 0.56489416E+03</totfact>
</mgrwt>
</event>
<event>
12    1  0.1019868E-001  0.1762794E+03  0.7546771E-02  0.1171586E+00
         21   -1    0    0  501  502  0.00000000000E+00  0.00000000000E+00  0.30299924391E+03  0.30299924391E+03  0.00000000000E+00 0.  1.
         21   -1    0    0  502  503 -0.00000000000E+00 -0.00000000000E+00 -0.10266556171E+03  0.10266556171E+03  0.00000000000E+00 0.  1.
         -6    2    1    2    0  503 -0.29916562371E+02  0.23072686523E+01  0.87368256655E+02  0.19674258119E+03  0.17370695665E+03 0.  0.
        -24    2    3    3    0    0 -0.50899195742E+02 -0.26143755635E+02 -0.36515006614E+00  0.10203792269E+03  0.84483017502E+02 0.  0.
          6    2    1    2  501    0  0.29916562371E+02 -0.23072686523E+01  0.11296542555E+03  0.20892222443E+03  0.17316750358E+03 0.  0.
         24    2    5    5    0    0  0.65801711678E+02 -0.39798775407E+02  0.11032076817E+03  0.15674520619E+03  0.80526889852E+02 0.  0.
          5    1    5    5  501    0 -0.35885149307E+02  0.37491506755E+02  0.26446573738E+01  0.52177018238E+02  0.47000000000E+01 0. -1.
        -11    1    6    6    0    0  0.18195034067E+02 -0.10377871280E+02  0.96975457104E+02  0.99211888187E+02  0.00000000000E+00 0.  1.
         12    1    6    6    0    0  0.47606677611E+02 -0.29420904127E+02  0.13345311068E+02  0.57533318002E+02  0.00000000000E+00 0. -1.
         -5    1    3    3    0  503  0.20982633371E+02  0.28451024287E+02  0.87733406722E+02  0.94704658498E+02  0.47000000000E+01 0.  1.
         13    1    4    4    0    0 -0.27730329377E+02 -0.40300343121E+02  0.33008967841E+02  0.59014242187E+02  0.00000000000E+00 0. -1.
        -14    1    4    4    0    0 -0.23168866366E+02  0.14156587486E+02 -0.33374117907E+02  0.43023680502E+02  0.00000000000E+00 0.  1.
<mgrwt>
<rscale>  2 0.17614637E+03</rscale>
<asrwt>0</asrwt>
<pdfrwt beam="1">  1       21 0.46615268E-01 0.17627941E+03</pdfrwt>
<pdfrwt beam="2">  1       21 0.15794702E-01 0.17627941E+03</pdfrwt>
<totfact> 0.15815585E+05</totfact>
</mgrwt>
</event>
<event>
12    1  0.1019868E-001  0.1775668E+03  0.7546771E-02  0.1170935E+00
         21   -1    0    0  501  502  0.00000000000E+00  0.00000000000E+00  0.36102098040E+03  0.36102098040E+03  0.00000000000E+00 0.  1.
         21   -1    0    0  502  503 -0.00000000000E+00 -0.00000000000E+00 -0.10501241997E+03  0.10501241997E+03  0.00000000000E+00 0.  1.
         -6    2    1    2    0  503 -0.41959735473E+02  0.11341372039E+02  0.29361725707E+02  0.17997800588E+03  0.17216482086E+03 0.  0.
        -24    2    3    3    0    0  0.26275682245E+02 -0.35990701442E+02 -0.92426334316E-01  0.91739496801E+02  0.80189679279E+02 0.  0.
          6    2    1    2  501    0  0.41959735473E+02 -0.11341372039E+02  0.22664683472E+03  0.28605539449E+03  0.16902560430E+03 0.  0.
         24    2    5    5    0    0  0.85869982428E+02 -0.26017894227E+02  0.12210129702E+03  0.17162039309E+03  0.80586896515E+02 0.  0.
          5    1    5    5  501    0 -0.43910246955E+02  0.14676522188E+02  0.10454553770E+03  0.11443500140E+03  0.47000000000E+01 0. -1.
        -11    1    6    6    0    0  0.31588783316E+02 -0.33946588504E+01  0.10598583683E+03  0.11064525543E+03  0.00000000000E+00 0.  1.
         12    1    6    6    0    0  0.54281199112E+02 -0.22623235377E+02  0.16115460184E+02  0.60975137662E+02  0.00000000000E+00 0. -1.
         -5    1    3    3    0  503 -0.68235417718E+02  0.47332073481E+02  0.29454152042E+02  0.88238509074E+02  0.47000000000E+01 0.  1.
         13    1    4    4    0    0 -0.11866803836E+02 -0.40697646434E+02  0.21631837800E+02  0.47592603051E+02  0.00000000000E+00 0. -1.
        -14    1    4    4    0    0  0.38142486081E+02  0.47069449920E+01 -0.21724264135E+02  0.44146893750E+02  0.00000000000E+00 0.  1.
<mgrwt>
<rscale>  2 0.17680137E+03</rscale>
<asrwt>0</asrwt>
<pdfrwt beam="1">  1       21 0.55541689E-01 0.17756681E+03</pdfrwt>
<pdfrwt beam="2">  1       21 0.16155757E-01 0.17756681E+03</pdfrwt>
<totfact> 0.10524842E+05</totfact>
</mgrwt>
</event>
<event>
12    1  0.1019868E-001  0.1747023E+03  0.7546771E-02  0.1173186E+00
         21   -1    0    0  501  502  0.00000000000E+00  0.00000000000E+00  0.60469380297E+02  0.60469380297E+02  0.00000000000E+00 0.  1.
         21   -1    0    0  502  503 -0.00000000000E+00 -0.00000000000E+00 -0.50467092789E+03  0.50467092789E+03  0.00000000000E+00 0.  1.
         -6    2    1    2    0  503  0.24221777128E+02  0.37755723363E+01 -0.23898278227E+03  0.29602983857E+03  0.17297382944E+03 0.  0.
        -24    2    3    3    0    0 -0.76459346220E+01  0.17723081272E+02 -0.36673037658E+02  0.90697408541E+02  0.80675524783E+02 0.  0.
          6    2    1    2  501    0 -0.24221777128E+02 -0.37755723363E+01 -0.20521876532E+03  0.26911046961E+03  0.17235067096E+03 0.  0.
         24    2    5    5    0    0 -0.69995912416E+02 -0.41604355672E+02 -0.14319607230E+03  0.18311516300E+03  0.79973105678E+02 0.  0.
          5    1    5    5  501    0  0.45774135288E+02  0.37828783336E+02 -0.62022693020E+02  0.85995306614E+02  0.47000000000E+01 0. -1.
        -11    1    6    6    0    0 -0.11580802625E+02 -0.51288520587E+02 -0.49110323262E+02  0.71947558571E+02  0.00000000000E+00 0.  1.
         12    1    6    6    0    0 -0.58415109792E+02  0.96841649145E+01 -0.94085749039E+02  0.11116760443E+03  0.00000000000E+00 0. -1.
         -5    1    3    3    0  503  0.31867711750E+02 -0.13947508935E+02 -0.20230974461E+03  0.20533243003E+03  0.47000000000E+01 0.  1.
         11    1    4    4    0    0 -0.41519460419E+02  0.23932999612E+02 -0.15964549816E+02  0.50512581747E+02  0.00000000000E+00 0. -1.
        -12    1    4    4    0    0  0.33873525797E+02 -0.62099183400E+01 -0.20708487843E+02  0.40184826794E+02  0.00000000000E+00 0.  1.
<mgrwt>
<rscale>  2 0.17454786E+03</rscale>
<asrwt>0</asrwt>
<pdfrwt beam="1">  1       21 0.93029814E-02 0.17470230E+03</pdfrwt>
<pdfrwt beam="2">  1       21 0.77641683E-01 0.17470230E+03</pdfrwt>
<totfact> 0.13647128E+05</totfact>
</mgrwt>
</event>
<event>
12    1  0.1019868E-001  0.1982033E+03  0.7546771E-02  0.1151386E+00
         21   -1    0    0  501  502  0.00000000000E+00  0.00000000000E+00  0.39583110899E+03  0.39583110899E+03  0.00000000000E+00 0. -1.
         21   -1    0    0  502  503 -0.00000000000E+00 -0.00000000000E+00 -0.99027029623E+02  0.99027029623E+02  0.00000000000E+00 0. -1.
         -6    2    1    2    0  503  0.15817152482E+02 -0.91138197228E+02  0.14176294634E+03  0.24321890548E+03  0.17464921907E+03 0.  0.
        -24    2    3    3    0    0 -0.31746467143E+02 -0.38576264562E+02  0.14253145371E+03  0.17217148975E+03  0.82654946761E+02 0.  0.
          6    2    1    2  501    0 -0.15817152482E+02  0.91138197228E+02  0.15504113303E+03  0.25163923313E+03  0.17529460179E+03 0.  0.
         24    2    5    5    0    0 -0.33299586766E+02  0.18420054652E+02  0.16366686145E+03  0.17620676692E+03  0.53045473681E+02 0.  0.
          5    1    5    5  501    0  0.17482434284E+02  0.72718142576E+02 -0.86257284258E+01  0.75432466214E+02  0.47000000000E+01 0. -1.
        -11    1    6    6    0    0 -0.46917442159E+02  0.13965080945E+02  0.14226678297E+03  0.15045300728E+03  0.00000000000E+00 0.  1.
         12    1    6    6    0    0  0.13617855393E+02  0.44549737069E+01  0.21400078489E+02  0.25753759639E+02  0.00000000000E+00 0. -1.
         -5    1    3    3    0  503  0.47563619625E+02 -0.52561932666E+02 -0.76850737070E+00  0.71047415724E+02  0.47000000000E+01 0.  1.
         13    1    4    4    0    0  0.27060036417E+02 -0.20799052812E+02  0.63275004884E+02  0.71892784143E+02  0.00000000000E+00 0. -1.
        -14    1    4    4    0    0 -0.58806503561E+02 -0.17777211750E+02  0.79256448823E+02  0.10027870561E+03  0.00000000000E+00 0.  1.
<mgrwt>
<rscale>  2 0.19806051E+03</rscale>
<asrwt>0</asrwt>
<pdfrwt beam="1">  1       21 0.60897093E-01 0.19820331E+03</pdfrwt>
<pdfrwt beam="2">  1       21 0.15234928E-01 0.19820331E+03</pdfrwt>
<totfact> 0.95488884E+04</totfact>
</mgrwt>
</event>
<event>
12    1  0.1019868E-001  0.2034014E+03  0.7546771E-02  0.1147031E+00
         21   -1    0    0  503  502  0.00000000000E+00  0.00000000000E+00  0.18856203815E+03  0.18856203815E+03  0.00000000000E+00 0. -1.
         21   -1    0    0  501  503 -0.00000000000E+00 -0.00000000000E+00 -0.25490790546E+03  0.25490790546E+03  0.00000000000E+00 0. -1.
          6    2    1    2  501    0  0.92426790652E+02  0.51463792487E+02  0.50409883120E+02  0.20894053578E+03  0.17298484791E+03 0.  0.
         24    2    3    3    0    0  0.77931829207E+02  0.56881612758E+02 -0.36406787625E+02  0.12063039478E+03  0.62588737695E+02 0.  0.
         -6    2    1    2    0  502 -0.92426790652E+02 -0.51463792487E+02 -0.11675575043E+03  0.23452940782E+03  0.17372652160E+03 0.  0.
        -24    2    5    5    0    0 -0.53287830423E+02 -0.86940099474E+02 -0.12544733439E+03  0.18078873238E+03  0.80928105638E+02 0.  0.
          5    1    3    3  501    0  0.14494961445E+02 -0.54178202706E+01  0.86816670746E+02  0.88310140998E+02  0.47000000000E+01 0. -1.
        -13    1    4    4    0    0  0.77268665024E+02  0.24759124542E+02 -0.35292466278E+02  0.88481743985E+02  0.00000000000E+00 0.  1.
         14    1    4    4    0    0  0.66316418327E+00  0.32122488216E+02 -0.11143213470E+01  0.32148650796E+02  0.00000000000E+00 0. -1.
         -5    1    5    5    0  502 -0.39138960228E+02  0.35476306987E+02  0.86915839602E+01  0.53740675441E+02  0.47000000000E+01 0.  1.
         11    1    6    6    0    0 -0.13564387377E+02 -0.87678105862E+02 -0.99627031599E+02  0.13340535326E+03  0.00000000000E+00 0. -1.
        -12    1    6    6    0    0 -0.39723443046E+02  0.73800638820E+00 -0.25820302793E+02  0.47383379124E+02  0.00000000000E+00 0.  1.
<mgrwt>
<rscale>  2 0.20324296E+03</rscale>
<asrwt>0</asrwt>
<pdfrwt beam="1">  1       21 0.29009544E-01 0.20340142E+03</pdfrwt>
<pdfrwt beam="2">  1       21 0.39216601E-01 0.20340142E+03</pdfrwt>
<totfact> 0.70969477E+04</totfact>
</mgrwt>
</event>
<event>
12    1  0.1019868E-001  0.1862296E+03  0.7546771E-02  0.1162188E+00
         21   -1    0    0  503  502  0.00000000000E+00  0.00000000000E+00  0.74238716674E+02  0.74238716674E+02  0.00000000000E+00 0. -1.
         21   -1    0    0  501  503 -0.00000000000E+00 -0.00000000000E+00 -0.73415149457E+03  0.73415149457E+03  0.00000000000E+00 0. -1.
          6    2    1    2  501    0  0.34369788710E+02  0.61371121159E+02 -0.57576843735E+03  0.60513695997E+03  0.17243477022E+03 0.  0.
         24    2    3    3    0    0  0.78304038228E+02  0.44002486389E+01 -0.31739932223E+03  0.33689716381E+03  0.81280284439E+02 0.  0.
         -6    2    1    2    0  502 -0.34369788710E+02 -0.61371121159E+02 -0.84144340550E+02  0.20325325128E+03  0.17112544294E+03 0.  0.
        -24    2    5    5    0    0 -0.62259230318E+01  0.31144117553E+02 -0.24689660986E+02  0.89639451540E+02  0.80105765942E+02 0.  0.
          5    1    3    3  501    0 -0.43934249517E+02  0.56970872520E+02 -0.25836911512E+03  0.26823979616E+03  0.47000000000E+01 0. -1.
        -11    1    4    4    0    0 -0.15320101552E+02  0.10135076361E+01 -0.84101106377E+02  0.85491103649E+02  0.00000000000E+00 0.  1.
         12    1    4    4    0    0  0.93624139780E+02  0.33867410028E+01 -0.23329821585E+03  0.25140606016E+03  0.00000000000E+00 0. -1.
         -5    1    5    5    0  502 -0.28143865679E+02 -0.92515238712E+02 -0.59454679563E+02  0.11361379974E+03  0.47000000000E+01 0.  1.
         13    1    6    6    0    0  0.19467917700E+02  0.48415823847E+02 -0.38614647587E+01  0.52325927879E+02  0.00000000000E+00 0. -1.
        -14    1    6    6    0    0 -0.25693840732E+02 -0.17271706294E+02 -0.20828196228E+02  0.37313523661E+02  0.00000000000E+00 0.  1.
<mgrwt>
<rscale>  2 0.18592589E+03</rscale>
<asrwt>0</asrwt>
<pdfrwt beam="1">  1       21 0.11421341E-01 0.18622955E+03</pdfrwt>
<pdfrwt beam="2">  1       21 0.11294638E+00 0.18622955E+03</pdfrwt>
<totfact> 0.39398585E+04</totfact>
</mgrwt>
</event>
<event>
12    1  0.1019868E-001  0.1889084E+03  0.7546771E-02  0.1160799E+00
         21   -1    0    0  501  502  0.00000000000E+00  0.00000000000E+00  0.70846962879E+03  0.70846962879E+03  0.00000000000E+00 0.  1.
         21   -1    0    0  502  503 -0.00000000000E+00 -0.00000000000E+00 -0.49447890538E+02  0.49447890538E+02  0.00000000000E+00 0. -1.
         -6    2    1    2    0  503  0.61719012513E+02  0.73034528583E+00  0.37711942622E+03  0.42178837778E+03  0.17854020300E+03 0.  0.
        -24    2    3    3    0    0  0.34520193421E+02  0.80784430403E+00  0.69601586645E+02  0.11303427915E+03  0.82097935616E+02 0.  0.
          6    2    1    2  501    0 -0.61719012513E+02 -0.73034528583E+00  0.28190231203E+03  0.33612914155E+03  0.17234882175E+03 0.  0.
         24    2    5    5    0    0 -0.52513990625E+02  0.28564325429E+02  0.74266047275E+02  0.12618196104E+03  0.82660762251E+02 0.  0.
          5    1    5    5  501    0 -0.92050218880E+01 -0.29294670715E+02  0.20763626476E+03  0.20994718051E+03  0.47000000000E+01 0. -1.
        -13    1    6    6    0    0 -0.21287568843E+02  0.26091243810E+02  0.86291296091E+02  0.92628836610E+02  0.00000000000E+00 0.  1.
         14    1    6    6    0    0 -0.31226421782E+02  0.24730816188E+01 -0.12025248816E+02  0.33553124431E+02  0.00000000000E+00 0. -1.
         -5    1    3    3    0  503  0.27198819092E+02 -0.77499018199E-01  0.30751783957E+03  0.30875409863E+03  0.47000000000E+01 0.  1.
         11    1    4    4    0    0 -0.26301050089E+02 -0.29053208701E+01  0.31622116071E+02  0.41232806719E+02  0.00000000000E+00 0. -1.
        -12    1    4    4    0    0  0.60821243510E+02  0.37131651741E+01  0.37979470574E+02  0.71801472428E+02  0.00000000000E+00 0.  1.
<mgrwt>
<rscale>  2 0.18743104E+03</rscale>
<asrwt>0</asrwt>
<pdfrwt beam="1">  1       21 0.10899532E+00 0.18890837E+03</pdfrwt>
<pdfrwt beam="2">  1       21 0.76073683E-02 0.18890837E+03</pdfrwt>
<totfact> 0.87600928E+04</totfact>
</mgrwt>
</event>
<event>
12    1  0.1019868E-001  0.1802364E+03  0.7546771E-02  0.1168555E+00
         21   -1    0    0  503  502  0.00000000000E+00  0.00000000000E+00  0.28876522622E+02  0.28876522622E+02  0.00000000000E+00 0.  1.
         21   -1    0    0  501  503 -0.00000000000E+00 -0.00000000000E+00 -0.16674877337E+04  0.16674877337E+04  0.00000000000E+00 0.  1.
          6    2    1    2  501    0 -0.11289867393E+02 -0.70267687660E+01 -0.13079779852E+04  0.13197962152E+04  0.17572365547E+03 0.  0.
         24    2    3    3    0    0 -0.71421766952E+02  0.17116071286E+02 -0.70687141522E+03  0.71518897025E+03  0.80212448085E+02 0.  0.
         -6    2    1    2    0  502  0.11289867393E+02  0.70267687660E+01 -0.33063322583E+03  0.37656804116E+03  0.17974516130E+03 0.  0.
        -24    2    5    5    0    0 -0.59605698295E+02  0.33917399422E+02 -0.17946797187E+03  0.20738674415E+03  0.78085078405E+02 0.  0.
          5    1    3    3  501    0  0.60131899559E+02 -0.24142840052E+02 -0.60110657002E+03  0.60460724491E+03  0.47000000000E+01 0. -1.
        -11    1    4    4    0    0  0.70956533204E+01  0.43425040511E+01 -0.32564594151E+03  0.32575218320E+03  0.00000000000E+00 0.  1.
         12    1    4    4    0    0 -0.78517420272E+02  0.12773567235E+02 -0.38122547371E+03  0.38943678706E+03  0.00000000000E+00 0. -1.
         -5    1    5    5    0  502  0.70895565688E+02 -0.26890630656E+02 -0.15116525396E+03  0.16918129700E+03  0.47000000000E+01 0.  1.
         11    1    6    6    0    0 -0.27328883488E+02  0.30789766511E+02 -0.22126252607E+02  0.46738085636E+02  0.00000000000E+00 0. -1.
        -12    1    6    6    0    0 -0.32276814807E+02  0.31276329105E+01 -0.15734171927E+03  0.16064865852E+03  0.00000000000E+00 0.  1.
<mgrwt>
<rscale>  2 0.17922535E+03</rscale>
<asrwt>0</asrwt>
<pdfrwt beam="1">  1       21 0.44425405E-02 0.18023640E+03</pdfrwt>
<pdfrwt beam="2">  1       21 0.25653666E+00 0.18023640E+03</pdfrwt>
<totfact> 0.20224750E+04</totfact>
</mgrwt>
</event>
<event>
12    1  0.1019868E-001  0.1759625E+03  0.7546771E-02  0.1173268E+00
         21   -1    0    0  503  502  0.00000000000E+00  0.00000000000E+00  0.10574712902E+04  0.10574712902E+04  0.00000000000E+00 0. -1.
         21   -1    0    0  501  503 -0.00000000000E+00 -0.00000000000E+00 -0.47535206094E+02  0.47535206094E+02  0.00000000000E+00 0. -1.
          6    2    1    2  501    0  0.33682959448E+02  0.36037387340E+01  0.15872118518E+03  0.23697091528E+03  0.17267099169E+03 0.  0.
         24    2    3    3    0    0  0.53782204166E+02  0.53198147503E+02  0.14313856984E+03  0.18103798294E+03  0.81015632484E+02 0.  0.
         -6    2    1    2    0  502 -0.33682959448E+02 -0.36037387340E+01  0.85121489895E+03  0.86803558104E+03  0.16664764347E+03 0.  0.
        -24    2    5    5    0    0 -0.32611357045E+02  0.57076080807E+02  0.64851092285E+03  0.65638922328E+03  0.77195956916E+02 0.  0.
          5    1    3    3  501    0 -0.20099244718E+02 -0.49594408769E+02  0.15582615343E+02  0.55932932342E+02  0.47000000000E+01 0. -1.
        -13    1    4    4    0    0  0.62747905201E+02  0.16437219720E+02  0.54720026059E+02  0.84863201985E+02  0.00000000000E+00 0.  1.
         14    1    4    4    0    0 -0.89657010348E+01  0.36760927783E+02  0.88418543783E+02  0.96174780952E+02  0.00000000000E+00 0. -1.
         -5    1    5    5    0  502 -0.10716024029E+01 -0.60679819541E+02  0.20270397609E+03  0.21164635777E+03  0.47000000000E+01 0.  1.
         11    1    6    6    0    0  0.20361286246E+02  0.11427740704E+01  0.22554083962E+03  0.22646094198E+03  0.00000000000E+00 0. -1.
        -12    1    6    6    0    0 -0.52972643291E+02  0.55933306737E+02  0.42297008324E+03  0.42992828129E+03  0.00000000000E+00 0.  1.
<mgrwt>
<rscale>  2 0.17446685E+03</rscale>
<asrwt>0</asrwt>
<pdfrwt beam="1">  1       21 0.16268787E+00 0.17596250E+03</pdfrwt>
<pdfrwt beam="2">  1       21 0.73131094E-02 0.17596250E+03</pdfrwt>
<totfact> 0.34103575E+04</totfact>
</mgrwt>
</event>
<event>
12    1  0.1019868E-001  0.1986118E+03  0.7546771E-02  0.1151063E+00
         21   -1    0    0  503  502  0.00000000000E+00  0.00000000000E+00  0.81491927428E+03  0.81491927428E+03  0.00000000000E+00 0.  1.
         21   -1    0    0  501  503 -0.00000000000E+00 -0.00000000000E+00 -0.68608012814E+02  0.68608012814E+02  0.00000000000E+00 0.  1.
          6    2    1    2  501    0  0.92283193993E+02  0.25935483859E+02  0.13289616933E+03  0.23897285474E+03  0.17394768255E+03 0.  0.
         24    2    3    3    0    0  0.12696587878E+03  0.97090707830E+01  0.70631111106E+02  0.16572524331E+03  0.79129652995E+02 0.  0.
         -6    2    1    2    0  502 -0.92283193993E+02 -0.25935483859E+02  0.61341509213E+03  0.64455443235E+03  0.17315745374E+03 0.  0.
        -24    2    5    5    0    0  0.23481640000E+02 -0.15946515082E+02  0.25447196206E+03  0.26724350365E+03  0.76533861850E+02 0.  0.
          5    1    3    3  501    0 -0.34682684788E+02  0.16226413076E+02  0.62265058222E+02  0.73247611434E+02  0.47000000000E+01 0. -1.
        -11    1    4    4    0    0  0.89706810731E+02 -0.43728312633E+01  0.62650198222E+01  0.90031572341E+02  0.00000000000E+00 0.  1.
         12    1    4    4    0    0  0.37259068050E+02  0.14081902046E+02  0.64366091284E+02  0.75693670966E+02  0.00000000000E+00 0. -1.
         -5    1    5    5    0  502 -0.11576483399E+03 -0.99889687778E+01  0.35894313008E+03  0.37731092870E+03  0.47000000000E+01 0.  1.
         11    1    6    6    0    0  0.27324618981E+02 -0.41910484830E+02  0.11636604064E+03  0.12666561868E+03  0.00000000000E+00 0. -1.
        -12    1    6    6    0    0 -0.38429789811E+01  0.25963969748E+02  0.13810592141E+03  0.14057788497E+03  0.00000000000E+00 0.  1.
<mgrwt>
<rscale>  2 0.19843861E+03</rscale>
<asrwt>0</asrwt>
<pdfrwt beam="1">  1       21 0.12537219E+00 0.19861177E+03</pdfrwt>
<pdfrwt beam="2">  1       21 0.10555079E-01 0.19861177E+03</pdfrwt>
<totfact> 0.34797404E+04</totfact>
</mgrwt>
</event>
<event>
12    1  0.1019868E-001  0.2552524E+03  0.7546771E-02  0.1110717E+00
         21   -1    0    0  503  502  0.00000000000E+00  0.00000000000E+00  0.29629658999E+03  0.29629658999E+03  0.00000000000E+00 0.  1.
         21   -1    0    0  501  503 -0.00000000000E+00 -0.00000000000E+00 -0.36575461383E+03  0.36575461383E+03  0.00000000000E+00 0. -1.
          6    2    1    2  501    0 -0.94770727808E+02  0.16210363790E+03 -0.24664853643E+03  0.35494971267E+03  0.17290088991E+03 0.  0.
         24    2    3    3    0    0 -0.10419921786E+03  0.53148924517E+02 -0.16350579433E+03  0.21749124055E+03  0.82981984535E+02 0.  0.
         -6    2    1    2    0  502  0.94770727808E+02 -0.16210363790E+03  0.17719051258E+03  0.30710149115E+03  0.16630023406E+03 0.  0.
        -24    2    5    5    0    0  0.77638912557E+02 -0.13347076597E+03  0.59348140336E+02  0.18453618144E+03  0.81787250758E+02 0.  0.
          5    1    3    3  501    0  0.94284900569E+01  0.10895471338E+03 -0.83142742102E+02  0.13745847212E+03  0.47000000000E+01 0. -1.
        -11    1    4    4    0    0 -0.19382014219E+02 -0.19686266829E+02 -0.14478814859E+02  0.31190505872E+02  0.00000000000E+00 0.  1.
         12    1    4    4    0    0 -0.84817203646E+02  0.72835191346E+02 -0.14902697947E+03  0.18630073468E+03  0.00000000000E+00 0. -1.
         -5    1    5    5    0  502  0.17131815251E+02 -0.28632871927E+02  0.11784237225E+03  0.12256530971E+03  0.47000000000E+01 0.  1.
         11    1    6    6    0    0  0.88168978131E+02 -0.78555799113E+02  0.32320481608E+02  0.12243118806E+03  0.00000000000E+00 0. -1.
        -12    1    6    6    0    0 -0.10530065573E+02 -0.54914966856E+02  0.27027658728E+02  0.62104993375E+02  0.00000000000E+00 0.  1.
<mgrwt>
<rscale>  2 0.25413913E+03</rscale>
<asrwt>0</asrwt>
<pdfrwt beam="1">  1       21 0.45584091E-01 0.25525242E+03</pdfrwt>
<pdfrwt beam="2">  1       21 0.56269941E-01 0.25525242E+03</pdfrwt>
<totfact> 0.13221498E+04</totfact>
</mgrwt>
</event>
<event>
12    1  0.1019868E-001  0.1839432E+03  0.7546771E-02  0.1166379E+00
         21   -1    0    0  501  502  0.00000000000E+00  0.00000000000E+00  0.19531372203E+03  0.19531372203E+03  0.00000000000E+00 0. -1.
         21   -1    0    0  502  503 -0.00000000000E+00 -0.00000000000E+00 -0.23804067803E+03  0.23804067803E+03  0.00000000000E+00 0. -1.
         -6    2    1    2    0  503  0.22552811030E+02  0.55929042573E+02 -0.14157012803E+03  0.22453612976E+03  0.16351662095E+03 0.  0.
        -24    2    3    3    0    0  0.63554950456E+02  0.68705623259E+02 -0.13977811141E+03  0.18129589647E+03  0.67606118445E+02 0.  0.
          6    2    1    2  501    0 -0.22552811030E+02 -0.55929042573E+02  0.98843172039E+02  0.20881827030E+03  0.17377689796E+03 0.  0.
         24    2    5    5    0    0  0.23763549681E+02 -0.92237248183E+02  0.67115578506E+02  0.14179423539E+03  0.80800297436E+02 0.  0.
          5    1    5    5  501    0 -0.46316360712E+02  0.36308205610E+02  0.31727593533E+02  0.67024034910E+02  0.47000000000E+01 0. -1.
        -11    1    6    6    0    0 -0.13998378554E+02 -0.41138121840E+02 -0.71702462696E+01  0.44042162779E+02  0.00000000000E+00 0.  1.
         12    1    6    6    0    0  0.37761928236E+02 -0.51099126343E+02  0.74285824776E+02  0.97752072611E+02  0.00000000000E+00 0. -1.
         -5    1    3    3    0  503 -0.41002139425E+02 -0.12776580686E+02 -0.17920166186E+01  0.43240233291E+02  0.47000000000E+01 0.  1.
         11    1    4    4    0    0  0.33990063924E+02  0.70565213136E+02 -0.68296437780E+02  0.10391908951E+03  0.00000000000E+00 0. -1.
        -12    1    4    4    0    0  0.29564886531E+02 -0.18595898776E+01 -0.71481673633E+02  0.77376806961E+02  0.00000000000E+00 0.  1.
<mgrwt>
<rscale>  2 0.18147893E+03</rscale>
<asrwt>0</asrwt>
<pdfrwt beam="1">  1       21 0.30048265E-01 0.18394319E+03</pdfrwt>
<pdfrwt beam="2">  1       21 0.36621642E-01 0.18394319E+03</pdfrwt>
<totfact> 0.76661868E+04</totfact>
</mgrwt>
</event>
<event>
12    1  0.1019868E-001  0.3181714E+03  0.7546771E-02  0.1076605E+00
         21   -1    0    0  501  502  0.00000000000E+00  0.00000000000E+00  0.25568055155E+03  0.25568055155E+03  0.00000000000E+00 0. -1.
         21   -1    0    0  502  503 -0.00000000000E+00 -0.00000000000E+00 -0.40360946379E+03  0.40360946379E+03  0.00000000000E+00 0.  1.
         -6    2    1    2    0  503 -0.20234845509E+03 -0.17261596933E+03 -0.12293291381E+03  0.34109464112E+03  0.17461925083E+03 0.  0.
        -24    2    3    3    0    0 -0.19820252006E+03 -0.16888515901E+03 -0.15155958987E+03  0.31155341052E+03  0.79301843828E+02 0.  0.
          6    2    1    2  501    0  0.20234845509E+03  0.17261596933E+03 -0.24995998432E+02  0.31819537422E+03  0.17286505169E+03 0.  0.
         24    2    5    5    0    0  0.10801911791E+03  0.93528971027E+02 -0.64099177076E+02  0.18895170616E+03  0.10572721743E+03 0.  0.
          5    1    5    5  501    0  0.94329337177E+02  0.79086998301E+02  0.39103178644E+02  0.12924366806E+03  0.47000000000E+01 0. -1.
        -13    1    6    6    0    0  0.12714954191E+03  0.79130906692E+02 -0.40069962534E+02  0.15503002386E+03  0.00000000000E+00 0.  1.
         14    1    6    6    0    0 -0.19130423995E+02  0.14398064334E+02 -0.24029214542E+02  0.33921682304E+02  0.00000000000E+00 0. -1.
         -5    1    3    3    0  503 -0.41459350259E+01 -0.37308103193E+01  0.28626676063E+02  0.29541230599E+02  0.47000000000E+01 0.  1.
         11    1    4    4    0    0 -0.12720284880E+03 -0.97194452330E+02 -0.48372551691E+02  0.16723405773E+03  0.00000000000E+00 0. -1.
        -12    1    4    4    0    0 -0.70999671261E+02 -0.71690706678E+02 -0.10318703818E+03  0.14431935280E+03  0.00000000000E+00 0.  1.
<mgrwt>
<rscale>  2 0.31793131E+03</rscale>
<asrwt>0</asrwt>
<pdfrwt beam="1">  1       21 0.39335470E-01 0.31817142E+03</pdfrwt>
<pdfrwt beam="2">  1       21 0.62093764E-01 0.31817142E+03</pdfrwt>
<totfact> 0.14063525E+04</totfact>
</mgrwt>
</event>
<event>
12    1  0.1019868E-001  0.1840856E+03  0.7546771E-02  0.1165604E+00
         21   -1    0    0  501  502  0.00000000000E+00  0.00000000000E+00  0.34233273173E+03  0.34233273173E+03  0.00000000000E+00 0. -1.
         21   -1    0    0  502  503 -0.00000000000E+00 -0.00000000000E+00 -0.95231273162E+02  0.95231273162E+02  0.00000000000E+00 0. -1.
         -6    2    1    2    0  503 -0.28867199128E+02  0.25769174203E+02  0.12797342594E+03  0.22419793722E+03  0.17997264176E+03 0.  0.
        -24    2    3    3    0    0 -0.17060719385E+02 -0.42817423209E+02  0.19116462999E+02  0.94909721631E+02  0.80734232060E+02 0.  0.
          6    2    1    2  501    0  0.28867199128E+02 -0.25769174203E+02  0.11912803263E+03  0.21336606768E+03  0.17273165649E+03 0.  0.
         24    2    5    5    0    0  0.70993514280E+01 -0.82841350295E+02  0.75966292450E+02  0.13842543589E+03  0.80483747449E+02 0.  0.
          5    1    5    5  501    0  0.21767847700E+02  0.57072176091E+02  0.43161740178E+02  0.74940631786E+02  0.47000000000E+01 0. -1.
        -11    1    6    6    0    0 -0.30833908957E+02 -0.40331914019E+02  0.10871002694E+02  0.51918897615E+02  0.00000000000E+00 0.  1.
         12    1    6    6    0    0  0.37933260385E+02 -0.42509436275E+02  0.65095289756E+02  0.86506538274E+02  0.00000000000E+00 0. -1.
         -5    1    3    3    0  503 -0.11806479743E+02  0.68586597413E+02  0.10885696294E+03  0.12928821559E+03  0.47000000000E+01 0.  1.
         13    1    4    4    0    0 -0.48880824915E+02 -0.26144347650E+02  0.20120551534E+02  0.58972014994E+02  0.00000000000E+00 0. -1.
        -14    1    4    4    0    0  0.31820105530E+02 -0.16673075559E+02 -0.10040885352E+01  0.35937706637E+02  0.00000000000E+00 0.  1.
<mgrwt>
<rscale>  2 0.18229140E+03</rscale>
<asrwt>0</asrwt>
<pdfrwt beam="1">  1       21 0.52666574E-01 0.18408562E+03</pdfrwt>
<pdfrwt beam="2">  1       21 0.14650965E-01 0.18408562E+03</pdfrwt>
<totfact> 0.14034031E+05</totfact>
</mgrwt>
</event>
<event>
12    1  0.1019868E-001  0.2096896E+03  0.7546771E-02  0.1142063E+00
         21   -1    0    0  501  502  0.00000000000E+00  0.00000000000E+00  0.13372763473E+03  0.13372763473E+03  0.00000000000E+00 0.  1.
         21   -1    0    0  502  503 -0.00000000000E+00 -0.00000000000E+00 -0.48652439066E+03  0.48652439066E+03  0.00000000000E+00 0.  1.
         -6    2    1    2    0  503 -0.10641545903E+03 -0.48919675176E+02  0.92338645820E+00  0.20969167412E+03  0.17393205861E+03 0.  0.
        -24    2    3    3    0    0 -0.74108819016E+01  0.12426118425E+02  0.22297369819E+02  0.91183658147E+02  0.87223604732E+02 0.  0.
          6    2    1    2  501    0  0.10641545903E+03  0.48919675176E+02 -0.35372014238E+03  0.41056035127E+03  0.17240788371E+03 0.  0.
         24    2    5    5    0    0  0.28375860701E+02  0.65778154215E+02 -0.10232607585E+03  0.14675084820E+03  0.77027466567E+02 0.  0.
          5    1    5    5  501    0  0.78039598330E+02 -0.16858479039E+02 -0.25139406653E+03  0.26380950307E+03  0.47000000000E+01 0. -1.
        -13    1    6    6    0    0  0.10999089130E+02  0.17562309920E+02 -0.92210908512E+02  0.94510667863E+02  0.00000000000E+00 0.  1.
         14    1    6    6    0    0  0.17376771571E+02  0.48215844296E+02 -0.10115167342E+02  0.52240180338E+02  0.00000000000E+00 0. -1.
         -5    1    3    3    0  503 -0.99004577129E+02 -0.61345793601E+02 -0.21373983361E+02  0.11850801597E+03  0.47000000000E+01 0.  1.
         13    1    4    4    0    0  0.21042690461E+02 -0.26319443605E+02  0.26585159697E+02  0.42921773608E+02  0.00000000000E+00 0. -1.
        -14    1    4    4    0    0 -0.28453572363E+02  0.38745562030E+02 -0.42877898785E+01  0.48261884539E+02  0.00000000000E+00 0.  1.
<mgrwt>
<rscale>  2 0.20937329E+03</rscale>
<asrwt>0</asrwt>
<pdfrwt beam="1">  1       21 0.20573482E-01 0.20968964E+03</pdfrwt>
<pdfrwt beam="2">  1       21 0.74849906E-01 0.20968964E+03</pdfrwt>
<totfact> 0.34648574E+04</totfact>
</mgrwt>
</event>
<event>
12    1  0.1019868E-001  0.2048448E+03  0.7546771E-02  0.1146037E+00
         21   -1    0    0  501  502  0.00000000000E+00  0.00000000000E+00  0.16548191944E+04  0.16548191944E+04  0.00000000000E+00 0.  1.
         21   -1    0    0  502  503 -0.00000000000E+00 -0.00000000000E+00 -0.31048926487E+02  0.31048926487E+02  0.00000000000E+00 0.  1.
         -6    2    1    2    0  503 -0.13048787796E+02 -0.10511697235E+03  0.44741494488E+03  0.49207877793E+03  0.17533266111E+03 0.  0.
        -24    2    3    3    0    0 -0.19333683567E+02 -0.62347127524E+01  0.98018488150E+02  0.12887473727E+03  0.81169026875E+02 0.  0.
          6    2    1    2  501    0  0.13048787796E+02  0.10511697235E+03  0.11763553231E+04  0.11937893430E+04  0.17349726390E+03 0.  0.
         24    2    5    5    0    0  0.22430189406E+02  0.13889088437E+02  0.87310185543E+03  0.87693718008E+03  0.77562540512E+02 0.  0.
          5    1    5    5  501    0 -0.93814016099E+01  0.91227883917E+02  0.30325346763E+03  0.31685216289E+03  0.47000000000E+01 0. -1.
        -11    1    6    6    0    0 -0.20044922359E+02  0.28686514478E+01  0.59923709069E+03  0.59957911816E+03  0.00000000000E+00 0.  1.
         12    1    6    6    0    0  0.42475111765E+02  0.11020436989E+02  0.27386476474E+03  0.27735806193E+03  0.00000000000E+00 0. -1.
         -5    1    3    3    0  503  0.62848957712E+01 -0.98882259601E+02  0.34939645673E+03  0.36320404066E+03  0.47000000000E+01 0.  1.
         11    1    4    4    0    0 -0.39633029553E+02 -0.21983511310E+02  0.91894286793E+02  0.10246273345E+03  0.00000000000E+00 0. -1.
        -12    1    4    4    0    0  0.20299345986E+02  0.15748798557E+02  0.61242013564E+01  0.26412003818E+02  0.00000000000E+00 0.  1.
<mgrwt>
<rscale>  2 0.20445148E+03</rscale>
<asrwt>0</asrwt>
<pdfrwt beam="1">  1       21 0.25458750E+00 0.20484480E+03</pdfrwt>
<pdfrwt beam="2">  1       21 0.47767592E-02 0.20484480E+03</pdfrwt>
<totfact> 0.17968434E+04</totfact>
</mgrwt>
</event>
<event>
12    1  0.1019868E-001  0.1814010E+03  0.7546771E-02  0.1166694E+00
         21   -1    0    0  503  502  0.00000000000E+00  0.00000000000E+00  0.19358262247E+03  0.19358262247E+03  0.00000000000E+00 0. -1.
         21   -1    0    0  501  503 -0.00000000000E+00 -0.00000000000E+00 -0.29441214984E+03  0.29441214984E+03  0.00000000000E+00 0. -1.
          6    2    1    2  501    0  0.50160587203E+02  0.22616857897E+01 -0.20955166461E+03  0.27650755548E+03  0.17327241085E+03 0.  0.
         24    2    3    3    0    0 -0.36351691517E+02  0.12058028128E+02 -0.81274169922E+02  0.12140259638E+03  0.81647156667E+02 0.  0.
         -6    2    1    2    0  502 -0.50160587203E+02 -0.22616857897E+01  0.10872213725E+03  0.21148721683E+03  0.17431333863E+03 0.  0.
        -24    2    5    5    0    0  0.18754460781E+02 -0.17385869836E+02  0.21560225731E+02  0.99249462036E+02  0.93443106283E+02 0.  0.
          5    1    3    3  501    0  0.86512278721E+02 -0.97963423386E+01 -0.12827749469E+03  0.15510495910E+03  0.47000000000E+01 0. -1.
        -13    1    4    4    0    0 -0.48115644051E+01  0.17779801130E+02  0.12527006946E+02  0.22275510842E+02  0.00000000000E+00 0.  1.
         14    1    4    4    0    0 -0.31540127112E+02 -0.57217730015E+01 -0.93801176868E+02  0.99127085534E+02  0.00000000000E+00 0. -1.
         -5    1    5    5    0  502 -0.68915047985E+02  0.15124184046E+02  0.87161911515E+02  0.11223775479E+03  0.47000000000E+01 0.  1.
         13    1    6    6    0    0 -0.14474834536E+02  0.22924591752E+02 -0.19003854726E+02  0.33108975162E+02  0.00000000000E+00 0. -1.
        -14    1    6    6    0    0  0.33229295317E+02 -0.40310461588E+02  0.40564080456E+02  0.66140486874E+02  0.00000000000E+00 0.  1.
<mgrwt>
<rscale>  2 0.18115052E+03</rscale>
<asrwt>0</asrwt>
<pdfrwt beam="1">  1       21 0.29781942E-01 0.18140105E+03</pdfrwt>
<pdfrwt beam="2">  1       21 0.45294177E-01 0.18140105E+03</pdfrwt>
<totfact> 0.50803973E+04</totfact>
</mgrwt>
</event>
<event>
12    1  0.1019868E-001  0.2137236E+03  0.7546771E-02  0.1138873E+00
         21   -1    0    0  503  502  0.00000000000E+00  0.00000000000E+00  0.64272193035E+02  0.64272193035E+02  0.00000000000E+00 0. -1.
         21   -1    0    0  501  503 -0.00000000000E+00 -0.00000000000E+00 -0.76320648354E+03  0.76320648354E+03  0.00000000000E+00 0. -1.
          6    2    1    2  501    0 -0.10936091697E+03 -0.56923152620E+02 -0.46098317068E+03  0.50763726739E+03  0.17317637287E+03 0.  0.
         24    2    3    3    0    0 -0.46288833960E+02 -0.93643800611E+02 -0.24636225545E+03  0.28089794371E+03  0.85425267509E+02 0.  0.
         -6    2    1    2    0  502  0.10936091697E+03  0.56923152620E+02 -0.23795111982E+03  0.31984140918E+03  0.17457873909E+03 0.  0.
        -24    2    5    5    0    0  0.36949758454E+02  0.29913846393E+02 -0.30849540740E+02  0.98739549045E+02  0.80855930678E+02 0.  0.
          5    1    3    3  501    0 -0.63072083013E+02  0.36720647990E+02 -0.21462091524E+03  0.22673932368E+03  0.47000000000E+01 0. -1.
        -13    1    4    4    0    0 -0.12276375087E+02 -0.74755625510E+02 -0.80529765276E+02  0.11056290529E+03  0.00000000000E+00 0.  1.
         14    1    4    4    0    0 -0.34012458872E+02 -0.18888175101E+02 -0.16583249017E+03  0.17033503842E+03  0.00000000000E+00 0. -1.
         -5    1    5    5    0  502  0.72411158519E+02  0.27009306227E+02 -0.20710157908E+03  0.22110186014E+03  0.47000000000E+01 0.  1.
         13    1    6    6    0    0  0.43952726419E+02 -0.13803501352E+02 -0.24398209303E+01  0.46133843709E+02  0.00000000000E+00 0. -1.
        -14    1    6    6    0    0 -0.70029679646E+01  0.43717347745E+02 -0.28409719810E+02  0.52605705336E+02  0.00000000000E+00 0.  1.
<mgrwt>
<rscale>  2 0.21343706E+03</rscale>
<asrwt>0</asrwt>
<pdfrwt beam="1">  1       21 0.98880297E-02 0.21372363E+03</pdfrwt>
<pdfrwt beam="2">  1       21 0.11741638E+00 0.21372363E+03</pdfrwt>
<totfact> 0.45611792E+04</totfact>
</mgrwt>
</event>
<event>
12    1  0.1019868E-001  0.2240735E+03  0.7546771E-02  0.1130932E+00
         21   -1    0    0  501  502  0.00000000000E+00  0.00000000000E+00  0.50993320557E+02  0.50993320557E+02  0.00000000000E+00 0. -1.
         21   -1    0    0  502  503 -0.00000000000E+00 -0.00000000000E+00 -0.10677483561E+04  0.10677483561E+04  0.00000000000E+00 0.  1.
         -6    2    1    2    0  503 -0.66048696866E+02  0.12566585760E+03 -0.66529845201E+03  0.70193159514E+03  0.17300750240E+03 0.  0.
        -24    2    3    3    0    0 -0.51935991329E+02  0.56704955943E+02 -0.18223181084E+03  0.21374080843E+03  0.81017905944E+02 0.  0.
          6    2    1    2  501    0  0.66048696866E+02 -0.12566585760E+03 -0.35145658358E+03  0.41681008156E+03  0.17336255601E+03 0.  0.
         24    2    5    5    0    0  0.47068180449E+02 -0.72178944831E+02 -0.33805492678E+03  0.35830534461E+03  0.81709073979E+02 0.  0.
          5    1    5    5  501    0  0.18980516417E+02 -0.53486912768E+02 -0.13401656803E+02  0.58504736954E+02  0.47000000000E+01 0. -1.
        -13    1    6    6    0    0 -0.14843661623E+01 -0.67863948720E+02 -0.16247097441E+03  0.17608105067E+03  0.00000000000E+00 0.  1.
         14    1    6    6    0    0  0.48552546611E+02 -0.43149961118E+01 -0.17558395237E+03  0.18222429394E+03  0.00000000000E+00 0. -1.
         -5    1    3    3    0  503 -0.14112705537E+02  0.68960901657E+02 -0.48306664117E+03  0.48819078671E+03  0.47000000000E+01 0.  1.
         11    1    4    4    0    0  0.58004252403E+01  0.53206662544E+02 -0.79338300738E+02  0.95703499601E+02  0.00000000000E+00 0. -1.
        -12    1    4    4    0    0 -0.57736416570E+02  0.34982933994E+01 -0.10289351010E+03  0.11803730883E+03  0.00000000000E+00 0.  1.
<mgrwt>
<rscale>  2 0.22400478E+03</rscale>
<asrwt>0</asrwt>
<pdfrwt beam="1">  1       21 0.78451268E-02 0.22407346E+03</pdfrwt>
<pdfrwt beam="2">  1       21 0.16426897E+00 0.22407346E+03</pdfrwt>
<totfact> 0.28528055E+04</totfact>
</mgrwt>
</event>
<event>
12    1  0.1019868E-001  0.1836197E+03  0.7546771E-02  0.1165279E+00
         21   -1    0    0  503  502  0.00000000000E+00  0.00000000000E+00  0.20282121561E+03  0.20282121561E+03  0.00000000000E+00 0.  1.
         21   -1    0    0  501  503 -0.00000000000E+00 -0.00000000000E+00 -0.17371652203E+03  0.17371652203E+03  0.00000000000E+00 0.  1.
          6    2    1    2  501    0  0.26347627200E+02  0.58059106892E+02  0.61794923459E+02  0.19003075841E+03  0.16801196155E+03 0.  0.
         24    2    3    3    0    0  0.43365948839E+02  0.41170081328E+02 -0.20210500799E+02  0.10446299542E+03  0.83237443216E+02 0.  0.
         -6    2    1    2    0  502 -0.26347627200E+02 -0.58059106892E+02 -0.32690229873E+02  0.18650697923E+03  0.17219507780E+03 0.  0.
        -24    2    5    5    0    0  0.16611014194E+02 -0.95903512072E+02 -0.22764334474E+02  0.12821240595E+03  0.80291946643E+02 0.  0.
          5    1    3    3  501    0 -0.17018321640E+02  0.16889025563E+02  0.82005424258E+02  0.85567762994E+02  0.47000000000E+01 0. -1.
        -13    1    4    4    0    0  0.37815862757E+01 -0.24200750697E+02 -0.12923696180E+02  0.27694740512E+02  0.00000000000E+00 0.  1.
         14    1    4    4    0    0  0.39584362564E+02  0.65370832026E+02 -0.72868046189E+01  0.76768254903E+02  0.00000000000E+00 0. -1.
         -5    1    5    5    0  502 -0.42958641394E+02  0.37844405180E+02 -0.99258953993E+01  0.58294573275E+02  0.47000000000E+01 0.  1.
         13    1    6    6    0    0 -0.23004351150E+01 -0.56382688883E+02  0.26450605702E+02  0.62321217490E+02  0.00000000000E+00 0. -1.
        -14    1    6    6    0    0  0.18911449309E+02 -0.39520823189E+02 -0.49214940176E+02  0.65891188463E+02  0.00000000000E+00 0.  1.
<mgrwt>
<rscale>  2 0.18263255E+03</rscale>
<asrwt>0</asrwt>
<pdfrwt beam="1">  1       21 0.31203264E-01 0.18361972E+03</pdfrwt>
<pdfrwt beam="2">  1       21 0.26725619E-01 0.18361972E+03</pdfrwt>
<totfact> 0.13193065E+05</totfact>
</mgrwt>
</event>
<event>
12    1  0.1019868E-001  0.2124609E+03  0.7546771E-02  0.1140291E+00
         21   -1    0    0  503  502  0.00000000000E+00  0.00000000000E+00  0.24463296219E+03  0.24463296219E+03  0.00000000000E+00 0.  1.
         21   -1    0    0  501  503 -0.00000000000E+00 -0.00000000000E+00 -0.30262302640E+03  0.30262302640E+03  0.00000000000E+00 0. -1.
          6    2    1    2  501    0  0.51868004313E+02  0.11169161836E+03 -0.20187817340E+03  0.29065628911E+03  0.16899992314E+03 0.  0.
         24    2    3    3    0    0  0.67130163343E+02  0.10860356558E+03 -0.81271683253E+02  0.16895795292E+03  0.75103329263E+02 0.  0.
         -6    2    1    2    0  502 -0.51868004313E+02 -0.11169161836E+03  0.14388810919E+03  0.25659969948E+03  0.17313090517E+03 0.  0.
        -24    2    5    5    0    0 -0.74164731052E+02 -0.75460564578E+02  0.16278155278E+03  0.20981417296E+03  0.79557834995E+02 0.  0.
          5    1    3    3  501    0 -0.15262159030E+02  0.30880527762E+01 -0.12060649014E+03  0.12169833620E+03  0.47000000000E+01 0. -1.
        -13    1    4    4    0    0 -0.10950883694E+02  0.22278878756E+02 -0.36721152719E+02  0.44325087132E+02  0.00000000000E+00 0.  1.
         14    1    4    4    0    0  0.78081047037E+02  0.86324686828E+02 -0.44550530535E+02  0.12463286578E+03  0.00000000000E+00 0. -1.
         -5    1    5    5    0  502  0.22296726739E+02 -0.36231053783E+02 -0.18893443591E+02  0.46785526525E+02  0.47000000000E+01 0.  1.
         13    1    6    6    0    0 -0.23029467582E+02 -0.33709931476E+02  0.80813249221E+01  0.41617588466E+02  0.00000000000E+00 0. -1.
        -14    1    6    6    0    0 -0.51135263470E+02 -0.41750633102E+02  0.15470022786E+03  0.16819658449E+03  0.00000000000E+00 0.  1.
<mgrwt>
<rscale>  2 0.21161772E+03</rscale>
<asrwt>0</asrwt>
<pdfrwt beam="1">  1       21 0.37635840E-01 0.21246086E+03</pdfrwt>
<pdfrwt beam="2">  1       21 0.46557389E-01 0.21246086E+03</pdfrwt>
<totfact> 0.29759918E+04</totfact>
</mgrwt>
</event>
<event>
12    1  0.1019868E-001  0.1760743E+03  0.7546771E-02  0.1172064E+00
         21   -1    0    0  501  502  0.00000000000E+00  0.00000000000E+00  0.63653689176E+02  0.63653689176E+02  0.00000000000E+00 0. -1.
         21   -1    0    0  502  503 -0.00000000000E+00 -0.00000000000E+00 -0.64902815054E+03  0.64902815054E+03  0.00000000000E+00 0. -1.
         -6    2    1    2    0  503 -0.99119632908E+01 -0.23338534938E+02 -0.47214575805E+03  0.50334267419E+03  0.17259576062E+03 0.  0.
        -24    2    3    3    0    0 -0.32392917871E+02 -0.53745452621E+02 -0.16801074716E+03  0.19682975633E+03  0.81095419179E+02 0.  0.
          6    2    1    2  501    0  0.99119632908E+01  0.23338534938E+02 -0.11322870331E+03  0.20933916552E+03  0.17423895299E+03 0.  0.
         24    2    5    5    0    0  0.73683391837E+02  0.12183538621E+02 -0.81903160511E+02  0.13726553183E+03  0.80969239109E+02 0.  0.
          5    1    5    5  501    0 -0.63771428546E+02  0.11154996317E+02 -0.31325542799E+02  0.72073633690E+02  0.47000000000E+01 0. -1.
        -13    1    6    6    0    0 -0.10683604884E+02  0.13276572540E+02  0.32966480380E+01  0.17357265914E+02  0.00000000000E+00 0.  1.
         14    1    6    6    0    0  0.84366996721E+02 -0.10930339190E+01 -0.85199808549E+02  0.11990826592E+03  0.00000000000E+00 0. -1.
         -5    1    3    3    0  503  0.22480954581E+02  0.30406917683E+02 -0.30413501090E+03  0.30651291786E+03  0.47000000000E+01 0.  1.
         11    1    4    4    0    0 -0.46113804474E+02 -0.63303761102E+02 -0.16031285588E+03  0.17842102144E+03  0.00000000000E+00 0. -1.
        -12    1    4    4    0    0  0.13720886603E+02  0.95583084807E+01 -0.76978912833E+01  0.18408734894E+02  0.00000000000E+00 0.  1.
<mgrwt>
<rscale>  2 0.17566637E+03</rscale>
<asrwt>0</asrwt>
<pdfrwt beam="1">  1       21 0.97928758E-02 0.17607427E+03</pdfrwt>
<pdfrwt beam="2">  1       21 0.99850479E-01 0.17607427E+03</pdfrwt>
<totfact> 0.69901603E+04</totfact>
</mgrwt>
</event>
<event>
12    1  0.1019868E-001  0.1982772E+03  0.7546771E-02  0.1151629E+00
         21   -1    0    0  501  502  0.00000000000E+00  0.00000000000E+00  0.12240681195E+04  0.12240681195E+04  0.00000000000E+00 0. -1.
         21   -1    0    0  502  503 -0.00000000000E+00 -0.00000000000E+00 -0.14556961820E+03  0.14556961820E+03  0.00000000000E+00 0. -1.
         -6    2    1    2    0  503 -0.53173773431E+02  0.79249537255E+02 -0.66775299892E+02  0.20732713430E+03  0.17151577364E+03 0.  0.
        -24    2    3    3    0    0 -0.58068963553E+02  0.10852571289E+03 -0.15745356505E+02  0.14810549579E+03  0.80854726190E+02 0.  0.
          6    2    1    2  501    0  0.53173773431E+02 -0.79249537255E+02  0.11452738012E+04  0.11623106034E+04  0.17379850324E+03 0.  0.
         24    2    5    5    0    0  0.20300211977E+02 -0.41979425997E+02  0.10542955045E+04  0.10585374243E+04  0.82389908103E+02 0.  0.
          5    1    5    5  501    0  0.32873561454E+02 -0.37270111259E+02  0.90978296661E+02  0.10377317909E+03  0.47000000000E+01 0. -1.
        -13    1    6    6    0    0  0.32333341886E+02 -0.11300959375E+02  0.15953967799E+03  0.16317495376E+03  0.00000000000E+00 0.  1.
         14    1    6    6    0    0 -0.12033129909E+02 -0.30678466622E+02  0.89475582651E+03  0.89536247051E+03  0.00000000000E+00 0. -1.
         -5    1    3    3    0  503  0.48951901218E+01 -0.29276175630E+02 -0.51029943388E+02  0.59221638511E+02  0.47000000000E+01 0.  1.
         11    1    4    4    0    0 -0.52545115669E+02  0.42775344804E+02  0.23043999064E+02  0.71566369174E+02  0.00000000000E+00 0. -1.
        -12    1    4    4    0    0 -0.55238478837E+01  0.65750368081E+02 -0.38789355569E+02  0.76539126619E+02  0.00000000000E+00 0.  1.
<mgrwt>
<rscale>  2 0.19777587E+03</rscale>
<asrwt>0</asrwt>
<pdfrwt beam="1">  1       21 0.18831817E+00 0.19827723E+03</pdfrwt>
<pdfrwt beam="2">  1       21 0.22395327E-01 0.19827723E+03</pdfrwt>
<totfact> 0.29704810E+03</totfact>
</mgrwt>
</event>
<event>
12    1  0.1019868E-001  0.2597946E+03  0.7546771E-02  0.1108361E+00
         21   -1    0    0  503  502  0.00000000000E+00  0.00000000000E+00  0.94665461383E+03  0.94665461383E+03  0.00000000000E+00 0. -1.
         21   -1    0    0  501  503 -0.00000000000E+00 -0.00000000000E+00 -0.21587283429E+03  0.21587283429E+03  0.00000000000E+00 0.  1.
          6    2    1    2  501    0  0.17466159045E+03  0.59962399744E+02 -0.11184425022E+03  0.28284686353E+03  0.18273218474E+03 0.  0.
         24    2    3    3    0    0  0.65727862097E+02 -0.27954337250E+02 -0.94963050940E+02  0.14176896056E+03  0.77323090396E+02 0.  0.
         -6    2    1    2    0  502 -0.17466159045E+03 -0.59962399744E+02  0.84262602976E+03  0.87968058459E+03  0.17238661292E+03 0.  0.
        -24    2    5    5    0    0 -0.17060458192E+03 -0.85811877319E+02  0.81598908243E+03  0.84204719819E+03  0.82071308425E+02 0.  0.
          5    1    3    3  501    0  0.10893372836E+03  0.87916736994E+02 -0.16881199283E+02  0.14107790297E+03  0.47000000000E+01 0. -1.
        -11    1    4    4    0    0  0.17120190324E+02 -0.17164851276E+02 -0.88260029328E+02  0.91529043550E+02  0.00000000000E+00 0.  1.
         12    1    4    4    0    0  0.48607671773E+02 -0.10789485974E+02 -0.67030216114E+01  0.50239917014E+02  0.00000000000E+00 0. -1.
         -5    1    5    5    0  502 -0.40570085290E+01  0.25849477576E+02  0.26636947330E+02  0.37633386403E+02  0.47000000000E+01 0.  1.
         11    1    6    6    0    0 -0.32632678374E+02  0.87919194158E+01  0.72798437640E+02  0.80260837697E+02  0.00000000000E+00 0. -1.
        -12    1    6    6    0    0 -0.13797190355E+03 -0.94603796735E+02  0.74319064479E+03  0.76178636049E+03  0.00000000000E+00 0.  1.
<mgrwt>
<rscale>  2 0.25798327E+03</rscale>
<asrwt>0</asrwt>
<pdfrwt beam="1">  1       21 0.14563917E+00 0.25979456E+03</pdfrwt>
<pdfrwt beam="2">  1       21 0.33211206E-01 0.25979456E+03</pdfrwt>
<totfact> 0.26714734E+03</totfact>
</mgrwt>
</event>
<event>
12    1  0.1019868E-001  0.1793731E+03  0.7546771E-02  0.1168507E+00
         21   -1    0    0  501  502  0.00000000000E+00  0.00000000000E+00  0.24909991731E+03  0.24909991731E+03  0.00000000000E+00 0. -1.
         21   -1    0    0  502  503 -0.00000000000E+00 -0.00000000000E+00 -0.23511182589E+03  0.23511182589E+03  0.00000000000E+00 0.  1.
         -6    2    1    2    0  503  0.38466923995E+02 -0.27185214286E+02 -0.15574132323E+03  0.23755015873E+03  0.17307795363E+03 0.  0.
        -24    2    3    3    0    0  0.39652921754E+02 -0.75076810954E+02 -0.14946606313E+03  0.18900656480E+03  0.78577959795E+02 0.  0.
          6    2    1    2  501    0 -0.38466923995E+02  0.27185214286E+02  0.16972941465E+03  0.24666158447E+03  0.17267056188E+03 0.  0.
         24    2    5    5    0    0  0.21819877744E+02  0.26288530110E+02  0.21306039029E+02  0.86390280310E+02  0.76433888772E+02 0.  0.
          5    1    5    5  501    0 -0.60286801739E+02  0.89668417621E+00  0.14842337562E+03  0.16027130416E+03  0.47000000000E+01 0. -1.
        -11    1    6    6    0    0 -0.18138423134E+02  0.12177382971E+01 -0.17555487277E+02  0.25272127213E+02  0.00000000000E+00 0.  1.
         12    1    6    6    0    0  0.39958300878E+02  0.25070791813E+02  0.38861526306E+02  0.61118153097E+02  0.00000000000E+00 0. -1.
         -5    1    3    3    0  503 -0.11859977590E+01  0.47891596667E+02 -0.62752601066E+01  0.48543593928E+02  0.47000000000E+01 0.  1.
         11    1    4    4    0    0  0.28241833910E+02  0.90367506293E+01 -0.27728572078E+02  0.40597262888E+02  0.00000000000E+00 0. -1.
        -12    1    4    4    0    0  0.11411087843E+02 -0.84113561583E+02 -0.12173749105E+03  0.14840930191E+03  0.00000000000E+00 0.  1.
<mgrwt>
<rscale>  2 0.17927478E+03</rscale>
<asrwt>0</asrwt>
<pdfrwt beam="1">  1       21 0.38323064E-01 0.17937313E+03</pdfrwt>
<pdfrwt beam="2">  1       21 0.36171050E-01 0.17937313E+03</pdfrwt>
<totfact> 0.48702733E+04</totfact>
</mgrwt>
</event>
<event>
12    1  0.1019868E-001  0.2063526E+03  0.7546771E-02  0.1144602E+00
         21   -1    0    0  503  502  0.00000000000E+00  0.00000000000E+00  0.55394547733E+02  0.55394547733E+02  0.00000000000E+00 0.  1.
         21   -1    0    0  501  503 -0.00000000000E+00 -0.00000000000E+00 -0.77252912030E+03  0.77252912030E+03  0.00000000000E+00 0. -1.
          6    2    1    2  501    0 -0.68208751398E+02 -0.90203923195E+02 -0.32275563670E+03  0.38308298831E+03  0.17260415227E+03 0.  0.
         24    2    3    3    0    0 -0.67108456489E+02 -0.10805894184E+03 -0.16090944737E+03  0.22018335251E+03  0.80053598466E+02 0.  0.
         -6    2    1    2    0  502  0.68208751398E+02  0.90203923195E+02 -0.39437893586E+03  0.44484067973E+03  0.17192819361E+03 0.  0.
        -24    2    5    5    0    0  0.57382710230E+02  0.72498147291E+02 -0.40326408923E+03  0.42178132982E+03  0.82029310171E+02 0.  0.
          5    1    3    3  501    0 -0.11002949097E+01  0.17855018647E+02 -0.16184618934E+03  0.16289963579E+03  0.47000000000E+01 0. -1.
        -13    1    4    4    0    0 -0.80904056244E+02 -0.10883420017E+03 -0.13835484173E+03  0.19373283582E+03  0.00000000000E+00 0.  1.
         14    1    4    4    0    0  0.13795599756E+02  0.77525832590E+00 -0.22554605636E+02  0.26450516696E+02  0.00000000000E+00 0. -1.
         -5    1    5    5    0  502  0.10826041168E+02  0.17705775904E+02  0.88851533669E+01  0.23059349906E+02  0.47000000000E+01 0.  1.
         13    1    6    6    0    0  0.34651313287E+02 -0.11400790727E+02 -0.13042205548E+03  0.13542748649E+03  0.00000000000E+00 0. -1.
        -14    1    6    6    0    0  0.22731396944E+02  0.83898938018E+02 -0.27284203375E+03  0.28635384333E+03  0.00000000000E+00 0.  1.
<mgrwt>
<rscale>  2 0.20621114E+03</rscale>
<asrwt>0</asrwt>
<pdfrwt beam="1">  1       21 0.85222381E-02 0.20635255E+03</pdfrwt>
<pdfrwt beam="2">  1       21 0.11885063E+00 0.20635255E+03</pdfrwt>
<totfact> 0.57718865E+04</totfact>
</mgrwt>
</event>
<event>
12    1  0.1019868E-001  0.2375298E+03  0.7546771E-02  0.1121701E+00
         21   -1    0    0  501  502  0.00000000000E+00  0.00000000000E+00  0.24541545179E+04  0.24541545179E+04  0.00000000000E+00 0. -1.
         21   -1    0    0  502  503 -0.00000000000E+00 -0.00000000000E+00 -0.23532596906E+02  0.23532596906E+02  0.00000000000E+00 0.  1.
         -6    2    1    2    0  503  0.96449282844E+02  0.13064343857E+03  0.10000363533E+04  0.10275162797E+04  0.17130915013E+03 0.  0.
        -24    2    3    3    0    0 -0.17873210752E+02  0.34531373700E+02  0.27077795833E+03  0.28310573558E+03  0.72912875195E+02 0.  0.
          6    2    1    2  501    0 -0.96449282844E+02 -0.13064343857E+03  0.14305855677E+04  0.14501708351E+04  0.17334997060E+03 0.  0.
         24    2    5    5    0    0  0.60537283388E+00 -0.10550833668E+03  0.92080582267E+03  0.93060480661E+03  0.83723159493E+02 0.  0.
          5    1    5    5  501    0 -0.97054655678E+02 -0.25135101893E+02  0.50977974503E+03  0.51956602851E+03  0.47000000000E+01 0. -1.
        -11    1    6    6    0    0  0.26242544981E+02 -0.72400237291E+02  0.35525669058E+03  0.36350760890E+03  0.00000000000E+00 0.  1.
         12    1    6    6    0    0 -0.25637172147E+02 -0.33108099389E+02  0.56554913209E+03  0.56709719771E+03  0.00000000000E+00 0. -1.
         -5    1    3    3    0  503  0.11432249360E+03  0.96112064873E+02  0.72925839501E+03  0.74441054416E+03  0.47000000000E+01 0.  1.
         11    1    4    4    0    0  0.26226221968E+02  0.23641013232E+02  0.89246116457E+02  0.95976984367E+02  0.00000000000E+00 0. -1.
        -12    1    4    4    0    0 -0.44099432720E+02  0.10890360467E+02  0.18153184187E+03  0.18712875121E+03  0.00000000000E+00 0.  1.
<mgrwt>
<rscale>  2 0.23715756E+03</rscale>
<asrwt>0</asrwt>
<pdfrwt beam="1">  1       21 0.37756203E+00 0.23752975E+03</pdfrwt>
<pdfrwt beam="2">  1       21 0.36204015E-02 0.23752975E+03</pdfrwt>
<totfact> 0.52497627E+03</totfact>
</mgrwt>
</event>
<event>
12    1  0.1019868E-001  0.1838159E+03  0.7546771E-02  0.1164172E+00
         21   -1    0    0  503  502  0.00000000000E+00  0.00000000000E+00  0.37679325751E+03  0.37679325751E+03  0.00000000000E+00 0.  1.
         21   -1    0    0  501  503 -0.00000000000E+00 -0.00000000000E+00 -0.19499513029E+03  0.19499513029E+03  0.00000000000E+00 0.  1.
          6    2    1    2  501    0  0.20077059533E+01 -0.62393689144E+02 -0.11923182162E+03  0.21909936099E+03  0.17289100431E+03 0.  0.
         24    2    3    3    0    0 -0.59101346704E+02 -0.57058598557E+02 -0.46792717747E+02  0.12406098307E+03  0.80330045649E+02 0.  0.
         -6    2    1    2    0  502 -0.20077059533E+01  0.62393689144E+02  0.30102994884E+03  0.35268902681E+03  0.17283956783E+03 0.  0.
        -24    2    5    5    0    0  0.21016891574E+02  0.26734170038E+02  0.54066001300E+02  0.10205978913E+03  0.79603030612E+02 0.  0.
          5    1    3    3  501    0  0.61109052657E+02 -0.53350905873E+01 -0.72439103868E+02  0.95038377919E+02  0.47000000000E+01 0. -1.
        -13    1    4    4    0    0 -0.35222850456E+02  0.95100598189E+01 -0.38192592710E+02  0.52818221950E+02  0.00000000000E+00 0.  1.
         14    1    4    4    0    0 -0.23878496248E+02 -0.66568658376E+02 -0.86001250367E+01  0.71242761117E+02  0.00000000000E+00 0. -1.
         -5    1    5    5    0  502 -0.23024597527E+02  0.35659519106E+02  0.24696394754E+03  0.25062923768E+03  0.47000000000E+01 0.  1.
         13    1    6    6    0    0 -0.24417121620E+02  0.26251865047E+02  0.41654272869E+02  0.54958481555E+02  0.00000000000E+00 0. -1.
        -14    1    6    6    0    0  0.45434013194E+02  0.48230499057E+00  0.12411728431E+02  0.47101307579E+02  0.00000000000E+00 0.  1.
<mgrwt>
<rscale>  2 0.18380385E+03</rscale>
<asrwt>0</asrwt>
<pdfrwt beam="1">  1       21 0.57968193E-01 0.18381595E+03</pdfrwt>
<pdfrwt beam="2">  1       21 0.29999251E-01 0.18381595E+03</pdfrwt>
<totfact> 0.29869640E+04</totfact>
</mgrwt>
</event>
<event>
12    1  0.1019868E-001  0.2044555E+03  0.7546771E-02  0.1147088E+00
         21   -1    0    0  503  502  0.00000000000E+00  0.00000000000E+00  0.13656495657E+03  0.13656495657E+03  0.00000000000E+00 0. -1.
         21   -1    0    0  501  503 -0.00000000000E+00 -0.00000000000E+00 -0.46343981502E+03  0.46343981502E+03  0.00000000000E+00 0. -1.
          6    2    1    2  501    0 -0.73681193525E+02  0.65034110866E+02  0.14179524912E+02  0.20494664204E+03  0.17928667910E+03 0.  0.
         24    2    3    3    0    0 -0.57645442220E+02 -0.32961518786E+02  0.16632711575E+02  0.10550622332E+03  0.80283605646E+02 0.  0.
         -6    2    1    2    0  502  0.73681193525E+02 -0.65034110866E+02 -0.34105438336E+03  0.39505812955E+03  0.17347760506E+03 0.  0.
        -24    2    5    5    0    0  0.53120203694E+02  0.29332551855E+02 -0.14029682080E+03  0.17222745334E+03  0.79353280446E+02 0.  0.
          5    1    3    3  501    0 -0.16035751305E+02  0.97995629652E+02 -0.24531866633E+01  0.99440418722E+02  0.47000000000E+01 0. -1.
        -13    1    4    4    0    0  0.18911467138E+02  0.16540801913E+01  0.93803266338E+01  0.21174751435E+02  0.00000000000E+00 0.  1.
         14    1    4    4    0    0 -0.76556909358E+02 -0.34615598977E+02  0.72523849417E+01  0.84331471885E+02  0.00000000000E+00 0. -1.
         -5    1    5    5    0  502  0.20560989831E+02 -0.94366662721E+02 -0.20075756255E+03  0.22283067621E+03  0.47000000000E+01 0.  1.
         11    1    6    6    0    0  0.41960903348E+02 -0.81775421917E+01 -0.22937585699E+02  0.48515177458E+02  0.00000000000E+00 0. -1.
        -12    1    6    6    0    0  0.11159300346E+02  0.37510094046E+02 -0.11735923511E+03  0.12371227588E+03  0.00000000000E+00 0.  1.
<mgrwt>
<rscale>  2 0.20317495E+03</rscale>
<asrwt>0</asrwt>
<pdfrwt beam="1">  1       21 0.21009993E-01 0.20445554E+03</pdfrwt>
<pdfrwt beam="2">  1       21 0.71298434E-01 0.20445554E+03</pdfrwt>
<totfact> 0.37217329E+04</totfact>
</mgrwt>
</event>
<event>
12    1  0.1019868E-001  0.2281306E+03  0.7546771E-02  0.1128068E+00
         21   -1    0    0  503  502  0.00000000000E+00  0.00000000000E+00  0.11743058646E+04  0.11743058646E+04  0.00000000000E+00 0.  1.
         21   -1    0    0  501  503 -0.00000000000E+00 -0.00000000000E+00 -0.45100458785E+02  0.45100458785E+02  0.00000000000E+00 0. -1.
          6    2    1    2  501    0 -0.48518056625E+02  0.14021442398E+03  0.64988122801E+03  0.68856243669E+03  0.17250661490E+03 0.  0.
         24    2    3    3    0    0 -0.80038155370E+02  0.11885612031E+03  0.34486047641E+03  0.38113855559E+03  0.76190332181E+02 0.  0.
         -6    2    1    2    0  502  0.48518056625E+02 -0.14021442398E+03  0.47932417783E+03  0.53084388672E+03  0.17329015583E+03 0.  0.
        -24    2    5    5    0    0  0.78316199366E+02 -0.15423401224E+03  0.36437703159E+03  0.41118013033E+03  0.79855624790E+02 0.  0.
          5    1    3    3  501    0  0.31520098745E+02  0.21358303668E+02  0.30502075160E+03  0.30742388110E+03  0.47000000000E+01 0. -1.
        -11    1    4    4    0    0 -0.38561848926E+02  0.56866563804E+01  0.11763219998E+03  0.12392210749E+03  0.00000000000E+00 0.  1.
         12    1    4    4    0    0 -0.41476306444E+02  0.11316946393E+03  0.22722827643E+03  0.25721644810E+03  0.00000000000E+00 0. -1.
         -5    1    5    5    0  502 -0.29798142741E+02  0.14019588262E+02  0.11494714624E+03  0.11966375639E+03  0.47000000000E+01 0.  1.
         11    1    6    6    0    0  0.25076210361E+02 -0.60619857957E+02  0.62262091834E+02  0.90444190440E+02  0.00000000000E+00 0. -1.
        -12    1    6    6    0    0  0.53239989005E+02 -0.93614154286E+02  0.30211493976E+03  0.32073593989E+03  0.00000000000E+00 0.  1.
<mgrwt>
<rscale>  2 0.22798179E+03</rscale>
<asrwt>0</asrwt>
<pdfrwt beam="1">  1       21 0.18066242E+00 0.22813059E+03</pdfrwt>
<pdfrwt beam="2">  1       21 0.69385330E-02 0.22813059E+03</pdfrwt>
<totfact> 0.27022119E+04</totfact>
</mgrwt>
</event>
<event>
12    1  0.1019868E-001  0.1880807E+03  0.7546771E-02  0.1160589E+00
         21   -1    0    0  503  502  0.00000000000E+00  0.00000000000E+00  0.76879677086E+03  0.76879677086E+03  0.00000000000E+00 0.  1.
         21   -1    0    0  501  503 -0.00000000000E+00 -0.00000000000E+00 -0.60245605754E+02  0.60245605754E+02  0.00000000000E+00 0.  1.
          6    2    1    2  501    0 -0.62535190989E+02 -0.34791338180E+02  0.15111897747E+03  0.24127015528E+03  0.17393462897E+03 0.  0.
         24    2    3    3    0    0  0.63630006402E+01 -0.68792646948E+02  0.57188995642E+02  0.11982888843E+03  0.79469901405E+02 0.  0.
         -6    2    1    2    0  502  0.62535190989E+02  0.34791338180E+02  0.55743218764E+03  0.58777222133E+03  0.17211755585E+03 0.  0.
        -24    2    5    5    0    0 -0.20785540424E+02 -0.21578600274E+02  0.21691916424E+03  0.23267910207E+03  0.78663625933E+02 0.  0.
          5    1    3    3  501    0 -0.68898191629E+02  0.34001308768E+02  0.93929981825E+02  0.12144126685E+03  0.47000000000E+01 0. -1.
        -13    1    4    4    0    0  0.38429998707E+01 -0.11027926267E+02 -0.20135692477E+02  0.23277240328E+02  0.00000000000E+00 0.  1.
         14    1    4    4    0    0  0.25200007695E+01 -0.57764720681E+02  0.77324688119E+02  0.96551648105E+02  0.00000000000E+00 0. -1.
         -5    1    5    5    0  502  0.83320731413E+02  0.56369938454E+02  0.34051302339E+03  0.35509311926E+03  0.47000000000E+01 0.  1.
         13    1    6    6    0    0  0.26957754383E+02 -0.24372351194E+02  0.91942557114E+02  0.98864381012E+02  0.00000000000E+00 0. -1.
        -14    1    6    6    0    0 -0.47743294807E+02  0.27937509197E+01  0.12497660713E+03  0.13381472106E+03  0.00000000000E+00 0.  1.
<mgrwt>
<rscale>  2 0.18765949E+03</rscale>
<asrwt>0</asrwt>
<pdfrwt beam="1">  1       21 0.11827642E+00 0.18808068E+03</pdfrwt>
<pdfrwt beam="2">  1       21 0.92685553E-02 0.18808068E+03</pdfrwt>
<totfact> 0.50895403E+04</totfact>
</mgrwt>
</event>
<event>
12    1  0.1019868E-001  0.2291651E+03  0.7546771E-02  0.1127367E+00
         21   -1    0    0  503  502  0.00000000000E+00  0.00000000000E+00  0.91443633393E+02  0.91443633393E+02  0.00000000000E+00 0.  1.
         21   -1    0    0  501  503 -0.00000000000E+00 -0.00000000000E+00 -0.11197289824E+04  0.11197289824E+04  0.00000000000E+00 0.  1.
          6    2    1    2  501    0  0.56956668577E+02  0.13797044484E+03 -0.93710487514E+03  0.96453421490E+03  0.17286063447E+03 0.  0.
         24    2    3    3    0    0  0.52319132569E+02  0.16242090448E+03 -0.66223331385E+03  0.68849835324E+03  0.79744458055E+02 0.  0.
         -6    2    1    2    0  502 -0.56956668577E+02 -0.13797044484E+03 -0.91180473903E+02  0.24663840093E+03  0.17388707902E+03 0.  0.
        -24    2    5    5    0    0 -0.84846388388E+02 -0.78604908048E+02 -0.10945994636E+03  0.17838642262E+03  0.80390265130E+02 0.  0.
          5    1    3    3  501    0  0.46375360074E+01 -0.24450459636E+02 -0.27487156129E+03  0.27603586166E+03  0.47000000000E+01 0. -1.
        -11    1    4    4    0    0  0.28278549089E+02  0.45383277187E+01 -0.98101076301E+02  0.10219634988E+03  0.00000000000E+00 0.  1.
         12    1    4    4    0    0  0.24040583481E+02  0.15788257676E+03 -0.56413223755E+03  0.58630200336E+03  0.00000000000E+00 0. -1.
         -5    1    5    5    0  502  0.27889719812E+02 -0.59365536792E+02  0.18279472458E+02  0.68251978309E+02  0.47000000000E+01 0.  1.
         11    1    6    6    0    0 -0.23934480264E+01 -0.32273204614E+02 -0.67622850915E+02  0.74967581630E+02  0.00000000000E+00 0. -1.
        -12    1    6    6    0    0 -0.82452940362E+02 -0.46331703434E+02 -0.41837095446E+02  0.10341884099E+03  0.00000000000E+00 0.  1.
<mgrwt>
<rscale>  2 0.22897034E+03</rscale>
<asrwt>0</asrwt>
<pdfrwt beam="1">  1       21 0.14068251E-01 0.22916505E+03</pdfrwt>
<pdfrwt beam="2">  1       21 0.17226600E+00 0.22916505E+03</pdfrwt>
<totfact> 0.88182253E+03</totfact>
</mgrwt>
</event>
<event>
12    1  0.1019868E-001  0.2138012E+03  0.7546771E-02  0.1138779E+00
         21   -1    0    0  501  502  0.00000000000E+00  0.00000000000E+00  0.73478922008E+03  0.73478922008E+03  0.00000000000E+00 0. -1.
         21   -1    0    0  502  503 -0.00000000000E+00 -0.00000000000E+00 -0.20093837462E+03  0.20093837462E+03  0.00000000000E+00 0.  1.
         -6    2    1    2    0  503  0.93859187393E+02  0.85584337765E+02 -0.12240788008E+03  0.24552003257E+03  0.17076935134E+03 0.  0.
        -24    2    3    3    0    0  0.88916914153E+01 -0.13395572079E+02 -0.55991332110E+02  0.99062715341E+02  0.80124208400E+02 0.  0.
          6    2    1    2  501    0 -0.93859187393E+02 -0.85584337765E+02  0.65625872554E+03  0.69020756213E+03  0.17197888839E+03 0.  0.
         24    2    5    5    0    0 -0.98213577654E+02 -0.11784254946E+03  0.60332933349E+03  0.62789252800E+03  0.81914399041E+02 0.  0.
          5    1    5    5  501    0  0.43543902608E+01  0.32258211695E+02  0.52929392046E+02  0.62315034130E+02  0.47000000000E+01 0. -1.
        -13    1    6    6    0    0 -0.98765279034E+01 -0.54814917114E+02  0.31359808830E+03  0.31850585854E+03  0.00000000000E+00 0.  1.
         14    1    6    6    0    0 -0.88337049751E+02 -0.63027632345E+02  0.28973124519E+03  0.30938666946E+03  0.00000000000E+00 0. -1.
         -5    1    3    3    0  503  0.84967495978E+02  0.98979909844E+02 -0.66416547973E+02  0.14645731723E+03  0.47000000000E+01 0.  1.
         11    1    4    4    0    0 -0.28081075441E+02  0.14739228753E+02 -0.89660482584E+01  0.32957270571E+02  0.00000000000E+00 0. -1.
        -12    1    4    4    0    0  0.36972766856E+02 -0.28134800832E+02 -0.47025283851E+02  0.66105444769E+02  0.00000000000E+00 0.  1.
<mgrwt>
<rscale>  2 0.21355788E+03</rscale>
<asrwt>0</asrwt>
<pdfrwt beam="1">  1       21 0.11304449E+00 0.21380123E+03</pdfrwt>
<pdfrwt beam="2">  1       21 0.30913596E-01 0.21380123E+03</pdfrwt>
<totfact> 0.60451371E+03</totfact>
</mgrwt>
</event>
<event>
12    1  0.1019868E-001  0.1849090E+03  0.7546771E-02  0.1163518E+00
         21   -1    0    0  503  502  0.00000000000E+00  0.00000000000E+00  0.11464504517E+04  0.11464504517E+04  0.00000000000E+00 0.  1.
         21   -1    0    0  501  503 -0.00000000000E+00 -0.00000000000E+00 -0.40987716567E+02  0.40987716567E+02  0.00000000000E+00 0.  1.
          6    2    1    2  501    0  0.62656182087E+02  0.23745274651E+01  0.24101634857E+03  0.30377656667E+03  0.17395369110E+03 0.  0.
         24    2    3    3    0    0  0.52654717783E+02  0.64631079348E+02  0.11725993555E+03  0.16480301774E+03  0.80376902450E+02 0.  0.
         -6    2    1    2    0  502 -0.62656182087E+02 -0.23745274651E+01  0.86444638655E+03  0.88366160158E+03  0.17221740723E+03 0.  0.
        -24    2    5    5    0    0  0.31461424604E+02 -0.70304960472E+01  0.49134489724E+03  0.49881538131E+03  0.79735358987E+02 0.  0.
          5    1    3    3  501    0  0.10001464305E+02 -0.62256551883E+02  0.12375641302E+03  0.13897354894E+03  0.47000000000E+01 0. -1.
        -11    1    4    4    0    0  0.51093946335E+02  0.33775109543E+00  0.58715315815E+02  0.77834399459E+02  0.00000000000E+00 0.  1.
         12    1    4    4    0    0  0.15607714480E+01  0.64293328252E+02  0.58544619737E+02  0.86968618280E+02  0.00000000000E+00 0. -1.
         -5    1    5    5    0  502 -0.94117606691E+02  0.46559685821E+01  0.37310148931E+03  0.38484622027E+03  0.47000000000E+01 0.  1.
         13    1    6    6    0    0  0.37876391810E+01  0.34272185128E+02  0.15299893579E+03  0.15683623063E+03  0.00000000000E+00 0. -1.
        -14    1    6    6    0    0  0.27673785423E+02 -0.41302681175E+02  0.33834596145E+03  0.34197915068E+03  0.00000000000E+00 0.  1.
<mgrwt>
<rscale>  2 0.18449948E+03</rscale>
<asrwt>0</asrwt>
<pdfrwt beam="1">  1       21 0.17637697E+00 0.18490896E+03</pdfrwt>
<pdfrwt beam="2">  1       21 0.63058034E-02 0.18490896E+03</pdfrwt>
<totfact> 0.35060341E+04</totfact>
</mgrwt>
</event>
<event>
12    1  0.1019868E-001  0.1807272E+03  0.7546771E-02  0.1167388E+00
         21   -1    0    0  503  502  0.00000000000E+00  0.00000000000E+00  0.17167575376E+04  0.17167575376E+04  0.00000000000E+00 0.  1.
         21   -1    0    0  501  503 -0.00000000000E+00 -0.00000000000E+00 -0.21953155019E+02  0.21953155019E+02  0.00000000000E+00 0.  1.
          6    2    1    2  501    0  0.55706947442E+02 -0.95307674935E+01  0.11739795051E+04  0.11878089922E+04  0.17166311269E+03 0.  0.
         24    2    3    3    0    0  0.21782169238E+02 -0.58777514293E+02  0.47028593716E+03  0.48156338331E+03  0.82493456555E+02 0.  0.
         -6    2    1    2    0  502 -0.55706947442E+02  0.95307674935E+01  0.52082487756E+03  0.55090170040E+03  0.17041135789E+03 0.  0.
        -24    2    5    5    0    0  0.79119335782E+01  0.54254873077E+02  0.23044957266E+03  0.25025653523E+03  0.80716404426E+02 0.  0.
          5    1    3    3  501    0  0.33924778204E+02  0.49246746800E+02  0.70369356790E+03  0.70624560894E+03  0.47000000000E+01 0. -1.
        -11    1    4    4    0    0  0.52194712602E+02 -0.47867525649E+02  0.30074017957E+03  0.30896641183E+03  0.00000000000E+00 0.  1.
         12    1    4    4    0    0 -0.30412543364E+02 -0.10909988644E+02  0.16954575759E+03  0.17259697148E+03  0.00000000000E+00 0. -1.
         -5    1    5    5    0  502 -0.63618881020E+02 -0.44724105583E+02  0.29037530490E+03  0.30064516517E+03  0.47000000000E+01 0.  1.
         11    1    6    6    0    0  0.12572309082E+01  0.17298412541E+02  0.59435015067E+00  0.17354220181E+02  0.00000000000E+00 0. -1.
        -12    1    6    6    0    0  0.66547026700E+01  0.36956460536E+02  0.22985522251E+03  0.23290231505E+03  0.00000000000E+00 0.  1.
<mgrwt>
<rscale>  2 0.18042934E+03</rscale>
<asrwt>0</asrwt>
<pdfrwt beam="1">  1       21 0.26411644E+00 0.18072721E+03</pdfrwt>
<pdfrwt beam="2">  1       21 0.33774098E-02 0.18072721E+03</pdfrwt>
<totfact> 0.28888107E+04</totfact>
</mgrwt>
</event>
<event>
12    1  0.1019868E-001  0.4660670E+03  0.7546771E-02  0.1023161E+00
         21   -1    0    0  503  502  0.00000000000E+00  0.00000000000E+00  0.14049479045E+03  0.14049479045E+03  0.00000000000E+00 0.  1.
         21   -1    0    0  501  503 -0.00000000000E+00 -0.00000000000E+00 -0.22083391732E+04  0.22083391732E+04  0.00000000000E+00 0. -1.
          6    2    1    2  501    0 -0.27497434962E+03  0.33228594965E+03 -0.38934588907E+03  0.60729617865E+03  0.17661704895E+03 0.  0.
         24    2    3    3    0    0 -0.23216506411E+03  0.31764204862E+03 -0.29109153764E+03  0.49902297634E+03  0.97429767439E+02 0.  0.
         -6    2    1    2    0  502  0.27497434962E+03 -0.33228594965E+03 -0.16784984936E+04  0.17415377850E+04  0.17196458357E+03 0.  0.
        -24    2    5    5    0    0  0.28460306020E+03 -0.32074898162E+03 -0.14929855606E+04  0.15553578933E+04  0.79078956014E+02 0.  0.
          5    1    3    3  501    0 -0.42809285504E+02  0.14643901033E+02 -0.98254351429E+02  0.10827320231E+03  0.47000000000E+01 0. -1.
        -13    1    4    4    0    0 -0.13023856078E+02  0.39838799510E+00  0.38399717492E+01  0.13583995111E+02  0.00000000000E+00 0.  1.
         14    1    4    4    0    0 -0.21914120804E+03  0.31724366063E+03 -0.29493150939E+03  0.48543898123E+03  0.00000000000E+00 0. -1.
         -5    1    5    5    0  502 -0.96287105799E+01 -0.11536968033E+02 -0.18551293309E+03  0.18617989162E+03  0.47000000000E+01 0.  1.
         11    1    6    6    0    0  0.11434108874E+03 -0.73942519375E+02 -0.47574529349E+03  0.49484842632E+03  0.00000000000E+00 0. -1.
        -12    1    6    6    0    0  0.17026197146E+03 -0.24680646225E+03 -0.10172402671E+04  0.10605094670E+04  0.00000000000E+00 0.  1.
<mgrwt>
<rscale>  2 0.46563059E+03</rscale>
<asrwt>0</asrwt>
<pdfrwt beam="1">  1       21 0.21614581E-01 0.46606698E+03</pdfrwt>
<pdfrwt beam="2">  1       21 0.33974452E+00 0.46606698E+03</pdfrwt>
<totfact> 0.30983699E+02</totfact>
</mgrwt>
</event>
<event>
12    1  0.1019868E-001  0.2019318E+03  0.7546771E-02  0.1148188E+00
         21   -1    0    0  503  502  0.00000000000E+00  0.00000000000E+00  0.13836769553E+03  0.13836769553E+03  0.00000000000E+00 0.  1.
         21   -1    0    0  501  503 -0.00000000000E+00 -0.00000000000E+00 -0.10021935916E+04  0.10021935916E+04  0.00000000000E+00 0.  1.
          6    2    1    2  501    0  0.10506674046E+03  0.42860023169E+01 -0.91112617838E+03  0.93316369418E+03  0.17200632964E+03 0.  0.
         24    2    3    3    0    0  0.73450203163E+02  0.53347545494E+02 -0.36155827094E+03  0.38048511188E+03  0.76181652106E+02 0.  0.
         -6    2    1    2    0  502 -0.10506674046E+03 -0.42860023169E+01  0.47300282343E+02  0.20739759291E+03  0.17239215490E+03 0.  0.
        -24    2    5    5    0    0 -0.83062553398E+02 -0.47303041590E+02  0.79961014386E+02  0.14888722346E+03  0.81465796307E+02 0.  0.
          5    1    3    3  501    0  0.31616537294E+02 -0.49061543177E+02 -0.54956790744E+03  0.55267858230E+03  0.47000000000E+01 0. -1.
        -11    1    4    4    0    0  0.17430480469E+02  0.29789821874E+02 -0.25887798927E+03  0.26116865904E+03  0.00000000000E+00 0.  1.
         12    1    4    4    0    0  0.56019722694E+02  0.23557723621E+02 -0.10268028167E+03  0.11931645283E+03  0.00000000000E+00 0. -1.
         -5    1    5    5    0  502 -0.22004187059E+02  0.43017039273E+02 -0.32660732043E+02  0.58510369453E+02  0.47000000000E+01 0.  1.
         11    1    6    6    0    0 -0.15185213532E+02  0.17135130727E+02 -0.38935400143E+01  0.23224191458E+02  0.00000000000E+00 0. -1.
        -12    1    6    6    0    0 -0.67877339866E+02 -0.64438172316E+02  0.83854554400E+02  0.12566303200E+03  0.00000000000E+00 0.  1.
<mgrwt>
<rscale>  2 0.20184941E+03</rscale>
<asrwt>0</asrwt>
<pdfrwt beam="1">  1       21 0.21287338E-01 0.20193178E+03</pdfrwt>
<pdfrwt beam="2">  1       21 0.15418363E+00 0.20193178E+03</pdfrwt>
<totfact> 0.56644465E+03</totfact>
</mgrwt>
</event>
<event>
12    1  0.1019868E-001  0.2173056E+03  0.7546771E-02  0.1136172E+00
         21   -1    0    0  501  502  0.00000000000E+00  0.00000000000E+00  0.52125090605E+02  0.52125090605E+02  0.00000000000E+00 0.  1.
         21   -1    0    0  502  503 -0.00000000000E+00 -0.00000000000E+00 -0.13908117870E+04  0.13908117870E+04  0.00000000000E+00 0. -1.
         -6    2    1    2    0  503  0.12405699389E+03 -0.39694018540E+02 -0.10992632440E+04  0.11205362194E+04  0.17394248101E+03 0.  0.
        -24    2    3    3    0    0  0.17743426151E+02  0.37600476360E+02 -0.38550408624E+03  0.39475991859E+03  0.74117257290E+02 0.  0.
          6    2    1    2  501    0 -0.12405699389E+03  0.39694018540E+02 -0.23942345238E+03  0.32240065812E+03  0.17220000570E+03 0.  0.
         24    2    5    5    0    0 -0.79575237984E+02  0.82266942033E+02 -0.10086781637E+03  0.17070743252E+03  0.76594013379E+02 0.  0.
          5    1    5    5  501    0 -0.44481755907E+02 -0.42572923493E+02 -0.13855563601E+03  0.15169322560E+03  0.47000000000E+01 0. -1.
        -13    1    6    6    0    0 -0.77290805867E+00  0.40817118026E+01  0.11818485921E+02  0.12527344794E+02  0.00000000000E+00 0.  1.
         14    1    6    6    0    0 -0.78802329925E+02  0.78185230230E+02 -0.11268630229E+03  0.15818008772E+03  0.00000000000E+00 0. -1.
         -5    1    3    3    0  503  0.10631356774E+03 -0.77294494900E+02 -0.71375915774E+03  0.72577630085E+03  0.47000000000E+01 0.  1.
         13    1    4    4    0    0 -0.22328729471E+02  0.22014094685E+02 -0.26433602997E+03  0.26618927338E+03  0.00000000000E+00 0. -1.
        -14    1    4    4    0    0  0.40072155622E+02  0.15586381675E+02 -0.12116805627E+03  0.12857064521E+03  0.00000000000E+00 0.  1.
<mgrwt>
<rscale>  2 0.21695674E+03</rscale>
<asrwt>0</asrwt>
<pdfrwt beam="1">  1       21 0.80192446E-02 0.21730564E+03</pdfrwt>
<pdfrwt beam="2">  1       21 0.21397105E+00 0.21730564E+03</pdfrwt>
<totfact> 0.12837909E+04</totfact>
</mgrwt>
</event>
<event>
12    1  0.1019868E-001  0.2029993E+03  0.7546771E-02  0.1147271E+00
         21   -1    0    0  503  502  0.00000000000E+00  0.00000000000E+00  0.91826748492E+02  0.91826748492E+02  0.00000000000E+00 0. -1.
         21   -1    0    0  501  503 -0.00000000000E+00 -0.00000000000E+00 -0.96549288021E+03  0.96549288021E+03  0.00000000000E+00 0.  1.
          6    2    1    2  501    0 -0.55337817311E+02 -0.91791247849E+02 -0.82382829323E+03  0.84847026286E+03  0.17239728253E+03 0.  0.
         24    2    3    3    0    0 -0.41378994855E+02  0.19210917707E+02 -0.31355593894E+03  0.32605635126E+03  0.76903424997E+02 0.  0.
         -6    2    1    2    0  502  0.55337817311E+02  0.91791247849E+02 -0.49837838488E+02  0.20884936584E+03  0.17218112632E+03 0.  0.
        -24    2    5    5    0    0  0.27477551539E+02  0.59322404183E+02 -0.97901351253E+02  0.14433106242E+03  0.83502200714E+02 0.  0.
          5    1    3    3  501    0 -0.13958822456E+02 -0.11100216556E+03 -0.51027235429E+03  0.52241391161E+03  0.47000000000E+01 0. -1.
        -13    1    4    4    0    0 -0.49891414434E+02  0.81310201805E+01 -0.30604817702E+03  0.31019470237E+03  0.00000000000E+00 0.  1.
         14    1    4    4    0    0  0.85124195791E+01  0.11079897526E+02 -0.75077619215E+01  0.15861648885E+02  0.00000000000E+00 0. -1.
         -5    1    5    5    0  502  0.27860265771E+02  0.32468843666E+02  0.48063512765E+02  0.64518303428E+02  0.47000000000E+01 0.  1.
         11    1    6    6    0    0  0.18612980451E+02  0.48160373851E+02 -0.67492978080E+01  0.52071274919E+02  0.00000000000E+00 0. -1.
        -12    1    6    6    0    0  0.88645710880E+01  0.11162030332E+02 -0.91152053445E+02  0.92259787497E+02  0.00000000000E+00 0.  1.
<mgrwt>
<rscale>  2 0.20295344E+03</rscale>
<asrwt>0</asrwt>
<pdfrwt beam="1">  1       21 0.14127192E-01 0.20299934E+03</pdfrwt>
<pdfrwt beam="2">  1       21 0.14853737E+00 0.20299934E+03</pdfrwt>
<totfact> 0.13316060E+04</totfact>
</mgrwt>
</event>
<event>
12    1  0.1019868E-001  0.3369008E+03  0.7546771E-02  0.1068390E+00
         21   -1    0    0  503  502  0.00000000000E+00  0.00000000000E+00  0.26355470834E+03  0.26355470834E+03  0.00000000000E+00 0.  1.
         21   -1    0    0  501  503 -0.00000000000E+00 -0.00000000000E+00 -0.22087806910E+04  0.22087806910E+04  0.00000000000E+00 0. -1.
          6    2    1    2  501    0 -0.28824874537E+03 -0.14406903196E+02 -0.20834082072E+04  0.21104719611E+04  0.17380230868E+03 0.  0.
         24    2    3    3    0    0 -0.21978730936E+03  0.15579188379E+02 -0.11325948828E+04  0.11567140244E+04  0.81651657608E+02 0.  0.
         -6    2    1    2    0  502  0.28824874537E+03  0.14406903196E+02  0.13818222453E+03  0.36186343830E+03  0.16898497785E+03 0.  0.
        -24    2    5    5    0    0  0.22813103158E+03  0.68409498790E+02  0.11901114000E+03  0.27867665856E+03  0.82300677322E+02 0.  0.
          5    1    3    3  501    0 -0.68461436007E+02 -0.29986091575E+02 -0.95081332441E+03  0.95375793668E+03  0.47000000000E+01 0. -1.
        -13    1    4    4    0    0 -0.16015700319E+03 -0.26816695981E+01 -0.62073214025E+03  0.64106617986E+03  0.00000000000E+00 0.  1.
         14    1    4    4    0    0 -0.59630306175E+02  0.18260857977E+02 -0.51186274255E+03  0.51564784452E+03  0.00000000000E+00 0. -1.
         -5    1    5    5    0  502  0.60117713795E+02 -0.54002595594E+02  0.19171084529E+02  0.83186779747E+02  0.47000000000E+01 0.  1.
         11    1    6    6    0    0  0.20105215657E+02  0.25660615199E+02  0.41111531301E+02  0.52467560215E+02  0.00000000000E+00 0. -1.
        -12    1    6    6    0    0  0.20802581592E+03  0.42748883591E+02  0.77899608698E+02  0.22620909834E+03  0.00000000000E+00 0.  1.
<mgrwt>
<rscale>  2 0.33628416E+03</rscale>
<asrwt>0</asrwt>
<pdfrwt beam="1">  1       21 0.40546876E-01 0.33690079E+03</pdfrwt>
<pdfrwt beam="2">  1       21 0.33981243E+00 0.33690079E+03</pdfrwt>
<totfact> 0.98032523E+01</totfact>
</mgrwt>
</event>
<event>
12    1  0.1019868E-001  0.2030544E+03  0.7546771E-02  0.1147780E+00
         21   -1    0    0  501  502  0.00000000000E+00  0.00000000000E+00  0.17407677894E+03  0.17407677894E+03  0.00000000000E+00 0. -1.
         21   -1    0    0  502  503 -0.00000000000E+00 -0.00000000000E+00 -0.23466753801E+03  0.23466753801E+03  0.00000000000E+00 0. -1.
         -6    2    1    2    0  503  0.36342586319E+02  0.10082177262E+03 -0.16412919208E+02  0.20371663331E+03  0.17246816910E+03 0.  0.
        -24    2    3    3    0    0 -0.42469606034E+02  0.62969401162E+02 -0.29367988592E+02  0.11520625249E+03  0.81493490172E+02 0.  0.
          6    2    1    2  501    0 -0.36342586319E+02 -0.10082177262E+03 -0.44177839862E+02  0.20502768364E+03  0.16911196324E+03 0.  0.
         24    2    5    5    0    0 -0.33123466696E+02 -0.64821152159E+02 -0.94143896671E+02  0.14318025655E+03  0.79615116477E+02 0.  0.
          5    1    5    5  501    0 -0.32191196229E+01 -0.36000620466E+02  0.49966056809E+02  0.61847427094E+02  0.47000000000E+01 0. -1.
        -11    1    6    6    0    0  0.23336123221E+01 -0.29460338782E+02 -0.87877785627E+02  0.92713874443E+02  0.00000000000E+00 0.  1.
         12    1    6    6    0    0 -0.35457079018E+02 -0.35360813377E+02 -0.62661110444E+01  0.50466382105E+02  0.00000000000E+00 0. -1.
         -5    1    3    3    0  503  0.78812192353E+02  0.37852371463E+02  0.12955069384E+02  0.88510380812E+02  0.47000000000E+01 0.  1.
         11    1    4    4    0    0  0.18115226284E+02  0.28618208625E+02  0.98560524309E+01  0.35274708472E+02  0.00000000000E+00 0. -1.
        -12    1    4    4    0    0 -0.60584832317E+02  0.34351192536E+02 -0.39224041023E+02  0.79931544022E+02  0.00000000000E+00 0.  1.
<mgrwt>
<rscale>  2 0.20233992E+03</rscale>
<asrwt>0</asrwt>
<pdfrwt beam="1">  1       21 0.26781043E-01 0.20305438E+03</pdfrwt>
<pdfrwt beam="2">  1       21 0.36102698E-01 0.20305438E+03</pdfrwt>
<totfact> 0.97807855E+04</totfact>
</mgrwt>
</event>
<event>
12    1  0.1019868E-001  0.2495315E+03  0.7546771E-02  0.1113752E+00
         21   -1    0    0  501  502  0.00000000000E+00  0.00000000000E+00  0.16859237729E+03  0.16859237729E+03  0.00000000000E+00 0.  1.
         21   -1    0    0  502  503 -0.00000000000E+00 -0.00000000000E+00 -0.53109631978E+03  0.53109631978E+03  0.00000000000E+00 0. -1.
         -6    2    1    2    0  503 -0.66673729198E+02 -0.16581540744E+03  0.12905480026E+02  0.24891360233E+03  0.17277527168E+03 0.  0.
        -24    2    3    3    0    0 -0.58270408260E+02 -0.98410455895E+02 -0.60091225195E+02  0.14909049745E+03  0.74410770571E+02 0.  0.
          6    2    1    2  501    0  0.66673729198E+02  0.16581540744E+03 -0.37540942252E+03  0.45077509474E+03  0.17414309061E+03 0.  0.
         24    2    5    5    0    0  0.95036370103E+02  0.17521327739E+03 -0.29889548787E+03  0.36849975484E+03  0.81987513867E+02 0.  0.
          5    1    5    5  501    0 -0.28362640904E+02 -0.93978699581E+01 -0.76513934657E+02  0.82275339899E+02  0.47000000000E+01 0. -1.
        -11    1    6    6    0    0  0.38695035229E+02  0.15525873312E+02 -0.92976686402E+02  0.10189711825E+03  0.00000000000E+00 0.  1.
         12    1    6    6    0    0  0.56341334874E+02  0.15968740408E+03 -0.20591880146E+03  0.26660263659E+03  0.00000000000E+00 0. -1.
         -5    1    3    3    0  503 -0.84033209379E+01 -0.67404951542E+02  0.72996705221E+02  0.99823104882E+02  0.47000000000E+01 0.  1.
         13    1    4    4    0    0 -0.10092723715E+02  0.11257388801E+02 -0.14426371789E+02  0.20897657227E+02  0.00000000000E+00 0. -1.
        -14    1    4    4    0    0 -0.48177684546E+02 -0.10966784470E+03 -0.45664853406E+02  0.12819284023E+03  0.00000000000E+00 0.  1.
<mgrwt>
<rscale>  2 0.24929296E+03</rscale>
<asrwt>0</asrwt>
<pdfrwt beam="1">  1       21 0.25937288E-01 0.24953146E+03</pdfrwt>
<pdfrwt beam="2">  1       21 0.81707128E-01 0.24953146E+03</pdfrwt>
<totfact> 0.17923337E+04</totfact>
</mgrwt>
</event>
<event>
12    1  0.1019868E-001  0.1834987E+03  0.7546771E-02  0.1164649E+00
         21   -1    0    0  503  502  0.00000000000E+00  0.00000000000E+00  0.22200634598E+03  0.22200634598E+03  0.00000000000E+00 0.  1.
         21   -1    0    0  501  503 -0.00000000000E+00 -0.00000000000E+00 -0.16621793700E+03  0.16621793700E+03  0.00000000000E+00 0.  1.
          6    2    1    2  501    0 -0.45629024489E+02  0.41949901346E+02  0.86558598707E+02  0.20216363494E+03  0.17186024026E+03 0.  0.
         24    2    3    3    0    0  0.12358728382E+02 -0.30594814521E+02  0.59375186237E+02  0.10528049298E+03  0.80434996226E+02 0.  0.
         -6    2    1    2    0  502  0.45629024489E+02 -0.41949901346E+02 -0.30770189726E+02  0.18606064804E+03  0.17271351445E+03 0.  0.
        -24    2    5    5    0    0  0.97249576464E+01  0.16772371095E+02 -0.68849496292E+02  0.10726007136E+03  0.79928608985E+02 0.  0.
          5    1    3    3  501    0 -0.57987752872E+02  0.72544715867E+02  0.27183412470E+02  0.96883141964E+02  0.47000000000E+01 0. -1.
        -13    1    4    4    0    0 -0.64477176118E+01  0.17371251433E+02  0.49456068487E+02  0.52813219452E+02  0.00000000000E+00 0.  1.
         14    1    4    4    0    0  0.18806445994E+02 -0.47966065955E+02  0.99191177501E+01  0.52467273524E+02  0.00000000000E+00 0. -1.
         -5    1    5    5    0  502  0.35904066843E+02 -0.58722272441E+02  0.38079306566E+02  0.78800576679E+02  0.47000000000E+01 0.  1.
         11    1    6    6    0    0  0.11098682623E+02 -0.31488565860E+02 -0.34480367919E+02  0.47995898863E+02  0.00000000000E+00 0. -1.
        -12    1    6    6    0    0 -0.13737249766E+01  0.48260936955E+02 -0.34369128373E+02  0.59264172493E+02  0.00000000000E+00 0.  1.
<mgrwt>
<rscale>  2 0.18329761E+03</rscale>
<asrwt>0</asrwt>
<pdfrwt beam="1">  1       21 0.34154822E-01 0.18349867E+03</pdfrwt>
<pdfrwt beam="2">  1       21 0.25571990E-01 0.18349867E+03</pdfrwt>
<totfact> 0.12020176E+05</totfact>
</mgrwt>
</event>
<event>
12    1  0.1019868E-001  0.2016565E+03  0.7546771E-02  0.1148741E+00
         21   -1    0    0  503  502  0.00000000000E+00  0.00000000000E+00  0.87189187651E+03  0.87189187651E+03  0.00000000000E+00 0.  1.
         21   -1    0    0  501  503 -0.00000000000E+00 -0.00000000000E+00 -0.54018095914E+02  0.54018095914E+02  0.00000000000E+00 0. -1.
          6    2    1    2  501    0 -0.10270904477E+03 -0.14244542138E+01  0.23454780575E+03  0.30931863037E+03  0.17353433368E+03 0.  0.
         24    2    3    3    0    0 -0.50818393820E+02  0.30870227547E+02  0.22683233623E+03  0.24753510024E+03  0.79279486574E+02 0.  0.
         -6    2    1    2    0  502  0.10270904477E+03  0.14244542138E+01  0.58332597484E+03  0.61659134205E+03  0.17136076920E+03 0.  0.
        -24    2    5    5    0    0  0.94916182158E+02  0.57281443620E+02  0.36399986247E+03  0.39008137419E+03  0.85891403478E+02 0.  0.
          5    1    3    3  501    0 -0.51890650947E+02 -0.32294681761E+02  0.77154695233E+01  0.61783530133E+02  0.47000000000E+01 0. -1.
        -13    1    4    4    0    0  0.61170474759E+01 -0.18482175274E+02  0.22501221051E+02  0.29754226951E+02  0.00000000000E+00 0.  1.
         14    1    4    4    0    0 -0.56935441296E+02  0.49352402821E+02  0.20433111518E+03  0.21778087329E+03  0.00000000000E+00 0. -1.
         -5    1    5    5    0  502  0.77928626088E+01 -0.55856989406E+02  0.21932611237E+03  0.22650996786E+03  0.47000000000E+01 0.  1.
         11    1    6    6    0    0  0.39181972908E+02  0.61340868800E+02  0.27914537049E+03  0.28847888494E+03  0.00000000000E+00 0. -1.
        -12    1    6    6    0    0  0.55734209250E+02 -0.40594251801E+01  0.84854491977E+02  0.10160248925E+03  0.00000000000E+00 0.  1.
<mgrwt>
<rscale>  2 0.20118802E+03</rscale>
<asrwt>0</asrwt>
<pdfrwt beam="1">  1       21 0.13413720E+00 0.20165649E+03</pdfrwt>
<pdfrwt beam="2">  1       21 0.83104769E-02 0.20165649E+03</pdfrwt>
<totfact> 0.44613631E+04</totfact>
</mgrwt>
</event>
<event>
12    1  0.1019868E-001  0.1780951E+03  0.7546771E-02  0.1170554E+00
         21   -1    0    0  503  502  0.00000000000E+00  0.00000000000E+00  0.72891545399E+03  0.72891545399E+03  0.00000000000E+00 0.  1.
         21   -1    0    0  501  503 -0.00000000000E+00 -0.00000000000E+00 -0.42708230985E+02  0.42708230985E+02  0.00000000000E+00 0.  1.
          6    2    1    2  501    0 -0.17208578234E+02 -0.12344946746E+02  0.32383393995E+03  0.36785115439E+03  0.17319791642E+03 0.  0.
         24    2    3    3    0    0  0.30360266026E+02  0.27372367603E+02  0.27273797825E+03  0.28739528261E+03  0.80864401447E+02 0.  0.
         -6    2    1    2    0  502  0.17208578234E+02  0.12344946746E+02  0.36237328306E+03  0.40377253058E+03  0.17683135272E+03 0.  0.
        -24    2    5    5    0    0 -0.10648108579E+02 -0.51163365095E+02  0.27679762869E+03  0.29352470387E+03  0.82515164618E+02 0.  0.
          5    1    3    3  501    0 -0.47568844261E+02 -0.39717314349E+02  0.51095961692E+02  0.80455871784E+02  0.47000000000E+01 0. -1.
        -11    1    4    4    0    0 -0.82548311144E+01  0.46551265064E+02  0.15252757101E+03  0.15968663825E+03  0.00000000000E+00 0.  1.
         12    1    4    4    0    0  0.38615097141E+02 -0.19178897462E+02  0.12021040724E+03  0.12770864436E+03  0.00000000000E+00 0. -1.
         -5    1    5    5    0  502  0.27856686813E+02  0.63508311842E+02  0.85575654366E+02  0.11024782671E+03  0.47000000000E+01 0.  1.
         13    1    6    6    0    0 -0.38309002207E+01  0.22783823407E+02  0.56224111576E+02  0.60785928701E+02  0.00000000000E+00 0. -1.
        -14    1    6    6    0    0 -0.68172083583E+01 -0.73947188502E+02  0.22057351711E+03  0.23273877517E+03  0.00000000000E+00 0.  1.
<mgrwt>
<rscale>  2 0.17718638E+03</rscale>
<asrwt>0</asrwt>
<pdfrwt beam="1">  1       21 0.11214083E+00 0.17809509E+03</pdfrwt>
<pdfrwt beam="2">  1       21 0.65704976E-02 0.17809509E+03</pdfrwt>
<totfact> 0.10580098E+05</totfact>
</mgrwt>
</event>
<event>
12    1  0.1019868E-001  0.2420097E+03  0.7546771E-02  0.1119447E+00
         21   -1    0    0  501  502  0.00000000000E+00  0.00000000000E+00  0.61724749055E+03  0.61724749055E+03  0.00000000000E+00 0.  1.
         21   -1    0    0  502  503 -0.00000000000E+00 -0.00000000000E+00 -0.93956571273E+02  0.93956571273E+02  0.00000000000E+00 0. -1.
         -6    2    1    2    0  503 -0.15837438458E+03 -0.16753379575E+02  0.21549603961E+03  0.31966048852E+03  0.17430193176E+03 0.  0.
        -24    2    3    3    0    0 -0.14071200631E+02 -0.11429601270E+02  0.38092559572E+02  0.90868364002E+02  0.80482184422E+02 0.  0.
          6    2    1    2  501    0  0.15837438458E+03  0.16753379575E+02  0.30779487967E+03  0.39154357330E+03  0.18222392935E+03 0.  0.
         24    2    5    5    0    0  0.61766051287E+02  0.61179367043E+02  0.23339150418E+03  0.26167906427E+03  0.80289341809E+02 0.  0.
          5    1    5    5  501    0  0.96608333288E+02 -0.44425987468E+02  0.74403375484E+02  0.12986450903E+03  0.47000000000E+01 0. -1.
        -13    1    6    6    0    0  0.39877791009E+02  0.26145167778E+02  0.20753928449E+03  0.21294685399E+03  0.00000000000E+00 0.  1.
         14    1    6    6    0    0  0.21888260278E+02  0.35034199265E+02  0.25852219687E+02  0.48732210281E+02  0.00000000000E+00 0. -1.
         -5    1    3    3    0  503 -0.14430318394E+03 -0.53237783043E+01  0.17740348004E+03  0.22879212452E+03  0.47000000000E+01 0.  1.
         11    1    4    4    0    0  0.33279157248E+02 -0.27922506110E+01  0.88465350428E+01  0.34547939923E+02  0.00000000000E+00 0. -1.
        -12    1    4    4    0    0 -0.47350357880E+02 -0.86373506594E+01  0.29246024529E+02  0.56320424080E+02  0.00000000000E+00 0.  1.
<mgrwt>
<rscale>  2 0.24051911E+03</rscale>
<asrwt>0</asrwt>
<pdfrwt beam="1">  1       21 0.94961150E-01 0.24200967E+03</pdfrwt>
<pdfrwt beam="2">  1       21 0.14454857E-01 0.24200967E+03</pdfrwt>
<totfact> 0.37954954E+04</totfact>
</mgrwt>
</event>
<event>
12    1  0.1019868E-001  0.2290571E+03  0.7546771E-02  0.1127433E+00
         21   -1    0    0  501  502  0.00000000000E+00  0.00000000000E+00  0.73999280610E+03  0.73999280610E+03  0.00000000000E+00 0.  1.
         21   -1    0    0  502  503 -0.00000000000E+00 -0.00000000000E+00 -0.70714266087E+02  0.70714266087E+02  0.00000000000E+00 0.  1.
         -6    2    1    2    0  503 -0.14417651448E+03  0.44024019756E+02  0.34429494071E+03  0.41352888529E+03  0.17245912885E+03 0.  0.
        -24    2    3    3    0    0 -0.33864071525E+02  0.57323584404E+02  0.13203594038E+03  0.17390065925E+03  0.91516015362E+02 0.  0.
          6    2    1    2  501    0  0.14417651448E+03 -0.44024019756E+02  0.32498359930E+03  0.39717818690E+03  0.17149691161E+03 0.  0.
         24    2    5    5    0    0  0.83095335459E+02  0.36272829499E+02  0.13234695990E+03  0.17967080939E+03  0.80903207709E+02 0.  0.
          5    1    5    5  501    0  0.61081179018E+02 -0.80296849255E+02  0.19263663940E+03  0.21750737751E+03  0.47000000000E+01 0. -1.
        -13    1    6    6    0    0  0.91790042449E+02  0.38238434686E+02  0.82997943277E+02  0.12952315765E+03  0.00000000000E+00 0.  1.
         14    1    6    6    0    0 -0.86947069893E+01 -0.19656051877E+01  0.49349016618E+02  0.50147651735E+02  0.00000000000E+00 0. -1.
         -5    1    3    3    0  503 -0.11031244295E+03 -0.13299564648E+02  0.21225900034E+03  0.23962822604E+03  0.47000000000E+01 0.  1.
         13    1    4    4    0    0  0.55468682341E+01 -0.13318586051E+01  0.92990106383E+02  0.93164915498E+02  0.00000000000E+00 0. -1.
        -14    1    4    4    0    0 -0.39410939759E+02  0.58655443009E+02  0.39045833995E+02  0.80735743755E+02  0.00000000000E+00 0.  1.
<mgrwt>
<rscale>  2 0.22887594E+03</rscale>
<asrwt>0</asrwt>
<pdfrwt beam="1">  1       21 0.11384504E+00 0.22905705E+03</pdfrwt>
<pdfrwt beam="2">  1       21 0.10879118E-01 0.22905705E+03</pdfrwt>
<totfact> 0.41204119E+04</totfact>
</mgrwt>
</event>
<event>
12    1  0.1019868E-001  0.1810237E+03  0.7546771E-02  0.1167892E+00
         21   -1    0    0  503  502  0.00000000000E+00  0.00000000000E+00  0.16382437095E+03  0.16382437095E+03  0.00000000000E+00 0.  1.
         21   -1    0    0  501  503 -0.00000000000E+00 -0.00000000000E+00 -0.19968465742E+03  0.19968465742E+03  0.00000000000E+00 0.  1.
          6    2    1    2  501    0 -0.64088378874E+01 -0.41981112857E+02 -0.45461898639E+02  0.18664505209E+03  0.17597188469E+03 0.  0.
         24    2    3    3    0    0 -0.52387023307E+02  0.22953895152E+02 -0.15420714771E+02  0.10146810962E+03  0.82381413634E+02 0.  0.
         -6    2    1    2    0  502  0.64088378874E+01  0.41981112857E+02  0.96016121656E+01  0.17686397628E+03  0.17142108421E+03 0.  0.
        -24    2    5    5    0    0 -0.47523695597E+02  0.56401429718E+02 -0.22656054790E+02  0.11221638713E+03  0.81483727233E+02 0.  0.
          5    1    3    3  501    0  0.45978185419E+02 -0.64935008008E+02 -0.30041183868E+02  0.85176942465E+02  0.47000000000E+01 0. -1.
        -11    1    4    4    0    0 -0.27103961833E+02 -0.25021513255E+02 -0.27375743542E+02  0.45936175364E+02  0.00000000000E+00 0.  1.
         12    1    4    4    0    0 -0.25283061474E+02  0.47975408407E+02  0.11955028771E+02  0.55531934256E+02  0.00000000000E+00 0. -1.
         -5    1    5    5    0  502  0.53932533484E+02 -0.14420316861E+02  0.32257666956E+02  0.64647589157E+02  0.47000000000E+01 0.  1.
         13    1    6    6    0    0 -0.58388983527E+02  0.69045848745E+01 -0.17131393985E+02  0.61240765422E+02  0.00000000000E+00 0. -1.
        -14    1    6    6    0    0  0.10865287930E+02  0.49496844843E+02 -0.55246608053E+01  0.50975621705E+02  0.00000000000E+00 0.  1.
<mgrwt>
<rscale>  2 0.17990832E+03</rscale>
<asrwt>0</asrwt>
<pdfrwt beam="1">  1       21 0.25203749E-01 0.18102373E+03</pdfrwt>
<pdfrwt beam="2">  1       21 0.30720717E-01 0.18102373E+03</pdfrwt>
<totfact> 0.15229098E+05</totfact>
</mgrwt>
</event>
<event>
12    1  0.1019868E-001  0.2050389E+03  0.7546771E-02  0.1145663E+00
         21   -1    0    0  501  502  0.00000000000E+00  0.00000000000E+00  0.23255173083E+03  0.23255173083E+03  0.00000000000E+00 0.  1.
         21   -1    0    0  502  503 -0.00000000000E+00 -0.00000000000E+00 -0.10351231923E+04  0.10351231923E+04  0.00000000000E+00 0.  1.
         -6    2    1    2    0  503 -0.72457844907E+02 -0.79621308809E+02 -0.97718609888E+03  0.99835871862E+03  0.17389010062E+03 0.  0.
        -24    2    3    3    0    0  0.18764996891E+02  0.19933336247E+01 -0.36715480863E+03  0.37615069729E+03  0.79565036810E+02 0.  0.
          6    2    1    2  501    0  0.72457844907E+02  0.79621308809E+02  0.17461463739E+03  0.26931620453E+03  0.17450287770E+03 0.  0.
         24    2    5    5    0    0  0.10763694763E+03  0.28678550385E+02  0.88125896676E+02  0.16284965497E+03  0.79659680586E+02 0.  0.
          5    1    5    5  501    0 -0.35179102728E+02  0.50942758425E+02  0.86488740711E+02  0.10646654956E+03  0.47000000000E+01 0. -1.
        -11    1    6    6    0    0  0.11439021912E+03  0.37329677151E+02  0.91723151655E+02  0.15130024315E+03  0.00000000000E+00 0.  1.
         12    1    6    6    0    0 -0.67532714872E+01 -0.86511267659E+01 -0.35972549791E+01  0.11549411824E+02  0.00000000000E+00 0. -1.
         -5    1    3    3    0  503 -0.91222841798E+02 -0.81614642434E+02 -0.61003129025E+03  0.62220802133E+03  0.47000000000E+01 0.  1.
         11    1    4    4    0    0  0.37207153526E+01  0.20446358353E+02 -0.22328466510E+02  0.30503404881E+02  0.00000000000E+00 0. -1.
        -12    1    4    4    0    0  0.15044281538E+02 -0.18453024728E+02 -0.34482634212E+03  0.34564729241E+03  0.00000000000E+00 0.  1.
<mgrwt>
<rscale>  2 0.20490845E+03</rscale>
<asrwt>0</asrwt>
<pdfrwt beam="1">  1       21 0.35777189E-01 0.20503889E+03</pdfrwt>
<pdfrwt beam="2">  1       21 0.15924972E+00 0.20503889E+03</pdfrwt>
<totfact> 0.18974520E+03</totfact>
</mgrwt>
</event>
<event>
12    1  0.1019868E-001  0.2653556E+03  0.7546771E-02  0.1104111E+00
         21   -1    0    0  503  502  0.00000000000E+00  0.00000000000E+00  0.24074804749E+03  0.24074804749E+03  0.00000000000E+00 0.  1.
         21   -1    0    0  501  503 -0.00000000000E+00 -0.00000000000E+00 -0.32313533926E+03  0.32313533926E+03  0.00000000000E+00 0. -1.
          6    2    1    2  501    0 -0.15598981094E+03  0.12514956236E+03 -0.12948504874E+03  0.29438049533E+03  0.17291114513E+03 0.  0.
         24    2    3    3    0    0 -0.22617655674E+02  0.89113969250E+02 -0.33748661662E+02  0.12623103330E+03  0.79639460956E+02 0.  0.
         -6    2    1    2    0  502  0.15598981094E+03 -0.12514956236E+03  0.47097756977E+02  0.26950289141E+03  0.17440864570E+03 0.  0.
        -24    2    5    5    0    0  0.10371833787E+03 -0.21771315534E+02  0.81609013916E+02  0.14853807972E+03  0.64591378557E+02 0.  0.
          5    1    3    3  501    0 -0.13337215526E+03  0.36035593109E+02 -0.95736387078E+02  0.16814946203E+03  0.47000000000E+01 0. -1.
        -13    1    4    4    0    0 -0.44351287039E+02  0.78092821233E+02 -0.43740509859E+02  0.99893731500E+02  0.00000000000E+00 0.  1.
         14    1    4    4    0    0  0.21733631365E+02  0.11021148016E+02  0.99918481977E+01  0.26337301804E+02  0.00000000000E+00 0. -1.
         -5    1    5    5    0  502  0.52271473068E+02 -0.10337824682E+03 -0.34511256940E+02  0.12096481170E+03  0.47000000000E+01 0.  1.
         13    1    6    6    0    0  0.19025544023E+02 -0.78704020540E+00 -0.10432194505E+02  0.21712241704E+02  0.00000000000E+00 0. -1.
        -14    1    6    6    0    0  0.84692793846E+02 -0.20984275329E+02  0.92041208421E+02  0.12682583801E+03  0.00000000000E+00 0.  1.
<mgrwt>
<rscale>  2 0.26510983E+03</rscale>
<asrwt>0</asrwt>
<pdfrwt beam="1">  1       21 0.37038161E-01 0.26535563E+03</pdfrwt>
<pdfrwt beam="2">  1       21 0.49713129E-01 0.26535563E+03</pdfrwt>
<totfact> 0.26145825E+04</totfact>
</mgrwt>
</event>
<event>
12    1  0.1019868E-001  0.2184224E+03  0.7546771E-02  0.1135228E+00
         21   -1    0    0  501  502  0.00000000000E+00  0.00000000000E+00  0.57329701148E+03  0.57329701148E+03  0.00000000000E+00 0.  1.
         21   -1    0    0  502  503 -0.00000000000E+00 -0.00000000000E+00 -0.88537300768E+02  0.88537300768E+02  0.00000000000E+00 0. -1.
         -6    2    1    2    0  503  0.71584603842E+02  0.11343031729E+03  0.15834625446E+03  0.26908235796E+03  0.17129210921E+03 0.  0.
        -24    2    3    3    0    0  0.16107312358E+02  0.88678125109E+02  0.25613336532E+02  0.12303264591E+03  0.79735397204E+02 0.  0.
          6    2    1    2  501    0 -0.71584603842E+02 -0.11343031729E+03  0.32641345625E+03  0.39275195428E+03  0.17238782088E+03 0.  0.
         24    2    5    5    0    0 -0.60826811569E+02 -0.61461957514E+02  0.31748340842E+03  0.33873088186E+03  0.80407850827E+02 0.  0.
          5    1    5    5  501    0 -0.10757792273E+02 -0.51968359772E+02  0.89300478279E+01  0.54021072428E+02  0.47000000000E+01 0. -1.
        -13    1    6    6    0    0 -0.49049774600E+02 -0.79541697412E+02  0.22250239004E+03  0.24132980668E+03  0.00000000000E+00 0.  1.
         14    1    6    6    0    0 -0.11777036969E+02  0.18079739898E+02  0.94981018374E+02  0.97401075179E+02  0.00000000000E+00 0. -1.
         -5    1    3    3    0  503  0.55477291485E+02  0.24752192178E+02  0.13273291793E+03  0.14604971205E+03  0.47000000000E+01 0.  1.
         13    1    4    4    0    0  0.27308508694E+02  0.86022069052E+02  0.44721143556E+02  0.10072503012E+03  0.00000000000E+00 0. -1.
        -14    1    4    4    0    0 -0.11201196337E+02  0.26560560571E+01 -0.19107807024E+02  0.22307615794E+02  0.00000000000E+00 0.  1.
<mgrwt>
<rscale>  2 0.21820616E+03</rscale>
<asrwt>0</asrwt>
<pdfrwt beam="1">  1       21 0.88199538E-01 0.21842242E+03</pdfrwt>
<pdfrwt beam="2">  1       21 0.13621124E-01 0.21842242E+03</pdfrwt>
<totfact> 0.50790503E+04</totfact>
</mgrwt>
</event>
<event>
12    1  0.1019868E-001  0.1892000E+03  0.7546771E-02  0.1159486E+00
         21   -1    0    0  503  502  0.00000000000E+00  0.00000000000E+00  0.11153261643E+03  0.11153261643E+03  0.00000000000E+00 0. -1.
         21   -1    0    0  501  503 -0.00000000000E+00 -0.00000000000E+00 -0.64558481329E+03  0.64558481329E+03  0.00000000000E+00 0. -1.
          6    2    1    2  501    0  0.72646811778E+02 -0.32332183151E+01 -0.53593099169E+03  0.56790810997E+03  0.17323273521E+03 0.  0.
         24    2    3    3    0    0  0.29002829487E+02 -0.63979223983E+02 -0.23952898207E+03  0.26217764747E+03  0.80177804650E+02 0.  0.
         -6    2    1    2    0  502 -0.72646811778E+02  0.32332183151E+01  0.18787948279E+01  0.18920931975E+03  0.17466718023E+03 0.  0.
        -24    2    5    5    0    0 -0.22023341060E+02  0.15229169399E+02 -0.63391839305E+02  0.10560917436E+03  0.80111280516E+02 0.  0.
          5    1    3    3  501    0  0.43643982291E+02  0.60746005668E+02 -0.29640200962E+03  0.30573046250E+03  0.47000000000E+01 0. -1.
        -11    1    4    4    0    0 -0.51380460206E+01  0.16906704300E+02 -0.27468129900E+02  0.32660899060E+02  0.00000000000E+00 0.  1.
         12    1    4    4    0    0  0.34140875508E+02 -0.80885928284E+02 -0.21206085218E+03  0.22951674841E+03  0.00000000000E+00 0. -1.
         -5    1    5    5    0  502 -0.50623470718E+02 -0.11995951084E+02  0.65270634133E+02  0.83600145395E+02  0.47000000000E+01 0.  1.
         11    1    6    6    0    0 -0.25262474604E+02  0.45592785834E+02 -0.29117768438E+02  0.59705436788E+02  0.00000000000E+00 0. -1.
        -12    1    6    6    0    0  0.32391335442E+01 -0.30363616434E+02 -0.34274070866E+02  0.45903737569E+02  0.00000000000E+00 0.  1.
<mgrwt>
<rscale>  2 0.18886826E+03</rscale>
<asrwt>0</asrwt>
<pdfrwt beam="1">  1       21 0.17158864E-01 0.18919999E+03</pdfrwt>
<pdfrwt beam="2">  1       21 0.99320742E-01 0.18919999E+03</pdfrwt>
<totfact> 0.25638142E+04</totfact>
</mgrwt>
</event>
<event>
12    1  0.1019868E-001  0.2000799E+03  0.7546771E-02  0.1149991E+00
         21   -1    0    0  501  502  0.00000000000E+00  0.00000000000E+00  0.62576023659E+02  0.62576023659E+02  0.00000000000E+00 0.  1.
         21   -1    0    0  502  503 -0.00000000000E+00 -0.00000000000E+00 -0.64533709459E+03  0.64533709459E+03  0.00000000000E+00 0.  1.
         -6    2    1    2    0  503 -0.45376514791E+02 -0.86762952505E+02 -0.33744636458E+03  0.39230345561E+03  0.17448528390E+03 0.  0.
        -24    2    3    3    0    0 -0.84162002932E+02 -0.61858612146E+02 -0.31233822379E+03  0.33960574226E+03  0.82868350417E+02 0.  0.
          6    2    1    2  501    0  0.45376514791E+02  0.86762952505E+02 -0.24531470636E+03  0.31560966264E+03  0.17275218081E+03 0.  0.
         24    2    5    5    0    0  0.96577880025E+02  0.72320294218E+02 -0.17201076544E+03  0.22491386376E+03  0.80256032916E+02 0.  0.
          5    1    5    5  501    0 -0.51201365234E+02  0.14442658286E+02 -0.73303940918E+02  0.90695798879E+02  0.47000000000E+01 0. -1.
        -13    1    6    6    0    0  0.26711717364E+02  0.68997232343E+02 -0.10141468736E+03  0.12553514539E+03  0.00000000000E+00 0.  1.
         14    1    6    6    0    0  0.69866162661E+02  0.33230618755E+01 -0.70596078076E+02  0.99378718370E+02  0.00000000000E+00 0. -1.
         -5    1    3    3    0  503  0.38785488141E+02 -0.24904340358E+02 -0.25108140794E+02  0.52697713358E+02  0.47000000000E+01 0.  1.
         13    1    4    4    0    0 -0.42546901001E+02 -0.19807170649E+02 -0.42360118985E+02  0.63221376720E+02  0.00000000000E+00 0. -1.
        -14    1    4    4    0    0 -0.41615101931E+02 -0.42051441497E+02 -0.26997810480E+03  0.27638436553E+03  0.00000000000E+00 0.  1.
<mgrwt>
<rscale>  2 0.19970139E+03</rscale>
<asrwt>0</asrwt>
<pdfrwt beam="1">  1       21 0.96270806E-02 0.20007986E+03</pdfrwt>
<pdfrwt beam="2">  1       21 0.99282629E-01 0.20007986E+03</pdfrwt>
<totfact> 0.72209106E+04</totfact>
</mgrwt>
</event>
<event>
12    1  0.1019868E-001  0.1745527E+03  0.7546771E-02  0.1174172E+00
         21   -1    0    0  503  502  0.00000000000E+00  0.00000000000E+00  0.36631564808E+03  0.36631564808E+03  0.00000000000E+00 0. -1.
         21   -1    0    0  501  503 -0.00000000000E+00 -0.00000000000E+00 -0.81709241385E+02  0.81709241385E+02  0.00000000000E+00 0. -1.
          6    2    1    2  501    0  0.75048172737E+01 -0.12366087367E+02  0.15588607688E+03  0.23114342801E+03  0.17005167729E+03 0.  0.
         24    2    3    3    0    0 -0.37693047764E+02  0.88497678002E+01  0.15756136096E+03  0.18096518481E+03  0.80148184053E+02 0.  0.
         -6    2    1    2    0  502 -0.75048172737E+01  0.12366087367E+02  0.12872032982E+03  0.21688146145E+03  0.17395229983E+03 0.  0.
        -24    2    5    5    0    0 -0.27852033305E+00 -0.42196268449E+02  0.18229232863E+02  0.93351535745E+02  0.81250240926E+02 0.  0.
          5    1    3    3  501    0  0.45197865038E+02 -0.21215855168E+02 -0.16752840747E+01  0.50178243205E+02  0.47000000000E+01 0. -1.
        -11    1    4    4    0    0 -0.41618684945E+02  0.38539067916E+02  0.12151340400E+03  0.13410026862E+03  0.00000000000E+00 0.  1.
         12    1    4    4    0    0  0.39256371813E+01 -0.29689300116E+02  0.36047956951E+02  0.46864916185E+02  0.00000000000E+00 0. -1.
         -5    1    5    5    0  502 -0.72262969407E+01  0.54562355816E+02  0.11049109695E+03  0.12352992571E+03  0.47000000000E+01 0.  1.
         13    1    6    6    0    0  0.94637027138E+01  0.20643108685E+02 -0.86677901948E+01  0.24306998829E+02  0.00000000000E+00 0. -1.
        -14    1    6    6    0    0 -0.97422230468E+01 -0.62839377134E+02  0.26897023058E+02  0.69044536915E+02  0.00000000000E+00 0.  1.
<mgrwt>
<rscale>  2 0.17357275E+03</rscale>
<asrwt>0</asrwt>
<pdfrwt beam="1">  1       21 0.56356253E-01 0.17455270E+03</pdfrwt>
<pdfrwt beam="2">  1       21 0.12570653E-01 0.17455270E+03</pdfrwt>
<totfact> 0.16087814E+05</totfact>
</mgrwt>
</event>
<event>
12    1  0.1019868E-001  0.2104779E+03  0.7546771E-02  0.1141220E+00
         21   -1    0    0  503  502  0.00000000000E+00  0.00000000000E+00  0.38995539431E+03  0.38995539431E+03  0.00000000000E+00 0.  1.
         21   -1    0    0  501  503 -0.00000000000E+00 -0.00000000000E+00 -0.21851677338E+03  0.21851677338E+03  0.00000000000E+00 0.  1.
          6    2    1    2  501    0  0.11781921699E+03  0.23862766538E+02 -0.12515677169E+03  0.24487783621E+03  0.17277192378E+03 0.  0.
         24    2    3    3    0    0 -0.52105044574E+01  0.34794554955E+02 -0.54505097294E+02  0.10250661210E+03  0.79366173413E+02 0.  0.
         -6    2    1    2    0  502 -0.11781921699E+03 -0.23862766538E+02  0.29659539263E+03  0.36359433148E+03  0.17257233683E+03 0.  0.
        -24    2    5    5    0    0 -0.82332626808E+02  0.29474743797E+02  0.94122816888E+02  0.15117629548E+03  0.79672741245E+02 0.  0.
          5    1    3    3  501    0  0.12302972145E+03 -0.10931788417E+02 -0.70651674395E+02  0.14237122411E+03  0.47000000000E+01 0. -1.
        -11    1    4    4    0    0  0.33180475290E+02  0.61209167674E+01 -0.40235297725E+02  0.52509891883E+02  0.00000000000E+00 0.  1.
         12    1    4    4    0    0 -0.38390979747E+02  0.28673638187E+02 -0.14269799569E+02  0.49996720218E+02  0.00000000000E+00 0. -1.
         -5    1    5    5    0  502 -0.35486590187E+02 -0.53337510335E+02  0.20247257574E+03  0.21241803600E+03  0.47000000000E+01 0.  1.
         11    1    6    6    0    0  0.13268766138E+02 -0.25789790971E+01  0.41452316026E+00  0.13523428465E+02  0.00000000000E+00 0. -1.
        -12    1    6    6    0    0 -0.95601392945E+02  0.32053722894E+02  0.93708293727E+02  0.13765286702E+03  0.00000000000E+00 0.  1.
<mgrwt>
<rscale>  2 0.21043692E+03</rscale>
<asrwt>0</asrwt>
<pdfrwt beam="1">  1       21 0.59993137E-01 0.21047788E+03</pdfrwt>
<pdfrwt beam="2">  1       21 0.33617965E-01 0.21047788E+03</pdfrwt>
<totfact> 0.21860854E+04</totfact>
</mgrwt>
</event>
<event>
12    1  0.1019868E-001  0.1799414E+03  0.7546771E-02  0.1168117E+00
         21   -1    0    0  503  502  0.00000000000E+00  0.00000000000E+00  0.18424981459E+03  0.18424981459E+03  0.00000000000E+00 0. -1.
         21   -1    0    0  501  503 -0.00000000000E+00 -0.00000000000E+00 -0.18556213816E+03  0.18556213816E+03  0.00000000000E+00 0. -1.
          6    2    1    2  501    0  0.28907289244E+02  0.30489120923E+02 -0.45394248181E+02  0.18557899110E+03  0.17496772932E+03 0.  0.
         24    2    3    3    0    0  0.81879729750E+01 -0.43315299356E+01  0.43973461121E+02  0.87342311292E+02  0.74894652718E+02 0.  0.
         -6    2    1    2    0  502 -0.28907289244E+02 -0.30489120923E+02  0.44081924613E+02  0.18423296165E+03  0.17387739996E+03 0.  0.
        -24    2    5    5    0    0 -0.12838759545E+01  0.10487943965E+02  0.86879230376E+02  0.11869005823E+03  0.80172837954E+02 0.  0.
          5    1    3    3  501    0  0.20719316269E+02  0.34820650859E+02 -0.89367709302E+02  0.98236679803E+02  0.47000000000E+01 0. -1.
        -13    1    4    4    0    0 -0.16689179371E+02  0.25711210997E+02  0.36436353632E+02  0.47615154573E+02  0.00000000000E+00 0.  1.
         14    1    4    4    0    0  0.24877152346E+02 -0.30042740933E+02  0.75371074889E+01  0.39727156718E+02  0.00000000000E+00 0. -1.
         -5    1    5    5    0  502 -0.27623413290E+02 -0.40977064888E+02 -0.42797305763E+02  0.65542903424E+02  0.47000000000E+01 0.  1.
         13    1    6    6    0    0  0.13578974155E+02 -0.30211998933E+02  0.57440461509E+02  0.66306561041E+02  0.00000000000E+00 0. -1.
        -14    1    6    6    0    0 -0.14862850110E+02  0.40699942898E+02  0.29438768867E+02  0.52383497189E+02  0.00000000000E+00 0.  1.
<mgrwt>
<rscale>  2 0.17967586E+03</rscale>
<asrwt>0</asrwt>
<pdfrwt beam="1">  1       21 0.28346125E-01 0.17994145E+03</pdfrwt>
<pdfrwt beam="2">  1       21 0.28548021E-01 0.17994145E+03</pdfrwt>
<totfact> 0.14019803E+05</totfact>
</mgrwt>
</event>
<event>
12    1  0.1019868E-001  0.2524887E+03  0.7546771E-02  0.1111910E+00
         21   -1    0    0  503  502  0.00000000000E+00  0.00000000000E+00  0.69435187014E+02  0.69435187014E+02  0.00000000000E+00 0. -1.
         21   -1    0    0  501  503 -0.00000000000E+00 -0.00000000000E+00 -0.11040607115E+04  0.11040607115E+04  0.00000000000E+00 0.  1.
          6    2    1    2  501    0 -0.10420943462E+03 -0.15076518637E+03 -0.76152133493E+03  0.80228752086E+03  0.17366857776E+03 0.  0.
         24    2    3    3    0    0 -0.69542221128E+02 -0.59844727766E+02 -0.60953712029E+03  0.62176152001E+03  0.81451671543E+02 0.  0.
         -6    2    1    2    0  502  0.10420943462E+03  0.15076518637E+03 -0.27310418954E+03  0.37120837763E+03  0.17210465884E+03 0.  0.
        -24    2    5    5    0    0  0.12918885259E+03  0.85049563585E+02 -0.22749116157E+03  0.28727296960E+03  0.82766796305E+02 0.  0.
          5    1    3    3  501    0 -0.34667213491E+02 -0.90920458608E+02 -0.15198421464E+03  0.18052600086E+03  0.47000000000E+01 0. -1.
        -13    1    4    4    0    0 -0.77219174361E+02 -0.53392289143E+02 -0.36053098056E+03  0.37255352014E+03  0.00000000000E+00 0.  1.
         14    1    4    4    0    0  0.76769532331E+01 -0.64524386225E+01 -0.24900613973E+03  0.24920799987E+03  0.00000000000E+00 0. -1.
         -5    1    5    5    0  502 -0.24979417970E+02  0.65715622789E+02 -0.45613027967E+02  0.83935408029E+02  0.47000000000E+01 0.  1.
         13    1    6    6    0    0  0.37443098410E+02  0.70296097112E+02 -0.13100239305E+03  0.15331390633E+03  0.00000000000E+00 0. -1.
        -14    1    6    6    0    0  0.91745754179E+02  0.14753466473E+02 -0.96488768520E+02  0.13395906327E+03  0.00000000000E+00 0.  1.
<mgrwt>
<rscale>  2 0.25221994E+03</rscale>
<asrwt>0</asrwt>
<pdfrwt beam="1">  1       21 0.10682337E-01 0.25248866E+03</pdfrwt>
<pdfrwt beam="2">  1       21 0.16985548E+00 0.25248866E+03</pdfrwt>
<totfact> 0.14838703E+04</totfact>
</mgrwt>
</event>
<event>
12    1  0.1019868E-001  0.2183487E+03  0.7546771E-02  0.1136168E+00
         21   -1    0    0  503  502  0.00000000000E+00  0.00000000000E+00  0.54560779256E+03  0.54560779256E+03  0.00000000000E+00 0. -1.
         21   -1    0    0  501  503 -0.00000000000E+00 -0.00000000000E+00 -0.85705586653E+02  0.85705586653E+02  0.00000000000E+00 0. -1.
          6    2    1    2  501    0 -0.11747865982E+03  0.31729760752E+02  0.20275083799E+03  0.29396638315E+03  0.17464340494E+03 0.  0.
         24    2    3    3    0    0 -0.62880189476E+02  0.83588535020E+02  0.15782111865E+03  0.20615354176E+03  0.81552534449E+02 0.  0.
         -6    2    1    2    0  502  0.11747865982E+03 -0.31729760752E+02  0.25715136792E+03  0.33734699607E+03  0.18129577077E+03 0.  0.
        -24    2    5    5    0    0  0.15354827464E+03 -0.35206630783E+02  0.23510916195E+03  0.29467317994E+03  0.82093760121E+02 0.  0.
          5    1    3    3  501    0 -0.54598470342E+02 -0.51858774268E+02  0.44929719338E+02  0.87812841384E+02  0.47000000000E+01 0. -1.
        -13    1    4    4    0    0 -0.18508809991E+02  0.34297442816E+02  0.12732732228E+03  0.13315831791E+03  0.00000000000E+00 0.  1.
         14    1    4    4    0    0 -0.44371379485E+02  0.49291092205E+02  0.30493796373E+02  0.72995223853E+02  0.00000000000E+00 0. -1.
         -5    1    5    5    0  502 -0.36069614819E+02  0.34768700308E+01  0.22042205978E+02  0.42673816126E+02  0.47000000000E+01 0.  1.
         13    1    6    6    0    0  0.15852410545E+03 -0.42598091840E+02  0.23379702740E+03  0.28566683296E+03  0.00000000000E+00 0. -1.
        -14    1    6    6    0    0 -0.49758308102E+01  0.73914610569E+01  0.13121345498E+01  0.90063469778E+01  0.00000000000E+00 0.  1.
<mgrwt>
<rscale>  2 0.21696280E+03</rscale>
<asrwt>0</asrwt>
<pdfrwt beam="1">  1       21 0.83939658E-01 0.21834873E+03</pdfrwt>
<pdfrwt beam="2">  1       21 0.13185475E-01 0.21834873E+03</pdfrwt>
<totfact> 0.60371185E+04</totfact>
</mgrwt>
</event>
<event>
12    1  0.1019868E-001  0.1909068E+03  0.7546771E-02  0.1157654E+00
         21   -1    0    0  501  502  0.00000000000E+00  0.00000000000E+00  0.11477622858E+04  0.11477622858E+04  0.00000000000E+00 0. -1.
         21   -1    0    0  502  503 -0.00000000000E+00 -0.00000000000E+00 -0.31837773784E+02  0.31837773784E+02  0.00000000000E+00 0.  1.
         -6    2    1    2    0  503 -0.28036678522E+02 -0.75329544867E+02  0.52661044340E+03  0.56014636404E+03  0.17316118033E+03 0.  0.
        -24    2    3    3    0    0 -0.56359036745E+02 -0.32874157868E+02  0.48122622580E+03  0.49168883657E+03  0.76955703667E+02 0.  0.
          6    2    1    2  501    0  0.28036678522E+02  0.75329544867E+02  0.58931406862E+03  0.61945369555E+03  0.17312196217E+03 0.  0.
         24    2    5    5    0    0  0.76117491518E+02  0.80911264212E+02  0.36956197617E+03  0.39438483429E+03  0.81380821465E+02 0.  0.
          5    1    5    5  501    0 -0.48080812996E+02 -0.55817193457E+01  0.21975209245E+03  0.22506886125E+03  0.47000000000E+01 0. -1.
        -11    1    6    6    0    0  0.51311665847E+02  0.95026847944E+02  0.26952723813E+03  0.29035826315E+03  0.00000000000E+00 0.  1.
         12    1    6    6    0    0  0.24805825671E+02 -0.14115583732E+02  0.10003473803E+03  0.10402657115E+03  0.00000000000E+00 0. -1.
         -5    1    3    3    0  503  0.28322358223E+02 -0.42455386999E+02  0.45384217603E+02  0.68457527475E+02  0.47000000000E+01 0.  1.
         11    1    4    4    0    0 -0.40913724571E+02 -0.58244724369E+02  0.34288867644E+03  0.35019855112E+03  0.00000000000E+00 0. -1.
        -12    1    4    4    0    0 -0.15445312174E+02  0.25370566501E+02  0.13833754936E+03  0.14149028545E+03  0.00000000000E+00 0.  1.
<mgrwt>
<rscale>  2 0.19089786E+03</rscale>
<asrwt>0</asrwt>
<pdfrwt beam="1">  1       21 0.17657878E+00 0.19090676E+03</pdfrwt>
<pdfrwt beam="2">  1       21 0.48981199E-02 0.19090676E+03</pdfrwt>
<totfact> 0.53547708E+04</totfact>
</mgrwt>
</event>
<event>
12    1  0.1019868E-001  0.2134507E+03  0.7546771E-02  0.1139134E+00
         21   -1    0    0  503  502  0.00000000000E+00  0.00000000000E+00  0.57851439716E+03  0.57851439716E+03  0.00000000000E+00 0.  1.
         21   -1    0    0  501  503 -0.00000000000E+00 -0.00000000000E+00 -0.10626844465E+03  0.10626844465E+03  0.00000000000E+00 0.  1.
          6    2    1    2  501    0 -0.87121501025E+02  0.86939766706E+02  0.60856606111E+02  0.22195662340E+03  0.17439190689E+03 0.  0.
         24    2    3    3    0    0 -0.10553988340E+03  0.10723128195E+03  0.79961982365E+02  0.18822106646E+03  0.79975223787E+02 0.  0.
         -6    2    1    2    0  502  0.87121501025E+02 -0.86939766706E+02  0.41138934640E+03  0.46282621842E+03  0.17267957363E+03 0.  0.
        -24    2    5    5    0    0  0.97460419416E+01 -0.61514490735E+02  0.10986437614E+03  0.15045976053E+03  0.81785943104E+02 0.  0.
          5    1    3    3  501    0  0.18418382371E+02 -0.20291515247E+02 -0.19105376253E+02  0.33735556939E+02  0.47000000000E+01 0. -1.
        -13    1    4    4    0    0 -0.73478057289E+02  0.95118461055E+02  0.92562206895E+02  0.15170467587E+03  0.00000000000E+00 0.  1.
         14    1    4    4    0    0 -0.32061826107E+02  0.12112820898E+02 -0.12600224530E+02  0.36516390589E+02  0.00000000000E+00 0. -1.
         -5    1    5    5    0  502  0.77375459084E+02 -0.25425275971E+02  0.30152497026E+03  0.31236645789E+03  0.47000000000E+01 0.  1.
         11    1    6    6    0    0 -0.16035071679E+01 -0.20185832049E+02 -0.10416290329E+02  0.22771432870E+02  0.00000000000E+00 0. -1.
        -12    1    6    6    0    0  0.11349549109E+02 -0.41328658686E+02  0.12028066647E+03  0.12768832766E+03  0.00000000000E+00 0.  1.
<mgrwt>
<rscale>  2 0.21310070E+03</rscale>
<asrwt>0</asrwt>
<pdfrwt beam="1">  1       21 0.89002213E-01 0.21345073E+03</pdfrwt>
<pdfrwt beam="2">  1       21 0.16348992E-01 0.21345073E+03</pdfrwt>
<totfact> 0.35731031E+04</totfact>
</mgrwt>
</event>
<event>
12    1  0.1019868E-001  0.1765683E+03  0.7546771E-02  0.1171369E+00
         21   -1    0    0  503  502  0.00000000000E+00  0.00000000000E+00  0.12610373501E+03  0.12610373501E+03  0.00000000000E+00 0.  1.
         21   -1    0    0  501  503 -0.00000000000E+00 -0.00000000000E+00 -0.46249699745E+03  0.46249699745E+03  0.00000000000E+00 0.  1.
          6    2    1    2  501    0  0.11638838882E+02 -0.27692644172E+02 -0.36971594401E+03  0.40971482571E+03  0.17399429313E+03 0.  0.
         24    2    3    3    0    0  0.59118339485E+02 -0.41018817907E+02 -0.32634651745E+03  0.34387496663E+03  0.81058138000E+02 0.  0.
         -6    2    1    2    0  502 -0.11638838882E+02  0.27692644172E+02  0.33322681572E+02  0.17888590675E+03  0.17316876571E+03 0.  0.
        -24    2    5    5    0    0 -0.51339964249E+02 -0.79789319472E+01 -0.14794407662E+02  0.10687212353E+03  0.92213453493E+02 0.  0.
          5    1    3    3  501    0 -0.47479500604E+02  0.13326173735E+02 -0.43369426560E+02  0.65839859083E+02  0.47000000000E+01 0. -1.
        -11    1    4    4    0    0  0.46368552162E+02 -0.11481925982E+02 -0.29539382588E+03  0.29923133128E+03  0.00000000000E+00 0.  1.
         12    1    4    4    0    0  0.12749787323E+02 -0.29536891925E+02 -0.30952691570E+02  0.44643635345E+02  0.00000000000E+00 0. -1.
         -5    1    5    5    0  502  0.39701125368E+02  0.35671576120E+02  0.48117089233E+02  0.72013783226E+02  0.47000000000E+01 0.  1.
         11    1    6    6    0    0  0.23393404242E+02 -0.17683099229E+02  0.28818910351E+01  0.29466059396E+02  0.00000000000E+00 0. -1.
        -12    1    6    6    0    0 -0.74733368491E+02  0.97041672817E+01 -0.17676298697E+02  0.77406064131E+02  0.00000000000E+00 0.  1.
<mgrwt>
<rscale>  2 0.17636457E+03</rscale>
<asrwt>0</asrwt>
<pdfrwt beam="1">  1       21 0.19400575E-01 0.17656828E+03</pdfrwt>
<pdfrwt beam="2">  1       21 0.71153383E-01 0.17656828E+03</pdfrwt>
<totfact> 0.44016498E+04</totfact>
</mgrwt>
</event>
<event>
12    1  0.1019868E-001  0.1787914E+03  0.7546771E-02  0.1169372E+00
         21   -1    0    0  501  502  0.00000000000E+00  0.00000000000E+00  0.13924763688E+03  0.13924763688E+03  0.00000000000E+00 0. -1.
         21   -1    0    0  502  503 -0.00000000000E+00 -0.00000000000E+00 -0.88469727710E+03  0.88469727710E+03  0.00000000000E+00 0. -1.
         -6    2    1    2    0  503 -0.61814092830E+01 -0.46017590193E+02 -0.81355137421E+03  0.83262260069E+03  0.17099335742E+03 0.  0.
        -24    2    3    3    0    0 -0.53258918375E+02 -0.18337991370E+02 -0.28244822671E+03  0.29869835949E+03  0.79189108350E+02 0.  0.
          6    2    1    2  501    0  0.61814092830E+01  0.46017590193E+02  0.68101733983E+02  0.19132231329E+03  0.17265732815E+03 0.  0.
         24    2    5    5    0    0  0.35241549851E+02  0.79526252708E+02  0.10939114554E+02  0.11881729765E+03  0.80196597730E+02 0.  0.
          5    1    5    5  501    0 -0.29060140568E+02 -0.33508662515E+02  0.57162619428E+02  0.72505015642E+02  0.47000000000E+01 0. -1.
        -11    1    6    6    0    0  0.22568309823E+02  0.68974590699E+02 -0.27012983095E+02  0.77437226358E+02  0.00000000000E+00 0.  1.
         12    1    6    6    0    0  0.12673240027E+02  0.10551662010E+02  0.37952097650E+02  0.41380071290E+02  0.00000000000E+00 0. -1.
         -5    1    3    3    0  503  0.47077509092E+02 -0.27679598823E+02 -0.53110314750E+03  0.53392424120E+03  0.47000000000E+01 0.  1.
         11    1    4    4    0    0 -0.60254274234E+00  0.27201909549E+02 -0.68377579193E+02  0.73592121026E+02  0.00000000000E+00 0. -1.
        -12    1    4    4    0    0 -0.52656375632E+02 -0.45539900919E+02 -0.21407064751E+03  0.22510623847E+03  0.00000000000E+00 0.  1.
<mgrwt>
<rscale>  2 0.17838850E+03</rscale>
<asrwt>0</asrwt>
<pdfrwt beam="1">  1       21 0.21422713E-01 0.17879145E+03</pdfrwt>
<pdfrwt beam="2">  1       21 0.13610727E+00 0.17879145E+03</pdfrwt>
<totfact> 0.78931509E+03</totfact>
</mgrwt>
</event>
<event>
12    1  0.1019868E-001  0.1853893E+03  0.7546771E-02  0.1162935E+00
         21   -1    0    0  503  502  0.00000000000E+00  0.00000000000E+00  0.17927187020E+03  0.17927187020E+03  0.00000000000E+00 0. -1.
         21   -1    0    0  501  503 -0.00000000000E+00 -0.00000000000E+00 -0.19070475881E+03  0.19070475881E+03  0.00000000000E+00 0. -1.
          6    2    1    2  501    0  0.34771320265E+02 -0.55311254149E+02 -0.96593766282E+01  0.18457886581E+03  0.17235914423E+03 0.  0.
         24    2    3    3    0    0  0.44420095062E+02  0.27936845448E+02 -0.25125146232E+02  0.99228851339E+02  0.80383330274E+02 0.  0.
         -6    2    1    2    0  502 -0.34771320265E+02  0.55311254149E+02 -0.17735119824E+01  0.18539776319E+03  0.17349583771E+03 0.  0.
        -24    2    5    5    0    0 -0.77639442037E+02 -0.14447245205E+01 -0.18075409399E+02  0.11227622848E+03  0.79052266687E+02 0.  0.
          5    1    3    3  501    0 -0.96487747962E+01 -0.83248099597E+02  0.15465769604E+02  0.85350014476E+02  0.47000000000E+01 0. -1.
        -13    1    4    4    0    0 -0.13308247610E+02  0.30884515796E+02 -0.24175327289E+02  0.41417498958E+02  0.00000000000E+00 0.  1.
         14    1    4    4    0    0  0.57728342671E+02 -0.29476703474E+01 -0.94981894297E+00  0.57811352381E+02  0.00000000000E+00 0. -1.
         -5    1    5    5    0  502  0.42868121772E+02  0.56755978669E+02  0.16301897417E+02  0.73121534710E+02  0.47000000000E+01 0.  1.
         13    1    6    6    0    0 -0.58056553014E+02  0.19754411762E+02 -0.42380943837E+02  0.74544916208E+02  0.00000000000E+00 0. -1.
        -14    1    6    6    0    0 -0.19582889023E+02 -0.21199136283E+02  0.24305534437E+02  0.37731312274E+02  0.00000000000E+00 0.  1.
<mgrwt>
<rscale>  2 0.18512287E+03</rscale>
<asrwt>0</asrwt>
<pdfrwt beam="1">  1       21 0.27580288E-01 0.18538928E+03</pdfrwt>
<pdfrwt beam="2">  1       21 0.29339193E-01 0.18538928E+03</pdfrwt>
<totfact> 0.13993138E+05</totfact>
</mgrwt>
</event>
<event>
12    1  0.1019868E-001  0.3463036E+03  0.7546771E-02  0.1064183E+00
         21   -1    0    0  503  502  0.00000000000E+00  0.00000000000E+00  0.25487055774E+03  0.25487055774E+03  0.00000000000E+00 0.  1.
         21   -1    0    0  501  503 -0.00000000000E+00 -0.00000000000E+00 -0.10764034802E+04  0.10764034802E+04  0.00000000000E+00 0. -1.
          6    2    1    2  501    0  0.10058817026E+02 -0.29965942361E+03 -0.91047196077E+03  0.97410747970E+03  0.17328947081E+03 0.  0.
         24    2    3    3    0    0  0.60487469437E+02 -0.14444529425E+03 -0.37864014065E+03  0.41777875508E+03  0.81532540113E+02 0.  0.
         -6    2    1    2    0  502 -0.10058817026E+02  0.29965942361E+03  0.88939038328E+02  0.35716655823E+03  0.17251332651E+03 0.  0.
        -24    2    5    5    0    0 -0.31976705441E+02  0.26781813398E+03  0.12090949133E+03  0.30678341201E+03  0.82145567228E+02 0.  0.
          5    1    3    3  501    0 -0.50428652412E+02 -0.15521412936E+03 -0.53183182013E+03  0.55632872462E+03  0.47000000000E+01 0. -1.
        -13    1    4    4    0    0 -0.81929189225E+01 -0.10640057064E+02 -0.39011232868E+01  0.13984044397E+02  0.00000000000E+00 0.  1.
         14    1    4    4    0    0  0.68680388360E+02 -0.13380523719E+03 -0.37473901736E+03  0.40379471068E+03  0.00000000000E+00 0. -1.
         -5    1    5    5    0  502  0.21917888415E+02  0.31841289632E+02 -0.31970453000E+02  0.50383146220E+02  0.47000000000E+01 0.  1.
         13    1    6    6    0    0  0.27835241409E+02  0.92028975956E+02  0.45500603257E+02  0.10636934698E+03  0.00000000000E+00 0. -1.
        -14    1    6    6    0    0 -0.59811946849E+02  0.17578915802E+03  0.75408888071E+02  0.20041406503E+03  0.00000000000E+00 0.  1.
<mgrwt>
<rscale>  2 0.34620664E+03</rscale>
<asrwt>0</asrwt>
<pdfrwt beam="1">  1       21 0.39210855E-01 0.34630361E+03</pdfrwt>
<pdfrwt beam="2">  1       21 0.16560054E+00 0.34630361E+03</pdfrwt>
<totfact> 0.12783879E+03</totfact>
</mgrwt>
</event>
<event>
12    1  0.1019868E-001  0.1873804E+03  0.7546771E-02  0.1161182E+00
         21   -1    0    0  501  502  0.00000000000E+00  0.00000000000E+00  0.62711748219E+02  0.62711748219E+02  0.00000000000E+00 0. -1.
         21   -1    0    0  502  503 -0.00000000000E+00 -0.00000000000E+00 -0.55915005888E+03  0.55915005888E+03  0.00000000000E+00 0. -1.
         -6    2    1    2    0  503 -0.61069965085E+02 -0.31248147273E+02 -0.27420999594E+03  0.33211827423E+03  0.17437155405E+03 0.  0.
        -24    2    3    3    0    0 -0.42729755612E+02 -0.10097046110E+02 -0.28671748234E+03  0.30109796507E+03  0.80779251920E+02 0.  0.
          6    2    1    2  501    0  0.61069965085E+02  0.31248147273E+02 -0.22222831473E+03  0.28974353287E+03  0.17280018412E+03 0.  0.
         24    2    5    5    0    0 -0.43450252641E+01  0.33201952598E+02 -0.36803893023E+02  0.93052799789E+02  0.78632360425E+02 0.  0.
          5    1    5    5  501    0  0.65414990350E+02 -0.19538053242E+01 -0.18542442170E+03  0.19669073308E+03  0.47000000000E+01 0. -1.
        -11    1    6    6    0    0 -0.29373851067E+02  0.48159919867E+01  0.11306935646E+02  0.31841226405E+02  0.00000000000E+00 0.  1.
         12    1    6    6    0    0  0.25028825803E+02  0.28385960611E+02 -0.48110828669E+02  0.61211573383E+02  0.00000000000E+00 0. -1.
         -5    1    3    3    0  503 -0.18340209473E+02 -0.21151101164E+02  0.12507486398E+02  0.31020309153E+02  0.47000000000E+01 0.  1.
         11    1    4    4    0    0 -0.63575343516E+02 -0.21222428552E+02 -0.23221302870E+03  0.24169217297E+03  0.00000000000E+00 0. -1.
        -12    1    4    4    0    0  0.20845587904E+02  0.11125382442E+02 -0.54504453636E+02  0.59405792105E+02  0.00000000000E+00 0.  1.
<mgrwt>
<rscale>  2 0.18701401E+03</rscale>
<asrwt>0</asrwt>
<pdfrwt beam="1">  1       21 0.96479609E-02 0.18738043E+03</pdfrwt>
<pdfrwt beam="2">  1       21 0.86023089E-01 0.18738043E+03</pdfrwt>
<totfact> 0.10099068E+05</totfact>
</mgrwt>
</event>
<event>
12    1  0.1019868E-001  0.2205085E+03  0.7546771E-02  0.1133554E+00
         21   -1    0    0  503  502  0.00000000000E+00  0.00000000000E+00  0.88006888465E+02  0.88006888465E+02  0.00000000000E+00 0. -1.
         21   -1    0    0  501  503 -0.00000000000E+00 -0.00000000000E+00 -0.65799449993E+03  0.65799449993E+03  0.00000000000E+00 0. -1.
          6    2    1    2  501    0  0.56627642450E+02 -0.12441540167E+03 -0.43466985969E+03  0.48728362541E+03  0.17268920812E+03 0.  0.
         24    2    3    3    0    0  0.32626916334E+02 -0.87307836321E+02 -0.12791516697E+03  0.17732630936E+03  0.79969719887E+02 0.  0.
         -6    2    1    2    0  502 -0.56627642450E+02  0.12441540167E+03 -0.13531775177E+03  0.25871776299E+03  0.17302631268E+03 0.  0.
        -24    2    5    5    0    0 -0.25133946672E+02  0.51942128618E+02 -0.14886107308E+03  0.17840749134E+03  0.79623576197E+02 0.  0.
          5    1    3    3  501    0  0.24000726116E+02 -0.37107565349E+02 -0.30675469272E+03  0.30995731604E+03  0.47000000000E+01 0. -1.
        -13    1    4    4    0    0  0.11464055741E+02  0.97557017941E+01  0.38817174416E+00  0.15058186107E+02  0.00000000000E+00 0.  1.
         14    1    4    4    0    0  0.21162860593E+02 -0.97063538115E+02 -0.12830333871E+03  0.16226812326E+03  0.00000000000E+00 0. -1.
         -5    1    5    5    0  502 -0.31493695779E+02  0.72473273052E+02  0.13543321309E+02  0.80310271651E+02  0.47000000000E+01 0.  1.
         13    1    6    6    0    0 -0.36731041455E+02  0.33414230013E+02 -0.14846176734E+03  0.15654576498E+03  0.00000000000E+00 0. -1.
        -14    1    6    6    0    0  0.11597094783E+02  0.18527898605E+02 -0.39930574342E+00  0.21861726354E+02  0.00000000000E+00 0.  1.
<mgrwt>
<rscale>  2 0.22044234E+03</rscale>
<asrwt>0</asrwt>
<pdfrwt beam="1">  1       21 0.13539521E-01 0.22050847E+03</pdfrwt>
<pdfrwt beam="2">  1       21 0.10122992E+00 0.22050847E+03</pdfrwt>
<totfact> 0.37112856E+04</totfact>
</mgrwt>
</event>
<event>
12    1  0.1019868E-001  0.2314037E+03  0.7546771E-02  0.1125680E+00
         21   -1    0    0  501  502  0.00000000000E+00  0.00000000000E+00  0.13059322299E+03  0.13059322299E+03  0.00000000000E+00 0. -1.
         21   -1    0    0  502  503 -0.00000000000E+00 -0.00000000000E+00 -0.46383330694E+03  0.46383330694E+03  0.00000000000E+00 0.  1.
         -6    2    1    2    0  503  0.23290313489E+02 -0.15222149342E+03 -0.26812136912E+03  0.35417046887E+03  0.17272472515E+03 0.  0.
        -24    2    3    3    0    0 -0.46207641371E+02 -0.10715685009E+03 -0.20658371225E+03  0.25087593357E+03  0.81511761357E+02 0.  0.
          6    2    1    2  501    0 -0.23290313489E+02  0.15222149342E+03 -0.65118714823E+02  0.24025606106E+03  0.17253610084E+03 0.  0.
         24    2    5    5    0    0  0.51039938305E+02  0.11082989085E+03 -0.36738284412E+02  0.15044631813E+03  0.79975328002E+02 0.  0.
          5    1    5    5  501    0 -0.74330251793E+02  0.41391602571E+02 -0.28380430411E+02  0.89809742931E+02  0.47000000000E+01 0. -1.
        -13    1    6    6    0    0  0.51191838363E+02  0.24642558031E+02 -0.29337302770E+02  0.63941671195E+02  0.00000000000E+00 0.  1.
         14    1    6    6    0    0 -0.15190005852E+00  0.86187332817E+02 -0.74009816416E+01  0.86504646933E+02  0.00000000000E+00 0. -1.
         -5    1    3    3    0  503  0.69497954860E+02 -0.45064643333E+02 -0.61537656874E+02  0.10329453530E+03  0.47000000000E+01 0.  1.
         11    1    4    4    0    0 -0.30530016379E+02  0.25244196832E+01 -0.33768118830E+02  0.45593206118E+02  0.00000000000E+00 0. -1.
        -12    1    4    4    0    0 -0.15677624992E+02 -0.10968126977E+03 -0.17281559342E+03  0.20528272746E+03  0.00000000000E+00 0.  1.
<mgrwt>
<rscale>  2 0.23136846E+03</rscale>
<asrwt>0</asrwt>
<pdfrwt beam="1">  1       21 0.20091265E-01 0.23140366E+03</pdfrwt>
<pdfrwt beam="2">  1       21 0.71358969E-01 0.23140366E+03</pdfrwt>
<totfact> 0.39872652E+04</totfact>
</mgrwt>
</event>
<event>
12    1  0.1019868E-001  0.2129534E+03  0.7546771E-02  0.1139343E+00
         21   -1    0    0  501  502  0.00000000000E+00  0.00000000000E+00  0.19360079235E+03  0.19360079235E+03  0.00000000000E+00 0.  1.
         21   -1    0    0  502  503 -0.00000000000E+00 -0.00000000000E+00 -0.29134440104E+03  0.29134440104E+03  0.00000000000E+00 0.  1.
         -6    2    1    2    0  503  0.61473718803E+02  0.10671183817E+03 -0.15676713758E+03  0.26443349386E+03  0.17373169758E+03 0.  0.
        -24    2    3    3    0    0  0.54984519053E+02  0.25052143169E+02 -0.15276687847E+02  0.10087294585E+03  0.79316245498E+02 0.  0.
          6    2    1    2  501    0 -0.61473718803E+02 -0.10671183817E+03  0.59023528895E+02  0.22051169952E+03  0.17313346919E+03 0.  0.
         24    2    5    5    0    0 -0.65915616920E+02 -0.48838299325E+02 -0.25666119494E+02  0.11773279360E+03  0.80450065041E+02 0.  0.
          5    1    5    5  501    0  0.44418981167E+01 -0.57873538844E+02  0.84689648389E+02  0.10277890592E+03  0.47000000000E+01 0. -1.
        -11    1    6    6    0    0 -0.53372286453E+02  0.94466846230E+00  0.11181600624E+02  0.54539174474E+02  0.00000000000E+00 0.  1.
         12    1    6    6    0    0 -0.12543330467E+02 -0.49782967787E+02 -0.36847720119E+02  0.63193619131E+02  0.00000000000E+00 0. -1.
         -5    1    3    3    0  503  0.64891997508E+01  0.81659694999E+02 -0.14149044973E+03  0.16356054801E+03  0.47000000000E+01 0.  1.
         13    1    4    4    0    0  0.45420825577E+01 -0.15939470455E+01 -0.38849577084E+02  0.39146657849E+02  0.00000000000E+00 0. -1.
        -14    1    4    4    0    0  0.50442436495E+02  0.26646090215E+02  0.23572889237E+02  0.61726288000E+02  0.00000000000E+00 0.  1.
<mgrwt>
<rscale>  2 0.21283132E+03</rscale>
<asrwt>0</asrwt>
<pdfrwt beam="1">  1       21 0.29784737E-01 0.21295337E+03</pdfrwt>
<pdfrwt beam="2">  1       21 0.44822215E-01 0.21295337E+03</pdfrwt>
<totfact> 0.51129042E+04</totfact>
</mgrwt>
</event>
<event>
12    1  0.1019868E-001  0.2705220E+03  0.7546771E-02  0.1101078E+00
         21   -1    0    0  501  502  0.00000000000E+00  0.00000000000E+00  0.49725761215E+03  0.49725761215E+03  0.00000000000E+00 0. -1.
         21   -1    0    0  502  503 -0.00000000000E+00 -0.00000000000E+00 -0.15016359314E+03  0.15016359314E+03  0.00000000000E+00 0.  1.
         -6    2    1    2    0  503 -0.85046442051E+02 -0.18975070771E+03  0.12534786638E+03  0.29815137991E+03  0.17304314304E+03 0.  0.
        -24    2    3    3    0    0 -0.97904076148E+02 -0.19645944626E+03  0.74457552850E+02  0.24502662166E+03  0.79451847013E+02 0.  0.
          6    2    1    2  501    0  0.85046442051E+02  0.18975070771E+03  0.22174615262E+03  0.34926982538E+03  0.17198786684E+03 0.  0.
         24    2    5    5    0    0  0.17744923125E+02  0.15440998124E+03  0.89474770381E+02  0.19663866881E+03  0.80645563634E+02 0.  0.
          5    1    5    5  501    0  0.67301518927E+02  0.35340726474E+02  0.13227138224E+03  0.15263115658E+03  0.47000000000E+01 0. -1.
        -11    1    6    6    0    0  0.16622079058E+02 -0.48030752641E+00 -0.20019850011E+01  0.16749094049E+02  0.00000000000E+00 0.  1.
         12    1    6    6    0    0  0.11228440668E+01  0.15489028876E+03  0.91476755382E+02  0.17988957476E+03  0.00000000000E+00 0. -1.
         -5    1    3    3    0  503  0.12857634097E+02  0.67087385518E+01  0.50890313532E+02  0.53124758248E+02  0.47000000000E+01 0.  1.
         11    1    4    4    0    0 -0.60385912446E+02 -0.47158938731E+02  0.43147265730E+02  0.87932419869E+02  0.00000000000E+00 0. -1.
        -12    1    4    4    0    0 -0.37518163702E+02 -0.14930050753E+03  0.31310287120E+02  0.15709420179E+03  0.00000000000E+00 0.  1.
<mgrwt>
<rscale>  2 0.27035340E+03</rscale>
<asrwt>0</asrwt>
<pdfrwt beam="1">  1       21 0.76501170E-01 0.27052201E+03</pdfrwt>
<pdfrwt beam="2">  1       21 0.23102092E-01 0.27052201E+03</pdfrwt>
<totfact> 0.25742649E+04</totfact>
</mgrwt>
</event>
<event>
12    1  0.1019868E-001  0.2432300E+03  0.7546771E-02  0.1117680E+00
         21   -1    0    0  503  502  0.00000000000E+00  0.00000000000E+00  0.25981293651E+04  0.25981293651E+04  0.00000000000E+00 0. -1.
         21   -1    0    0  501  503 -0.00000000000E+00 -0.00000000000E+00 -0.27034030762E+02  0.27034030762E+02  0.00000000000E+00 0.  1.
          6    2    1    2  501    0 -0.16880236193E+03 -0.27856148274E+02  0.76385364846E+03  0.80164406477E+03  0.17288900465E+03 0.  0.
         24    2    3    3    0    0 -0.18902341220E+03 -0.13229074801E+02  0.56755050719E+03  0.60370504531E+03  0.80257988649E+02 0.  0.
         -6    2    1    2    0  502  0.16880236193E+03  0.27856148274E+02  0.18072416858E+04  0.18235193310E+04  0.17271374381E+03 0.  0.
        -24    2    5    5    0    0  0.10723277499E+03 -0.42072799553E+02  0.12309083885E+04  0.12396845672E+04  0.91724462132E+02 0.  0.
          5    1    3    3  501    0  0.20221050272E+02 -0.14627073473E+02  0.19630314127E+03  0.19793901946E+03  0.47000000000E+01 0. -1.
        -13    1    4    4    0    0  0.68086024073E+01  0.40035973720E+01  0.11717058962E+02  0.14130652122E+02  0.00000000000E+00 0.  1.
         14    1    4    4    0    0 -0.19583201460E+03 -0.17232672173E+02  0.55583344823E+03  0.58957439319E+03  0.00000000000E+00 0. -1.
         -5    1    5    5    0  502  0.61569586938E+02  0.69928947827E+02  0.57633329736E+03  0.58383476380E+03  0.47000000000E+01 0.  1.
         13    1    6    6    0    0  0.88297111955E+01 -0.20227798116E+02  0.62955634776E+03  0.62994311062E+03  0.00000000000E+00 0. -1.
        -14    1    6    6    0    0  0.98403063792E+02 -0.21845001438E+02  0.60135204072E+03  0.60974145663E+03  0.00000000000E+00 0.  1.
<mgrwt>
<rscale>  2 0.24319881E+03</rscale>
<asrwt>0</asrwt>
<pdfrwt beam="1">  1       21 0.39971201E+00 0.24322995E+03</pdfrwt>
<pdfrwt beam="2">  1       21 0.41590837E-02 0.24322995E+03</pdfrwt>
<totfact> 0.30123157E+03</totfact>
</mgrwt>
</event>
<event>
12    1  0.1019868E-001  0.3823257E+03  0.7546771E-02  0.1050115E+00
         21   -1    0    0  501  502  0.00000000000E+00  0.00000000000E+00  0.23205010184E+03  0.23205010184E+03  0.00000000000E+00 0.  1.
         21   -1    0    0  502  503 -0.00000000000E+00 -0.00000000000E+00 -0.73818415128E+03  0.73818415128E+03  0.00000000000E+00 0. -1.
         -6    2    1    2    0  503 -0.33467507931E+03  0.61627525749E+02 -0.43953405301E+03  0.58254883582E+03  0.17426302452E+03 0.  0.
        -24    2    3    3    0    0 -0.11417358865E+03  0.67984831619E+02 -0.13564862448E+03  0.20700953508E+03  0.82430896008E+02 0.  0.
          6    2    1    2  501    0  0.33467507931E+03 -0.61627525749E+02 -0.66599996429E+02  0.38768541731E+03  0.17337549605E+03 0.  0.
         24    2    5    5    0    0  0.28576777543E+03 -0.89052331087E+02 -0.14146981938E+02  0.31076043405E+03  0.82330863755E+02 0.  0.
          5    1    5    5  501    0  0.48907303878E+02  0.27424805338E+02 -0.52453014491E+02  0.76924983261E+02  0.47000000000E+01 0. -1.
        -13    1    6    6    0    0  0.12812747414E+03 -0.47852229918E+02 -0.46854614523E+02  0.14457468810E+03  0.00000000000E+00 0.  1.
         14    1    6    6    0    0  0.15764030129E+03 -0.41200101169E+02  0.32707632585E+02  0.16618574595E+03  0.00000000000E+00 0. -1.
         -5    1    3    3    0  503 -0.22050149065E+03 -0.63573058700E+01 -0.30388542853E+03  0.37553930073E+03  0.47000000000E+01 0.  1.
         13    1    4    4    0    0 -0.56610107453E+02 -0.66413648829E+01 -0.77726764923E+02  0.96386005098E+02  0.00000000000E+00 0. -1.
        -14    1    4    4    0    0 -0.57563481200E+02  0.74626196501E+02 -0.57921859554E+02  0.11062352998E+03  0.00000000000E+00 0.  1.
<mgrwt>
<rscale>  2 0.38222476E+03</rscale>
<asrwt>0</asrwt>
<pdfrwt beam="1">  1       21 0.35700016E-01 0.38232573E+03</pdfrwt>
<pdfrwt beam="2">  1       21 0.11356679E+00 0.38232573E+03</pdfrwt>
<totfact> 0.40958260E+03</totfact>
</mgrwt>
</event>
<event>
12    1  0.1019868E-001  0.1884578E+03  0.7546771E-02  0.1160232E+00
         21   -1    0    0  501  502  0.00000000000E+00  0.00000000000E+00  0.66545261798E+03  0.66545261798E+03  0.00000000000E+00 0. -1.
         21   -1    0    0  502  503 -0.00000000000E+00 -0.00000000000E+00 -0.69196187527E+02  0.69196187527E+02  0.00000000000E+00 0. -1.
         -6    2    1    2    0  503 -0.40743563669E+02 -0.60458230606E+02  0.47730496552E+03  0.51316312189E+03  0.17378470569E+03 0.  0.
        -24    2    3    3    0    0 -0.92822029324E+02 -0.30595535799E+02  0.35504142570E+03  0.37687515362E+03  0.80177624787E+02 0.  0.
          6    2    1    2  501    0  0.40743563669E+02  0.60458230606E+02  0.11895146493E+03  0.22148568361E+03  0.17202099118E+03 0.  0.
         24    2    5    5    0    0  0.29767278692E+02 -0.16544448855E+02  0.14781937993E+02  0.91396207410E+02  0.83516174298E+02 0.  0.
          5    1    5    5  501    0  0.10976284977E+02  0.77002679461E+02  0.10416952694E+03  0.13008947620E+03  0.47000000000E+01 0. -1.
        -13    1    6    6    0    0  0.34127525731E+02 -0.26501672015E+02  0.43120573705E+02  0.61044332323E+02  0.00000000000E+00 0.  1.
         14    1    6    6    0    0 -0.43602470390E+01  0.99572231599E+01 -0.28338635711E+02  0.30351875087E+02  0.00000000000E+00 0. -1.
         -5    1    3    3    0  503  0.52078465655E+02 -0.29862694807E+02  0.12226353982E+03  0.13628796827E+03  0.47000000000E+01 0.  1.
         11    1    4    4    0    0 -0.47064800879E+02 -0.56733405341E+02  0.20838066132E+03  0.22103455562E+03  0.00000000000E+00 0. -1.
        -12    1    4    4    0    0 -0.45757228444E+02  0.26137869542E+02  0.14666076437E+03  0.15584059800E+03  0.00000000000E+00 0.  1.
<mgrwt>
<rscale>  2 0.18805024E+03</rscale>
<asrwt>0</asrwt>
<pdfrwt beam="1">  1       21 0.10237732E+00 0.18845785E+03</pdfrwt>
<pdfrwt beam="2">  1       21 0.10645568E-01 0.18845785E+03</pdfrwt>
<totfact> 0.56500164E+04</totfact>
</mgrwt>
</event>
<event>
12    1  0.1019868E-001  0.1807089E+03  0.7546771E-02  0.1167452E+00
         21   -1    0    0  501  502  0.00000000000E+00  0.00000000000E+00  0.93959141004E+02  0.93959141004E+02  0.00000000000E+00 0. -1.
         21   -1    0    0  502  503 -0.00000000000E+00 -0.00000000000E+00 -0.18020937877E+04  0.18020937877E+04  0.00000000000E+00 0. -1.
         -6    2    1    2    0  503  0.43691798941E+02  0.28370945659E+02 -0.17059306013E+04  0.17153305663E+04  0.17159793494E+03 0.  0.
        -24    2    3    3    0    0  0.39605051392E+02 -0.78678591215E+00 -0.44204282902E+03  0.45109116420E+03  0.80698182180E+02 0.  0.
          6    2    1    2  501    0 -0.43691798941E+02 -0.28370945659E+02 -0.22040453786E+01  0.18072236242E+03  0.17303707871E+03 0.  0.
         24    2    5    5    0    0 -0.28428603826E+02  0.40680045350E+01 -0.65610295983E+02  0.10773131344E+03  0.80477268719E+02 0.  0.
          5    1    5    5  501    0 -0.15263195115E+02 -0.32438950194E+02  0.63406250604E+02  0.72991048975E+02  0.47000000000E+01 0. -1.
        -11    1    6    6    0    0 -0.12822996262E+02  0.39869126684E+02 -0.16568486841E+02  0.45038774982E+02  0.00000000000E+00 0.  1.
         12    1    6    6    0    0 -0.15605607565E+02 -0.35801122149E+02 -0.49041809142E+02  0.62692538460E+02  0.00000000000E+00 0. -1.
         -5    1    3    3    0  503  0.40867475495E+01  0.29157731571E+02 -0.12638877723E+04  0.12642394021E+04  0.47000000000E+01 0.  1.
         13    1    4    4    0    0  0.45568586961E+02  0.16117468193E+02 -0.13268861383E+03  0.14121804820E+03  0.00000000000E+00 0. -1.
        -14    1    4    4    0    0 -0.59635355696E+01 -0.16904254105E+02 -0.30935421519E+03  0.30987311600E+03  0.00000000000E+00 0.  1.
<mgrwt>
<rscale>  2 0.18036354E+03</rscale>
<asrwt>0</asrwt>
<pdfrwt beam="1">  1       21 0.14455251E-01 0.18070892E+03</pdfrwt>
<pdfrwt beam="2">  1       21 0.27724523E+00 0.18070892E+03</pdfrwt>
<totfact> 0.19660446E+03</totfact>
</mgrwt>
</event>
<event>
12    1  0.1019868E-001  0.3345135E+03  0.7546771E-02  0.1069339E+00
         21   -1    0    0  503  502  0.00000000000E+00  0.00000000000E+00  0.13342433224E+03  0.13342433224E+03  0.00000000000E+00 0. -1.
         21   -1    0    0  501  503 -0.00000000000E+00 -0.00000000000E+00 -0.11107673701E+04  0.11107673701E+04  0.00000000000E+00 0.  1.
          6    2    1    2  501    0 -0.27682036888E+03 -0.75235384429E+02 -0.79800703626E+03  0.86463842314E+03  0.16880311953E+03 0.  0.
         24    2    3    3    0    0 -0.28253130185E+03 -0.39489795209E+02 -0.70748432337E+03  0.76703302651E+03  0.80138726515E+02 0.  0.
         -6    2    1    2    0  502  0.27682036888E+03  0.75235384429E+02 -0.17933600158E+03  0.37955327917E+03  0.17207385208E+03 0.  0.
        -24    2    5    5    0    0  0.12169322393E+03  0.90380706150E+02 -0.56260526248E+02  0.18089912115E+03  0.81125411705E+02 0.  0.
          5    1    3    3  501    0  0.57109329697E+01 -0.35745589220E+02 -0.90522712889E+02  0.97605396638E+02  0.47000000000E+01 0. -1.
        -11    1    4    4    0    0 -0.21348496478E+03  0.21982925214E+01 -0.46976755927E+03  0.51600602944E+03  0.00000000000E+00 0.  1.
         12    1    4    4    0    0 -0.69046337067E+02 -0.41688087730E+02 -0.23771676410E+03  0.25102699707E+03  0.00000000000E+00 0. -1.
         -5    1    5    5    0  502  0.15512714495E+03 -0.15145321721E+02 -0.12307547533E+03  0.19865415802E+03  0.47000000000E+01 0.  1.
         13    1    6    6    0    0  0.10811719407E+03  0.45067085132E+02 -0.14927152403E+02  0.11808128427E+03  0.00000000000E+00 0. -1.
        -14    1    6    6    0    0  0.13576029856E+02  0.45313621018E+02 -0.41333373845E+02  0.62817836877E+02  0.00000000000E+00 0.  1.
<mgrwt>
<rscale>  2 0.33409507E+03</rscale>
<asrwt>0</asrwt>
<pdfrwt beam="1">  1       21 0.20526821E-01 0.33451351E+03</pdfrwt>
<pdfrwt beam="2">  1       21 0.17088729E+00 0.33451351E+03</pdfrwt>
<totfact> 0.42000049E+03</totfact>
</mgrwt>
</event>
<event>
12    1  0.1019868E-001  0.2557693E+03  0.7546771E-02  0.1109952E+00
         21   -1    0    0  503  502  0.00000000000E+00  0.00000000000E+00  0.62819045153E+03  0.62819045153E+03  0.00000000000E+00 0.  1.
         21   -1    0    0  501  503 -0.00000000000E+00 -0.00000000000E+00 -0.11197686538E+03  0.11197686538E+03  0.00000000000E+00 0. -1.
          6    2    1    2  501    0 -0.35634517774E+02  0.18346565271E+03  0.15702835748E+03  0.30012635076E+03  0.17460944071E+03 0.  0.
         24    2    3    3    0    0  0.45080808487E+00  0.10153318230E+03  0.14536087007E+02  0.13177785034E+03  0.82733993484E+02 0.  0.
         -6    2    1    2    0  502  0.35634517774E+02 -0.18346565271E+03  0.35918522868E+03  0.44004096615E+03  0.17231528896E+03 0.  0.
        -24    2    5    5    0    0 -0.16852535286E+02 -0.12736243771E+03  0.13429223509E+03  0.20234071365E+03  0.80013508297E+02 0.  0.
          5    1    3    3  501    0 -0.36085325859E+02  0.81932470411E+02  0.14249227047E+03  0.16834850042E+03  0.47000000000E+01 0. -1.
        -13    1    4    4    0    0  0.56086357370E+01  0.26293739210E+02  0.43378706015E+02  0.51034592699E+02  0.00000000000E+00 0.  1.
         14    1    4    4    0    0 -0.51578276521E+01  0.75239443090E+02 -0.28842619007E+02  0.80743257637E+02  0.00000000000E+00 0. -1.
         -5    1    5    5    0  502  0.52487053061E+02 -0.56103214997E+02  0.22489299359E+03  0.23770025250E+03  0.47000000000E+01 0.  1.
         13    1    6    6    0    0  0.30324855042E+02 -0.30486280840E+02  0.30407013916E+02  0.52664947053E+02  0.00000000000E+00 0. -1.
        -14    1    6    6    0    0 -0.47177390329E+02 -0.96876156875E+02  0.10388522117E+03  0.14967576660E+03  0.00000000000E+00 0.  1.
<mgrwt>
<rscale>  2 0.25537821E+03</rscale>
<asrwt>0</asrwt>
<pdfrwt beam="1">  1       21 0.96644683E-01 0.25576927E+03</pdfrwt>
<pdfrwt beam="2">  1       21 0.17227210E-01 0.25576927E+03</pdfrwt>
<totfact> 0.26203344E+04</totfact>
</mgrwt>
</event>
<event>
12    1  0.1019868E-001  0.2203452E+03  0.7546771E-02  0.1133814E+00
         21   -1    0    0  501  502  0.00000000000E+00  0.00000000000E+00  0.23777853223E+04  0.23777853223E+04  0.00000000000E+00 0. -1.
         21   -1    0    0  502  503 -0.00000000000E+00 -0.00000000000E+00 -0.21838627252E+02  0.21838627252E+02  0.00000000000E+00 0. -1.
         -6    2    1    2    0  503  0.13262544151E+03 -0.33130915325E+02  0.86468045744E+03  0.89231401719E+03  0.17281448582E+03 0.  0.
        -24    2    3    3    0    0  0.11278254507E+03 -0.16149221808E+02  0.34819170143E+03  0.37514398370E+03  0.80714606643E+02 0.  0.
          6    2    1    2  501    0 -0.13262544151E+03  0.33130915325E+02  0.14912662376E+04  0.15073099323E+04  0.17152572833E+03 0.  0.
         24    2    5    5    0    0 -0.88728627411E+02 -0.52642461957E+01  0.49833075723E+03  0.51265216362E+03  0.81106199867E+02 0.  0.
          5    1    5    5  501    0 -0.43896814098E+02  0.38395161521E+02  0.99293548034E+03  0.99465776870E+03  0.47000000000E+01 0. -1.
        -11    1    6    6    0    0 -0.10086258076E+03  0.28041338474E+01  0.37051418194E+03  0.38400765928E+03  0.00000000000E+00 0.  1.
         12    1    6    6    0    0  0.12133953345E+02 -0.80683800430E+01  0.12781657529E+03  0.12864450435E+03  0.00000000000E+00 0. -1.
         -5    1    3    3    0  503  0.19842896441E+02 -0.16981693517E+02  0.51648875602E+03  0.51717003350E+03  0.47000000000E+01 0.  1.
         13    1    4    4    0    0  0.83463089833E+02 -0.40295152961E+02  0.29875645463E+03  0.31280218334E+03  0.00000000000E+00 0. -1.
        -14    1    4    4    0    0  0.29319455234E+02  0.24145931153E+02  0.49435246793E+02  0.62341800359E+02  0.00000000000E+00 0.  1.
<mgrwt>
<rscale>  2 0.22009245E+03</rscale>
<asrwt>0</asrwt>
<pdfrwt beam="1">  1       21 0.36581292E+00 0.22034521E+03</pdfrwt>
<pdfrwt beam="2">  1       21 0.33597907E-02 0.22034521E+03</pdfrwt>
<totfact> 0.71453779E+03</totfact>
</mgrwt>
</event>
<event>
12    1  0.1019868E-001  0.1829492E+03  0.7546771E-02  0.1165812E+00
         21   -1    0    0  503  502  0.00000000000E+00  0.00000000000E+00  0.23942420400E+03  0.23942420400E+03  0.00000000000E+00 0.  1.
         21   -1    0    0  501  503 -0.00000000000E+00 -0.00000000000E+00 -0.19062550140E+03  0.19062550140E+03  0.00000000000E+00 0.  1.
          6    2    1    2  501    0  0.42925317250E+02  0.22055627594E+02 -0.89316297269E+02  0.20358733226E+03  0.17646916821E+03 0.  0.
         24    2    3    3    0    0  0.56834254977E+02  0.66395601100E+02 -0.10366298142E+03  0.15472621126E+03  0.74536422965E+02 0.  0.
         -6    2    1    2    0  502 -0.42925317250E+02 -0.22055627594E+02  0.13811499987E+03  0.22646237314E+03  0.17285953746E+03 0.  0.
        -24    2    5    5    0    0  0.78756177347E+01  0.37797135101E+02  0.32626670454E+02  0.94883629268E+02  0.80297912187E+02 0.  0.
          5    1    3    3  501    0 -0.13908937727E+02 -0.44339973506E+02  0.14346684155E+02  0.48861121001E+02  0.47000000000E+01 0. -1.
        -13    1    4    4    0    0  0.56200521975E+02  0.32030425509E+02 -0.25851669535E+02  0.69661722964E+02  0.00000000000E+00 0.  1.
         14    1    4    4    0    0  0.63373300197E+00  0.34365175592E+02 -0.77811311889E+02  0.85064488295E+02  0.00000000000E+00 0. -1.
         -5    1    5    5    0  502 -0.50800934985E+02 -0.59852762695E+02  0.10548832941E+03  0.13157874388E+03  0.47000000000E+01 0.  1.
         11    1    6    6    0    0 -0.17021673932E+02 -0.19220717117E+02  0.26162580464E+01  0.25807327566E+02  0.00000000000E+00 0. -1.
        -12    1    6    6    0    0  0.24897291666E+02  0.57017852218E+02  0.30010412408E+02  0.69076301702E+02  0.00000000000E+00 0.  1.
<mgrwt>
<rscale>  2 0.18207309E+03</rscale>
<asrwt>0</asrwt>
<pdfrwt beam="1">  1       21 0.36834493E-01 0.18294918E+03</pdfrwt>
<pdfrwt beam="2">  1       21 0.29327000E-01 0.18294918E+03</pdfrwt>
<totfact> 0.79478912E+04</totfact>
</mgrwt>
</event>
<event>
12    1  0.1019868E-001  0.1933492E+03  0.7546771E-02  0.1156709E+00
         21   -1    0    0  503  502  0.00000000000E+00  0.00000000000E+00  0.12798251907E+03  0.12798251907E+03  0.00000000000E+00 0.  1.
         21   -1    0    0  501  503 -0.00000000000E+00 -0.00000000000E+00 -0.30112296458E+03  0.30112296458E+03  0.00000000000E+00 0.  1.
          6    2    1    2  501    0 -0.62992583603E+02 -0.50723836838E+02 -0.13915948837E+03  0.23822106254E+03  0.17562157675E+03 0.  0.
         24    2    3    3    0    0 -0.42266412164E+02  0.37770512530E+02 -0.53969913668E+02  0.11356081350E+03  0.82281501974E+02 0.  0.
         -6    2    1    2    0  502  0.62992583603E+02  0.50723836838E+02 -0.33980957137E+02  0.19088442111E+03  0.16953224932E+03 0.  0.
        -24    2    5    5    0    0  0.52479892675E+02  0.48134943025E+02 -0.80400650080E+02  0.14298768913E+03  0.94393341041E+02 0.  0.
          5    1    3    3  501    0 -0.20726171439E+02 -0.88494349368E+02 -0.85189574705E+02  0.12466024904E+03  0.47000000000E+01 0. -1.
        -11    1    4    4    0    0  0.22911878788E+02 -0.21342541668E+01 -0.79231729847E+01  0.24336924633E+02  0.00000000000E+00 0.  1.
         12    1    4    4    0    0 -0.65178290952E+02  0.39904766697E+02 -0.46046740683E+02  0.89223888864E+02  0.00000000000E+00 0. -1.
         -5    1    5    5    0  502  0.10512690928E+02  0.25888938130E+01  0.46419692943E+02  0.47896731983E+02  0.47000000000E+01 0.  1.
         11    1    6    6    0    0  0.75022882038E+02  0.17662546274E+02 -0.37410135458E+02  0.85673313261E+02  0.00000000000E+00 0. -1.
        -12    1    6    6    0    0 -0.22542989363E+02  0.30472396751E+02 -0.42990514623E+02  0.57314375864E+02  0.00000000000E+00 0.  1.
<mgrwt>
<rscale>  2 0.19195577E+03</rscale>
<asrwt>0</asrwt>
<pdfrwt beam="1">  1       21 0.19689618E-01 0.19334920E+03</pdfrwt>
<pdfrwt beam="2">  1       21 0.46326610E-01 0.19334920E+03</pdfrwt>
<totfact> 0.10606562E+05</totfact>
</mgrwt>
</event>
<event>
12    1  0.1019868E-001  0.2790331E+03  0.7546771E-02  0.1096327E+00
         21   -1    0    0  501  502  0.00000000000E+00  0.00000000000E+00  0.24229864084E+02  0.24229864084E+02  0.00000000000E+00 0. -1.
         21   -1    0    0  502  503 -0.00000000000E+00 -0.00000000000E+00 -0.32603085455E+04  0.32603085455E+04  0.00000000000E+00 0. -1.
         -6    2    1    2    0  503  0.11895189543E+03 -0.18245137873E+03 -0.18310723475E+04  0.18520921494E+04  0.17315117425E+03 0.  0.
        -24    2    3    3    0    0  0.26099556014E+02 -0.88731004186E+02 -0.12493452435E+04  0.12555742711E+04  0.83957340681E+02 0.  0.
          6    2    1    2  501    0 -0.11895189543E+03  0.18245137873E+03 -0.14050063340E+04  0.14324462602E+04  0.17441740419E+03 0.  0.
         24    2    5    5    0    0 -0.22669364048E+02  0.12846665791E+03 -0.10013129819E+04  0.10139070285E+04  0.91445024905E+02 0.  0.
          5    1    5    5  501    0 -0.96282531382E+02  0.53984720821E+02 -0.40369335213E+03  0.41853923172E+03  0.47000000000E+01 0. -1.
        -11    1    6    6    0    0 -0.24682166963E+01  0.44273708437E+02 -0.67005771267E+03  0.67152333664E+03  0.00000000000E+00 0.  1.
         12    1    6    6    0    0 -0.20201147352E+02  0.84192949469E+02 -0.33125526921E+03  0.34238369189E+03  0.00000000000E+00 0. -1.
         -5    1    3    3    0  503  0.92852339416E+02 -0.93720374541E+02 -0.58172710399E+03  0.59651787824E+03  0.47000000000E+01 0.  1.
         13    1    4    4    0    0  0.22461665756E+02 -0.78903869027E+01 -0.80902443403E+02  0.84332615177E+02  0.00000000000E+00 0. -1.
        -14    1    4    4    0    0  0.36378902576E+01 -0.80840617283E+02 -0.11684428001E+04  0.11712416560E+04  0.00000000000E+00 0.  1.
<mgrwt>
<rscale>  2 0.27883549E+03</rscale>
<asrwt>0</asrwt>
<pdfrwt beam="1">  1       21 0.37276738E-02 0.27903313E+03</pdfrwt>
<pdfrwt beam="2">  1       21 0.50158561E+00 0.27903313E+03</pdfrwt>
<totfact> 0.72490245E+02</totfact>
</mgrwt>
</event>
<event>
12    1  0.1019868E-001  0.2466018E+03  0.7546771E-02  0.1115507E+00
         21   -1    0    0  503  502  0.00000000000E+00  0.00000000000E+00  0.65177851537E+03  0.65177851537E+03  0.00000000000E+00 0.  1.
         21   -1    0    0  501  503 -0.00000000000E+00 -0.00000000000E+00 -0.31366140830E+03  0.31366140830E+03  0.00000000000E+00 0.  1.
          6    2    1    2  501    0 -0.14941158659E+03  0.91740179856E+02 -0.23564418432E+03  0.34092852311E+03  0.17310110761E+03 0.  0.
         24    2    3    3    0    0 -0.57446952852E+02  0.10981107284E+03 -0.18286475497E+03  0.23326325854E+03  0.74923995240E+02 0.  0.
         -6    2    1    2    0  502  0.14941158659E+03 -0.91740179856E+02  0.57376129138E+03  0.62451140056E+03  0.17341391851E+03 0.  0.
        -24    2    5    5    0    0  0.17146074391E+03 -0.52257351913E+02  0.41007134595E+03  0.45462453445E+03  0.79970876125E+02 0.  0.
          5    1    3    3  501    0 -0.91964633742E+02 -0.18070892985E+02 -0.52779429343E+02  0.10766526457E+03  0.47000000000E+01 0. -1.
        -13    1    4    4    0    0 -0.64155488862E+02  0.69140833655E+02 -0.16102347420E+03  0.18661441765E+03  0.00000000000E+00 0.  1.
         14    1    4    4    0    0  0.67085360102E+01  0.40670239186E+02 -0.21841280769E+02  0.46648840891E+02  0.00000000000E+00 0. -1.
         -5    1    5    5    0  502 -0.22049157311E+02 -0.39482827943E+02  0.16368994543E+03  0.16988686611E+03  0.47000000000E+01 0.  1.
         13    1    6    6    0    0  0.13840086297E+03 -0.17937677233E+02  0.23626773392E+03  0.27440663481E+03  0.00000000000E+00 0. -1.
        -14    1    6    6    0    0  0.33059880935E+02 -0.34319674680E+02  0.17380361203E+03  0.18021789964E+03  0.00000000000E+00 0.  1.
<mgrwt>
<rscale>  2 0.24654686E+03</rscale>
<asrwt>0</asrwt>
<pdfrwt beam="1">  1       21 0.10027362E+00 0.24660184E+03</pdfrwt>
<pdfrwt beam="2">  1       21 0.48255602E-01 0.24660184E+03</pdfrwt>
<totfact> 0.32102779E+03</totfact>
</mgrwt>
</event>
<event>
12    1  0.1019868E-001  0.1747376E+03  0.7546771E-02  0.1173270E+00
         21   -1    0    0  501  502  0.00000000000E+00  0.00000000000E+00  0.29233961607E+03  0.29233961607E+03  0.00000000000E+00 0. -1.
         21   -1    0    0  502  503 -0.00000000000E+00 -0.00000000000E+00 -0.14870545243E+03  0.14870545243E+03  0.00000000000E+00 0. -1.
         -6    2    1    2    0  503  0.10217371693E+01 -0.33482179036E+02 -0.49529388317E+02  0.18057363199E+03  0.17038654877E+03 0.  0.
        -24    2    3    3    0    0  0.33255260047E+02  0.36471232139E+02 -0.10688925018E+02  0.94184099515E+02  0.79500493010E+02 0.  0.
          6    2    1    2  501    0 -0.10217371693E+01  0.33482179036E+02  0.19316355195E+03  0.26047143651E+03  0.17149667978E+03 0.  0.
         24    2    5    5    0    0 -0.13955619955E+01 -0.37712535465E+02  0.59949787176E+02  0.10935285974E+03  0.83305990342E+02 0.  0.
          5    1    5    5  501    0  0.37382482615E+00  0.71194714501E+02  0.13321376477E+03  0.15111857676E+03  0.47000000000E+01 0. -1.
        -11    1    6    6    0    0 -0.17799993036E+02 -0.20123146769E+02  0.75885482360E+02  0.80500852300E+02  0.00000000000E+00 0.  1.
         12    1    6    6    0    0  0.16404431041E+02 -0.17589388697E+02 -0.15935695184E+02  0.28852007443E+02  0.00000000000E+00 0. -1.
         -5    1    3    3    0  503 -0.32233522877E+02 -0.69953411175E+02 -0.38840463299E+02  0.86389532476E+02  0.47000000000E+01 0.  1.
         13    1    4    4    0    0  0.73686406728E+01 -0.17886579918E+02 -0.25668223429E+02  0.32141628778E+02  0.00000000000E+00 0. -1.
        -14    1    4    4    0    0  0.25886619374E+02  0.54357812057E+02  0.14979298411E+02  0.62042470737E+02  0.00000000000E+00 0.  1.
<mgrwt>
<rscale>  2 0.17446456E+03</rscale>
<asrwt>0</asrwt>
<pdfrwt beam="1">  1       21 0.44975325E-01 0.17473755E+03</pdfrwt>
<pdfrwt beam="2">  1       21 0.22877762E-01 0.17473755E+03</pdfrwt>
<totfact> 0.85667251E+04</totfact>
</mgrwt>
</event>
<event>
12    1  0.1019868E-001  0.1842466E+03  0.7546771E-02  0.1164383E+00
         21   -1    0    0  503  502  0.00000000000E+00  0.00000000000E+00  0.19333175064E+03  0.19333175064E+03  0.00000000000E+00 0. -1.
         21   -1    0    0  501  503 -0.00000000000E+00 -0.00000000000E+00 -0.25785774725E+03  0.25785774725E+03  0.00000000000E+00 0. -1.
          6    2    1    2  501    0  0.46066363545E+02 -0.25180154419E+02 -0.16146715953E+03  0.24299633533E+03  0.17383735316E+03 0.  0.
         24    2    3    3    0    0 -0.44168702835E+02 -0.27544205813E+02 -0.96470642571E+02  0.13166532815E+03  0.72935698908E+02 0.  0.
         -6    2    1    2    0  502 -0.46066363545E+02  0.25180154419E+02  0.96941162919E+02  0.20819316256E+03  0.17660875924E+03 0.  0.
        -24    2    5    5    0    0 -0.13753327138E+02 -0.32883264794E+02 -0.21390616141E+01  0.88801061202E+02  0.81305533484E+02 0.  0.
          5    1    3    3  501    0  0.90235066380E+02  0.23640513942E+01 -0.64996516958E+02  0.11133100718E+03  0.47000000000E+01 0. -1.
        -11    1    4    4    0    0 -0.44063603077E+02  0.13317490160E+02 -0.66980583274E+02  0.81273336316E+02  0.00000000000E+00 0.  1.
         12    1    4    4    0    0 -0.10509975831E+00 -0.40861695973E+02 -0.29490059297E+02  0.50391991835E+02  0.00000000000E+00 0. -1.
         -5    1    5    5    0  502 -0.32313036408E+02  0.58063419212E+02  0.99080224533E+02  0.11939210136E+03  0.47000000000E+01 0.  1.
         13    1    6    6    0    0 -0.22316919485E+02  0.86265990500E+01  0.27972745425E+02  0.36809476947E+02  0.00000000000E+00 0. -1.
        -14    1    6    6    0    0  0.85635923478E+01 -0.41509863844E+02 -0.30111807039E+02  0.51991584255E+02  0.00000000000E+00 0.  1.
<mgrwt>
<rscale>  2 0.18357927E+03</rscale>
<asrwt>0</asrwt>
<pdfrwt beam="1">  1       21 0.29743346E-01 0.18424658E+03</pdfrwt>
<pdfrwt beam="2">  1       21 0.39670423E-01 0.18424658E+03</pdfrwt>
<totfact> 0.66610444E+04</totfact>
</mgrwt>
</event>
<event>
12    1  0.1019868E-001  0.1816780E+03  0.7546771E-02  0.1167995E+00
         21   -1    0    0  501  502  0.00000000000E+00  0.00000000000E+00  0.81168505710E+03  0.81168505710E+03  0.00000000000E+00 0.  1.
         21   -1    0    0  502  503 -0.00000000000E+00 -0.00000000000E+00 -0.65238345679E+02  0.65238345679E+02  0.00000000000E+00 0.  1.
         -6    2    1    2    0  503 -0.20018210586E+02  0.24344750335E+01  0.90700835848E+02  0.19647535180E+03  0.17311633897E+03 0.  0.
        -24    2    3    3    0    0  0.78883038855E+01  0.47683443144E+02  0.28808754088E+01  0.93710191769E+02  0.80233188333E+02 0.  0.
          6    2    1    2  501    0  0.20018210586E+02 -0.24344750335E+01  0.65574587558E+03  0.68044805098E+03  0.18055536914E+03 0.  0.
         24    2    5    5    0    0 -0.69132765724E-01 -0.63437694011E+02  0.53499279937E+03  0.54359671010E+03  0.72496496798E+02 0.  0.
          5    1    5    5  501    0  0.20087343352E+02  0.61003218978E+02  0.12075307620E+03  0.13685134088E+03  0.47000000000E+01 0. -1.
        -13    1    6    6    0    0 -0.31289216322E+02 -0.30457685516E+02  0.15955072333E+03  0.16541801286E+03  0.00000000000E+00 0.  1.
         14    1    6    6    0    0  0.31220083557E+02 -0.32980008495E+02  0.37544207605E+03  0.37817869724E+03  0.00000000000E+00 0. -1.
         -5    1    3    3    0  503 -0.27906514472E+02 -0.45248968110E+02  0.87819960439E+02  0.10276516003E+03  0.47000000000E+01 0.  1.
         11    1    4    4    0    0 -0.15094274684E+02 -0.10425772446E+02  0.21731991928E+02  0.28439643677E+02  0.00000000000E+00 0. -1.
        -12    1    4    4    0    0  0.22982578569E+02  0.58109215590E+02 -0.18851116520E+02  0.65270548092E+02  0.00000000000E+00 0.  1.
<mgrwt>
<rscale>  2 0.17980135E+03</rscale>
<asrwt>0</asrwt>
<pdfrwt beam="1">  1       21 0.12487462E+00 0.18167800E+03</pdfrwt>
<pdfrwt beam="2">  1       21 0.10036669E-01 0.18167800E+03</pdfrwt>
<totfact> 0.38791582E+04</totfact>
</mgrwt>
</event>
<event>
12    1  0.1019868E-001  0.1812851E+03  0.7546771E-02  0.1167566E+00
         21   -1    0    0  503  502  0.00000000000E+00  0.00000000000E+00  0.12103742473E+04  0.12103742473E+04  0.00000000000E+00 0.  1.
         21   -1    0    0  501  503 -0.00000000000E+00 -0.00000000000E+00 -0.53623300422E+02  0.53623300422E+02  0.00000000000E+00 0.  1.
          6    2    1    2  501    0  0.29229192207E+02 -0.29453341792E+02  0.12592799224E+03  0.21735517944E+03  0.17223115218E+03 0.  0.
         24    2    3    3    0    0 -0.43415348228E+02 -0.40661622114E+02  0.61347803857E+02  0.11939832397E+03  0.83391526870E+02 0.  0.
         -6    2    1    2    0  502 -0.29229192207E+02  0.29453341792E+02  0.10308229546E+04  0.10466423682E+04  0.17647220247E+03 0.  0.
        -24    2    5    5    0    0 -0.18061065942E+01  0.11805254735E+01  0.21599236958E+03  0.23084683623E+03  0.81442632682E+02 0.  0.
          5    1    3    3  501    0  0.72644540435E+02  0.11208280322E+02  0.64580188380E+02  0.97956855472E+02  0.47000000000E+01 0. -1.
        -11    1    4    4    0    0 -0.83433014997E+01 -0.18364094330E+02 -0.19776378898E+02  0.28248111491E+02  0.00000000000E+00 0.  1.
         12    1    4    4    0    0 -0.35072046728E+02 -0.22297527783E+02  0.81124182755E+02  0.91150212477E+02  0.00000000000E+00 0. -1.
         -5    1    5    5    0  502 -0.27423085613E+02  0.28272816319E+02  0.81483058502E+03  0.81579553201E+03  0.47000000000E+01 0.  1.
         13    1    6    6    0    0  0.30764139281E+02 -0.23922675191E+02  0.84056277481E+02  0.92650873919E+02  0.00000000000E+00 0. -1.
        -14    1    6    6    0    0 -0.32570245876E+02  0.25103200665E+02  0.13193609210E+03  0.13819596231E+03  0.00000000000E+00 0.  1.
<mgrwt>
<rscale>  2 0.18024472E+03</rscale>
<asrwt>0</asrwt>
<pdfrwt beam="1">  1       21 0.18621140E+00 0.18128509E+03</pdfrwt>
<pdfrwt beam="2">  1       21 0.82497394E-02 0.18128509E+03</pdfrwt>
<totfact> 0.18956825E+04</totfact>
</mgrwt>
</event>
<event>
12    1  0.1019868E-001  0.1759748E+03  0.7546771E-02  0.1171904E+00
         21   -1    0    0  501  502  0.00000000000E+00  0.00000000000E+00  0.73437615186E+02  0.73437615186E+02  0.00000000000E+00 0.  1.
         21   -1    0    0  502  503 -0.00000000000E+00 -0.00000000000E+00 -0.50177310616E+03  0.50177310616E+03  0.00000000000E+00 0.  1.
         -6    2    1    2    0  503  0.25591192100E+02  0.25013542992E+02 -0.33038756580E+03  0.37433014394E+03  0.17229778460E+03 0.  0.
        -24    2    3    3    0    0  0.68467840640E+02  0.31192268902E+02 -0.13621036861E+03  0.17532396928E+03  0.80773924293E+02 0.  0.
          6    2    1    2  501    0 -0.25591192100E+02 -0.25013542992E+02 -0.97947925173E+02  0.20088057741E+03  0.17169340083E+03 0.  0.
         24    2    5    5    0    0 -0.74518338373E+02 -0.50311186433E+02 -0.58977519156E+02  0.13324464797E+03  0.78686658410E+02 0.  0.
          5    1    5    5  501    0  0.48927146274E+02  0.25297643441E+02 -0.38970406017E+02  0.67635929441E+02  0.47000000000E+01 0. -1.
        -13    1    6    6    0    0 -0.63489912940E+02  0.39707302522E+01 -0.25580427575E+02  0.68564524492E+02  0.00000000000E+00 0.  1.
         14    1    6    6    0    0 -0.11028425433E+02 -0.54281916686E+02 -0.33397091581E+02  0.64680123474E+02  0.00000000000E+00 0. -1.
         -5    1    3    3    0  503 -0.42876648540E+02 -0.61787259095E+01 -0.19417719719E+03  0.19900617465E+03  0.47000000000E+01 0.  1.
         11    1    4    4    0    0 -0.14191921666E+02 -0.99466277541E+01 -0.29496080352E+02  0.34210594856E+02  0.00000000000E+00 0. -1.
        -12    1    4    4    0    0  0.82659762307E+02  0.41138896656E+02 -0.10671428826E+03  0.14111337443E+03  0.00000000000E+00 0.  1.
<mgrwt>
<rscale>  2 0.17582664E+03</rscale>
<asrwt>0</asrwt>
<pdfrwt beam="1">  1       21 0.11298095E-01 0.17597475E+03</pdfrwt>
<pdfrwt beam="2">  1       21 0.77195863E-01 0.17597475E+03</pdfrwt>
<totfact> 0.98047148E+04</totfact>
</mgrwt>
</event>
<event>
12    1  0.1019868E-001  0.1940083E+03  0.7546771E-02  0.1155426E+00
         21   -1    0    0  501  502  0.00000000000E+00  0.00000000000E+00  0.56540862514E+03  0.56540862514E+03  0.00000000000E+00 0.  1.
         21   -1    0    0  502  503 -0.00000000000E+00 -0.00000000000E+00 -0.48486422953E+03  0.48486422953E+03  0.00000000000E+00 0.  1.
         -6    2    1    2    0  503 -0.71273407172E+02 -0.38678939822E+02 -0.44792775810E+03  0.48813776749E+03  0.17624767974E+03 0.  0.
        -24    2    3    3    0    0 -0.96354830681E+02 -0.30391921864E+02 -0.19449993271E+03  0.23329368740E+03  0.79923703910E+02 0.  0.
          6    2    1    2  501    0  0.71273407172E+02  0.38678939822E+02  0.52847215371E+03  0.56213508718E+03  0.17360034574E+03 0.  0.
         24    2    5    5    0    0  0.10202781535E+03  0.48334865951E+02  0.50009905517E+03  0.51893562824E+03  0.80306829775E+02 0.  0.
          5    1    5    5  501    0 -0.30754408181E+02 -0.96559261288E+01  0.28373098541E+02  0.43199458941E+02  0.47000000000E+01 0. -1.
        -11    1    6    6    0    0  0.55104943058E+02  0.62003618539E+02  0.38595425444E+03  0.39476789380E+03  0.00000000000E+00 0.  1.
         12    1    6    6    0    0  0.46922872294E+02 -0.13668752588E+02  0.11414480073E+03  0.12416773444E+03  0.00000000000E+00 0. -1.
         -5    1    3    3    0  503  0.25081423509E+02 -0.82870179580E+01 -0.25342782539E+03  0.25484408009E+03  0.47000000000E+01 0.  1.
         11    1    4    4    0    0 -0.28729909154E+01  0.14567729944E+02 -0.24906504081E+01  0.15055768727E+02  0.00000000000E+00 0. -1.
        -12    1    4    4    0    0 -0.93481839765E+02 -0.44959651808E+02 -0.19200928231E+03  0.21823791868E+03  0.00000000000E+00 0.  1.
<mgrwt>
<rscale>  2 0.19340500E+03</rscale>
<asrwt>0</asrwt>
<pdfrwt beam="1">  1       21 0.86985943E-01 0.19400826E+03</pdfrwt>
<pdfrwt beam="2">  1       21 0.74594496E-01 0.19400826E+03</pdfrwt>
<totfact> 0.18266692E+03</totfact>
</mgrwt>
</event>
<event>
12    1  0.1019868E-001  0.1967764E+03  0.7546771E-02  0.1152746E+00
         21   -1    0    0  501  502  0.00000000000E+00  0.00000000000E+00  0.70296671262E+03  0.70296671262E+03  0.00000000000E+00 0.  1.
         21   -1    0    0  502  503 -0.00000000000E+00 -0.00000000000E+00 -0.61027251925E+02  0.61027251925E+02  0.00000000000E+00 0. -1.
         -6    2    1    2    0  503  0.35390129390E+01  0.90624133141E+02  0.19931901804E+03  0.28008752870E+03  0.17463016539E+03 0.  0.
        -24    2    3    3    0    0 -0.48229631177E+02  0.10549975623E+03  0.11385789082E+03  0.17895904142E+03  0.74876053001E+02 0.  0.
          6    2    1    2  501    0 -0.35390129390E+01 -0.90624133141E+02  0.44262044266E+03  0.48390643584E+03  0.17328394118E+03 0.  0.
         24    2    5    5    0    0 -0.38517644724E+01 -0.10702234584E+03  0.44661613460E+03  0.46638345815E+03  0.81110663600E+02 0.  0.
          5    1    5    5  501    0  0.31275153349E+00  0.16398212701E+02 -0.39956919397E+01  0.17522977698E+02  0.47000000000E+01 0. -1.
        -13    1    6    6    0    0  0.13466717411E+02 -0.81549702229E+02  0.18090305312E+03  0.19889097778E+03  0.00000000000E+00 0.  1.
         14    1    6    6    0    0 -0.17318481884E+02 -0.25472643613E+02  0.26571308148E+03  0.26749248037E+03  0.00000000000E+00 0. -1.
         -5    1    3    3    0  503  0.51768644116E+02 -0.14875623093E+02  0.85461127213E+02  0.10112848728E+03  0.47000000000E+01 0.  1.
         11    1    4    4    0    0 -0.14408840955E+02  0.24880466513E+02 -0.71937555181E+01  0.29637854680E+02  0.00000000000E+00 0. -1.
        -12    1    4    4    0    0 -0.33820790222E+02  0.80619289721E+02  0.12105164634E+03  0.14932118674E+03  0.00000000000E+00 0.  1.
<mgrwt>
<rscale>  2 0.19647729E+03</rscale>
<asrwt>0</asrwt>
<pdfrwt beam="1">  1       21 0.10814872E+00 0.19677640E+03</pdfrwt>
<pdfrwt beam="2">  1       21 0.93888085E-02 0.19677640E+03</pdfrwt>
<totfact> 0.61583219E+04</totfact>
</mgrwt>
</event>
<event>
12    1  0.1019868E-001  0.1950863E+03  0.7546771E-02  0.1154649E+00
         21   -1    0    0  503  502  0.00000000000E+00  0.00000000000E+00  0.12097028483E+04  0.12097028483E+04  0.00000000000E+00 0. -1.
         21   -1    0    0  501  503 -0.00000000000E+00 -0.00000000000E+00 -0.39023213518E+02  0.39023213518E+02  0.00000000000E+00 0. -1.
          6    2    1    2  501    0 -0.37714298330E+02 -0.81735210807E+02  0.29759839277E+03  0.35411468300E+03  0.16949747006E+03 0.  0.
         24    2    3    3    0    0 -0.30360996607E+02  0.20058891532E+02  0.16500498911E+03  0.18672528367E+03  0.79470345949E+02 0.  0.
         -6    2    1    2    0  502  0.37714298330E+02  0.81735210807E+02  0.87308124198E+03  0.89461137878E+03  0.17307700875E+03 0.  0.
        -24    2    5    5    0    0  0.35274732061E+02 -0.12536458625E+02  0.25913575177E+03  0.27344774970E+03  0.78872456875E+02 0.  0.
          5    1    3    3  501    0 -0.73533017232E+01 -0.10179410234E+03  0.13259340366E+03  0.16738939934E+03  0.47000000000E+01 0. -1.
        -13    1    4    4    0    0  0.12878142611E+02  0.37561844412E+02  0.90412011898E+02  0.98747509377E+02  0.00000000000E+00 0.  1.
         14    1    4    4    0    0 -0.43239139218E+02 -0.17502952880E+02  0.74592977210E+02  0.87977774289E+02  0.00000000000E+00 0. -1.
         -5    1    5    5    0  502  0.24395662683E+01  0.94271669432E+02  0.61394549021E+03  0.62116362908E+03  0.47000000000E+01 0.  1.
         11    1    6    6    0    0  0.26066335758E+02  0.16963299431E+02  0.22603009863E+03  0.22815962148E+03  0.00000000000E+00 0. -1.
        -12    1    6    6    0    0  0.92083963030E+01 -0.29499758056E+02  0.33105653143E+02  0.45288128222E+02  0.00000000000E+00 0.  1.
<mgrwt>
<rscale>  2 0.19428928E+03</rscale>
<asrwt>0</asrwt>
<pdfrwt beam="1">  1       21 0.18610810E+00 0.19508630E+03</pdfrwt>
<pdfrwt beam="2">  1       21 0.60035723E-02 0.19508630E+03</pdfrwt>
<totfact> 0.32549183E+04</totfact>
</mgrwt>
</event>
<event>
12    1  0.1019868E-001  0.1809953E+03  0.7546771E-02  0.1166914E+00
         21   -1    0    0  503  502  0.00000000000E+00  0.00000000000E+00  0.69830750083E+03  0.69830750083E+03  0.00000000000E+00 0.  1.
         21   -1    0    0  501  503 -0.00000000000E+00 -0.00000000000E+00 -0.48251706976E+02  0.48251706976E+02  0.00000000000E+00 0.  1.
          6    2    1    2  501    0  0.49358512180E+02 -0.16629762940E+02  0.38869591216E+03  0.42864683110E+03  0.17303404850E+03 0.  0.
         24    2    3    3    0    0  0.45350731622E+02 -0.58758524232E+02  0.36277527271E+03  0.37879841705E+03  0.79831630595E+02 0.  0.
         -6    2    1    2    0  502 -0.49358512180E+02  0.16629762940E+02  0.26135988170E+03  0.31791237671E+03  0.17333920436E+03 0.  0.
        -24    2    5    5    0    0  0.87428252949E+01  0.16911839728E+02  0.24083420727E+03  0.25611239051E+03  0.85029370601E+02 0.  0.
          5    1    3    3  501    0  0.40077805579E+01  0.42128761293E+02  0.25920639447E+02  0.49848414041E+02  0.47000000000E+01 0. -1.
        -11    1    4    4    0    0  0.18594927175E+01 -0.62366092238E+02  0.16847424172E+03  0.17965677638E+03  0.00000000000E+00 0.  1.
         12    1    4    4    0    0  0.43491238904E+02  0.36075680053E+01  0.19430103099E+03  0.19914164068E+03  0.00000000000E+00 0. -1.
         -5    1    5    5    0  502 -0.58101337475E+02 -0.28207678816E+00  0.20525674425E+02  0.61799986199E+02  0.47000000000E+01 0.  1.
         11    1    6    6    0    0  0.45977643584E+02  0.10713571204E+02  0.10488217069E+03  0.11501736411E+03  0.00000000000E+00 0. -1.
        -12    1    6    6    0    0 -0.37234818289E+02  0.61982685235E+01  0.13595203658E+03  0.14109502640E+03  0.00000000000E+00 0.  1.
<mgrwt>
<rscale>  2 0.18092218E+03</rscale>
<asrwt>0</asrwt>
<pdfrwt beam="1">  1       21 0.10743192E+00 0.18099528E+03</pdfrwt>
<pdfrwt beam="2">  1       21 0.74233400E-02 0.18099528E+03</pdfrwt>
<totfact> 0.94958861E+04</totfact>
</mgrwt>
</event>
<event>
12    1  0.1019868E-001  0.2173906E+03  0.7546771E-02  0.1136839E+00
         21   -1    0    0  501  502  0.00000000000E+00  0.00000000000E+00  0.16079785273E+04  0.16079785273E+04  0.00000000000E+00 0.  1.
         21   -1    0    0  502  503 -0.00000000000E+00 -0.00000000000E+00 -0.41202510792E+02  0.41202510792E+02  0.00000000000E+00 0.  1.
         -6    2    1    2    0  503 -0.13181929835E+03  0.55747590801E+01  0.33563505754E+03  0.39988695123E+03  0.17277521974E+03 0.  0.
        -24    2    3    3    0    0 -0.99429804509E+02  0.39897765123E+02  0.11920195635E+03  0.17831862013E+03  0.78168447605E+02 0.  0.
          6    2    1    2  501    0  0.13181929835E+03 -0.55747590801E+01  0.12311409589E+04  0.12492940868E+04  0.16619340922E+03 0.  0.
         24    2    5    5    0    0  0.35008958338E+02 -0.44856301571E+02  0.79425111443E+03  0.80006128778E+03  0.77624200302E+02 0.  0.
          5    1    5    5  501    0  0.96810340008E+02  0.39281542491E+02  0.43688984449E+03  0.44923279903E+03  0.47000000000E+01 0. -1.
        -11    1    6    6    0    0  0.48779353403E+02 -0.21218613838E+01  0.32200660177E+03  0.32568724138E+03  0.00000000000E+00 0.  1.
         12    1    6    6    0    0 -0.13770395065E+02 -0.42734440187E+02  0.47224451266E+03  0.47437404640E+03  0.00000000000E+00 0. -1.
         -5    1    3    3    0  503 -0.32389493837E+02 -0.34323006043E+02  0.21643310119E+03  0.22156833110E+03  0.47000000000E+01 0.  1.
         11    1    4    4    0    0 -0.10784312071E+02  0.27911192613E+02  0.81044740284E+00  0.29933140245E+02  0.00000000000E+00 0. -1.
        -12    1    4    4    0    0 -0.88645492437E+02  0.11986572510E+02  0.11839150895E+03  0.14838547988E+03  0.00000000000E+00 0.  1.
<mgrwt>
<rscale>  2 0.21608047E+03</rscale>
<asrwt>0</asrwt>
<pdfrwt beam="1">  1       21 0.24738126E+00 0.21739062E+03</pdfrwt>
<pdfrwt beam="2">  1       21 0.63388491E-02 0.21739062E+03</pdfrwt>
<totfact> 0.12095030E+04</totfact>
</mgrwt>
</event>
<event>
12    1  0.1019868E-001  0.1847335E+03  0.7546771E-02  0.1164232E+00
         21   -1    0    0  503  502  0.00000000000E+00  0.00000000000E+00  0.24853698144E+03  0.24853698144E+03  0.00000000000E+00 0.  1.
         21   -1    0    0  501  503 -0.00000000000E+00 -0.00000000000E+00 -0.26420470226E+03  0.26420470226E+03  0.00000000000E+00 0.  1.
          6    2    1    2  501    0 -0.13173941367E+02  0.46024687252E+02 -0.18748751124E+03  0.26045510088E+03  0.17433722532E+03 0.  0.
         24    2    3    3    0    0  0.22941313164E+01  0.78669692059E+02 -0.19331089437E+03  0.22356391762E+03  0.80109549320E+02 0.  0.
         -6    2    1    2    0  502  0.13173941367E+02 -0.46024687252E+02  0.17181979042E+03  0.25228658283E+03  0.17842268613E+03 0.  0.
        -24    2    5    5    0    0 -0.62680735534E+02 -0.38367640396E+02  0.93971803834E+02  0.14322255856E+03  0.79253081500E+02 0.  0.
          5    1    3    3  501    0 -0.15468072683E+02 -0.32645004807E+02  0.58233831235E+01  0.36891183261E+02  0.47000000000E+01 0. -1.
        -11    1    4    4    0    0  0.18475490581E+02 -0.96561385633E+01 -0.53301550119E+02  0.57233207225E+02  0.00000000000E+00 0.  1.
         12    1    4    4    0    0 -0.16181359265E+02  0.88325830623E+02 -0.14000934425E+03  0.16633071039E+03  0.00000000000E+00 0. -1.
         -5    1    5    5    0  502  0.75854676901E+02 -0.76570468559E+01  0.77847986587E+02  0.10906402427E+03  0.47000000000E+01 0.  1.
         13    1    6    6    0    0 -0.53709776385E+02 -0.58685796101E+02  0.50004866437E+02  0.93964085749E+02  0.00000000000E+00 0. -1.
        -14    1    6    6    0    0 -0.89709591489E+01  0.20318155705E+02  0.43966937398E+02  0.49258472808E+02  0.00000000000E+00 0.  1.
<mgrwt>
<rscale>  2 0.18373985E+03</rscale>
<asrwt>0</asrwt>
<pdfrwt beam="1">  1       21 0.38236459E-01 0.18473354E+03</pdfrwt>
<pdfrwt beam="2">  1       21 0.40646877E-01 0.18473354E+03</pdfrwt>
<totfact> 0.38615585E+04</totfact>
</mgrwt>
</event>
<event>
12    1  0.1019868E-001  0.1959852E+03  0.7546771E-02  0.1154149E+00
         21   -1    0    0  503  502  0.00000000000E+00  0.00000000000E+00  0.15137867878E+03  0.15137867878E+03  0.00000000000E+00 0.  1.
         21   -1    0    0  501  503 -0.00000000000E+00 -0.00000000000E+00 -0.26263857142E+03  0.26263857142E+03  0.00000000000E+00 0. -1.
          6    2    1    2  501    0  0.81800123350E+02  0.23159555110E+02 -0.73595780093E+01  0.19612335257E+03  0.17658590221E+03 0.  0.
         24    2    3    3    0    0  0.66312254612E+02  0.82437103832E+02 -0.14747302931E+02  0.13423336678E+03  0.81289129745E+02 0.  0.
         -6    2    1    2    0  502 -0.81800123350E+02 -0.23159555110E+02 -0.10390031463E+03  0.21789389763E+03  0.17162415352E+03 0.  0.
        -24    2    5    5    0    0 -0.78076923411E+02 -0.43783831624E+02 -0.13451074922E+03  0.18049989136E+03  0.80461414643E+02 0.  0.
          5    1    3    3  501    0  0.15487868738E+02 -0.59277548722E+02  0.73877249219E+01  0.61889985782E+02  0.47000000000E+01 0. -1.
        -11    1    4    4    0    0  0.57325944529E+02  0.71972675675E+02  0.22321488836E+02  0.94681459768E+02  0.00000000000E+00 0.  1.
         12    1    4    4    0    0  0.89863100825E+01  0.10464428158E+02 -0.37068791768E+02  0.39551907017E+02  0.00000000000E+00 0. -1.
         -5    1    5    5    0  502 -0.37231999385E+01  0.20624276514E+02  0.30610434584E+02  0.37394006270E+02  0.47000000000E+01 0.  1.
         13    1    6    6    0    0  0.76250979514E+01 -0.32554811333E+02 -0.45079902527E+02  0.56126245835E+02  0.00000000000E+00 0. -1.
        -14    1    6    6    0    0 -0.85702021363E+02 -0.11229020291E+02 -0.89430846690E+02  0.12437364553E+03  0.00000000000E+00 0.  1.
<mgrwt>
<rscale>  2 0.19486095E+03</rscale>
<asrwt>0</asrwt>
<pdfrwt beam="1">  1       21 0.23289027E-01 0.19598522E+03</pdfrwt>
<pdfrwt beam="2">  1       21 0.40405934E-01 0.19598522E+03</pdfrwt>
<totfact> 0.10216615E+05</totfact>
</mgrwt>
</event>
<event>
12    1  0.1019868E-001  0.2530079E+03  0.7546771E-02  0.1111460E+00
         21   -1    0    0  503  502  0.00000000000E+00  0.00000000000E+00  0.13755981067E+04  0.13755981067E+04  0.00000000000E+00 0.  1.
         21   -1    0    0  501  503 -0.00000000000E+00 -0.00000000000E+00 -0.85289621424E+02  0.85289621424E+02  0.00000000000E+00 0.  1.
          6    2    1    2  501    0 -0.24225446657E+02  0.18336701782E+03  0.15264513830E+03  0.29548864095E+03  0.17263447857E+03 0.  0.
         24    2    3    3    0    0  0.23640357636E+02  0.33970426580E+02  0.24388058024E+02  0.92800591631E+02  0.79399723184E+02 0.  0.
         -6    2    1    2    0  502  0.24225446657E+02 -0.18336701782E+03  0.11376633469E+04  0.11653990871E+04  0.17224054647E+03 0.  0.
        -24    2    5    5    0    0 -0.44528118321E+02 -0.63636469321E+02  0.59717487732E+03  0.60753500626E+03  0.80303151769E+02 0.  0.
          5    1    3    3  501    0 -0.47865804293E+02  0.14939659124E+03  0.12825708028E+03  0.20268804932E+03  0.47000000000E+01 0. -1.
        -13    1    4    4    0    0  0.39571069592E+02  0.50245226047E+02  0.27863954091E+02  0.69762828403E+02  0.00000000000E+00 0.  1.
         14    1    4    4    0    0 -0.15930711956E+02 -0.16274799467E+02 -0.34758960675E+01  0.23037763228E+02  0.00000000000E+00 0. -1.
         -5    1    5    5    0  502  0.68753564978E+02 -0.11973054850E+03  0.54048846962E+03  0.55786408088E+03  0.47000000000E+01 0.  1.
         11    1    6    6    0    0 -0.45825583175E+02 -0.28047984047E+02  0.15733416408E+03  0.16625496284E+03  0.00000000000E+00 0. -1.
        -12    1    6    6    0    0  0.12974648539E+01 -0.35588485275E+02  0.43984071325E+03  0.44128004343E+03  0.00000000000E+00 0.  1.
<mgrwt>
<rscale>  2 0.25294072E+03</rscale>
<asrwt>0</asrwt>
<pdfrwt beam="1">  1       21 0.21163046E+00 0.25300790E+03</pdfrwt>
<pdfrwt beam="2">  1       21 0.13121481E-01 0.25300790E+03</pdfrwt>
<totfact> 0.53873440E+03</totfact>
</mgrwt>
</event>
<event>
12    1  0.1019868E-001  0.1901114E+03  0.7546771E-02  0.1158629E+00
         21   -1    0    0  501  502  0.00000000000E+00  0.00000000000E+00  0.39900232357E+03  0.39900232357E+03  0.00000000000E+00 0.  1.
         21   -1    0    0  502  503 -0.00000000000E+00 -0.00000000000E+00 -0.26064436021E+03  0.26064436021E+03  0.00000000000E+00 0.  1.
         -6    2    1    2    0  503 -0.75327348882E+02 -0.20080462646E+02 -0.19775298954E+03  0.27349527707E+03  0.17209296102E+03 0.  0.
        -24    2    3    3    0    0  0.35620929824E+01  0.71660807951E+01 -0.16470997498E+03  0.18360729690E+03  0.80735508898E+02 0.  0.
          6    2    1    2  501    0  0.75327348882E+02  0.20080462646E+02  0.33611095290E+03  0.38615140672E+03  0.17339233483E+03 0.  0.
         24    2    5    5    0    0  0.89396325510E+02 -0.86167998109E+01  0.33190856566E+03  0.35357504973E+03  0.82377591475E+02 0.  0.
          5    1    5    5  501    0 -0.14068976628E+02  0.28697262457E+02  0.42023872378E+01  0.32576356984E+02  0.47000000000E+01 0. -1.
        -11    1    6    6    0    0  0.46113034389E+02  0.26640798795E+02  0.24163687175E+03  0.24743589450E+03  0.00000000000E+00 0.  1.
         12    1    6    6    0    0  0.43283291121E+02 -0.35257598606E+02  0.90271693917E+02  0.10613915523E+03  0.00000000000E+00 0. -1.
         -5    1    3    3    0  503 -0.78889441865E+02 -0.27246543441E+02 -0.33043014570E+02  0.89887980170E+02  0.47000000000E+01 0.  1.
         11    1    4    4    0    0  0.25697760066E+02 -0.14464519898E+02 -0.20016095549E+02  0.35640444572E+02  0.00000000000E+00 0. -1.
        -12    1    4    4    0    0 -0.22135667083E+02  0.21630600693E+02 -0.14469387943E+03  0.14796685232E+03  0.00000000000E+00 0.  1.
<mgrwt>
<rscale>  2 0.18981460E+03</rscale>
<asrwt>0</asrwt>
<pdfrwt beam="1">  1       21 0.61384973E-01 0.19011138E+03</pdfrwt>
<pdfrwt beam="2">  1       21 0.40099132E-01 0.19011138E+03</pdfrwt>
<totfact> 0.14810423E+04</totfact>
</mgrwt>
</event>
<event>
12    1  0.1019868E-001  0.2407891E+03  0.7546771E-02  0.1119458E+00
         21   -1    0    0  503  502  0.00000000000E+00  0.00000000000E+00  0.10317112576E+04  0.10317112576E+04  0.00000000000E+00 0.  1.
         21   -1    0    0  501  503 -0.00000000000E+00 -0.00000000000E+00 -0.60524319937E+02  0.60524319937E+02  0.00000000000E+00 0.  1.
          6    2    1    2  501    0 -0.85460852507E+02  0.14274314090E+03  0.63497490714E+03  0.67869243222E+03  0.17248513926E+03 0.  0.
         24    2    3    3    0    0 -0.10762875919E+03  0.11008754703E+03  0.35673420990E+03  0.39762699588E+03  0.84526407288E+02 0.  0.
         -6    2    1    2    0  502  0.85460852507E+02 -0.14274314090E+03  0.33621203049E+03  0.41354314529E+03  0.17406964694E+03 0.  0.
        -24    2    5    5    0    0 -0.20899719613E+00 -0.11512532230E+03  0.24652965320E+03  0.28639328941E+03  0.89388829285E+02 0.  0.
          5    1    3    3  501    0  0.22167906686E+02  0.32655593867E+02  0.27824069725E+03  0.28106543634E+03  0.47000000000E+01 0. -1.
        -11    1    4    4    0    0 -0.60596042023E+02  0.25613331020E+02  0.74999752768E+02  0.99764151628E+02  0.00000000000E+00 0.  1.
         12    1    4    4    0    0 -0.47032717169E+02  0.84474216010E+02  0.28173445713E+03  0.29786284425E+03  0.00000000000E+00 0. -1.
         -5    1    5    5    0  502  0.85669849703E+02 -0.27617818596E+02  0.89682377291E+02  0.12714985587E+03  0.47000000000E+01 0.  1.
         11    1    6    6    0    0  0.27592496247E+02 -0.51262776549E+02  0.46264276061E+02  0.74361289312E+02  0.00000000000E+00 0. -1.
        -12    1    6    6    0    0 -0.27801493443E+02 -0.63862545751E+02  0.20026537714E+03  0.21203200010E+03  0.00000000000E+00 0.  1.
<mgrwt>
<rscale>  2 0.24050288E+03</rscale>
<asrwt>0</asrwt>
<pdfrwt beam="1">  1       21 0.15872480E+00 0.24078913E+03</pdfrwt>
<pdfrwt beam="2">  1       21 0.93114346E-02 0.24078913E+03</pdfrwt>
<totfact> 0.22967624E+04</totfact>
</mgrwt>
</event>
<event>
12    1  0.1019868E-001  0.1935523E+03  0.7546771E-02  0.1155794E+00
         21   -1    0    0  503  502  0.00000000000E+00  0.00000000000E+00  0.78775194273E+03  0.78775194273E+03  0.00000000000E+00 0.  1.
         21   -1    0    0  501  503 -0.00000000000E+00 -0.00000000000E+00 -0.51991270121E+02  0.51991270121E+02  0.00000000000E+00 0.  1.
          6    2    1    2  501    0  0.29563493836E+02  0.76560644461E+02  0.23980090214E+03  0.30816711374E+03  0.17529108613E+03 0.  0.
         24    2    3    3    0    0  0.42730637824E+02 -0.21502146635E+02  0.13466085470E+03  0.16371572312E+03  0.79881427678E+02 0.  0.
         -6    2    1    2    0  502 -0.29563493836E+02 -0.76560644461E+02  0.49595977047E+03  0.53157609911E+03  0.17280486907E+03 0.  0.
        -24    2    5    5    0    0  0.29866228400E+02 -0.93139499142E+02  0.34281724940E+03  0.36640506028E+03  0.84628859237E+02 0.  0.
          5    1    3    3  501    0 -0.13167143988E+02  0.98062791096E+02  0.10514004744E+03  0.14445139063E+03  0.47000000000E+01 0. -1.
        -13    1    4    4    0    0  0.57766668481E+01  0.26511903650E+02  0.18931285438E+02  0.33085411942E+02  0.00000000000E+00 0.  1.
         14    1    4    4    0    0  0.36953970976E+02 -0.48014050285E+02  0.11572956927E+03  0.13063031118E+03  0.00000000000E+00 0. -1.
         -5    1    5    5    0  502 -0.59429722236E+02  0.16578854681E+02  0.15314252107E+03  0.16517103883E+03  0.47000000000E+01 0.  1.
         11    1    6    6    0    0  0.38214222423E+02 -0.40961122216E+02  0.27385293083E+03  0.27952382377E+03  0.00000000000E+00 0. -1.
        -12    1    6    6    0    0 -0.83479940236E+01 -0.52178376926E+02  0.68964318566E+02  0.86881236513E+02  0.00000000000E+00 0.  1.
<mgrwt>
<rscale>  2 0.19298766E+03</rscale>
<asrwt>0</asrwt>
<pdfrwt beam="1">  1       21 0.12119260E+00 0.19355231E+03</pdfrwt>
<pdfrwt beam="2">  1       21 0.79986575E-02 0.19355231E+03</pdfrwt>
<totfact> 0.61829000E+04</totfact>
</mgrwt>
</event>
<event>
12    1  0.1019868E-001  0.2346742E+03  0.7546771E-02  0.1123413E+00
         21   -1    0    0  503  502  0.00000000000E+00  0.00000000000E+00  0.79251920032E+03  0.79251920032E+03  0.00000000000E+00 0.  1.
         21   -1    0    0  501  503 -0.00000000000E+00 -0.00000000000E+00 -0.69454835500E+02  0.69454835500E+02  0.00000000000E+00 0. -1.
          6    2    1    2  501    0 -0.54439374137E+02  0.14948537552E+03  0.36354243785E+03  0.43270668006E+03  0.17251795241E+03 0.  0.
         24    2    3    3    0    0 -0.71636088097E+02  0.73012259812E+02  0.32661946210E+03  0.34593536836E+03  0.50284061676E+02 0.  0.
         -6    2    1    2    0  502  0.54439374137E+02 -0.14948537552E+03  0.35952192697E+03  0.42926735575E+03  0.17235116418E+03 0.  0.
        -24    2    5    5    0    0  0.27989327617E+02 -0.34989721631E+01  0.16449247011E+03  0.18417509972E+03  0.77891266308E+02 0.  0.
          5    1    3    3  501    0  0.17196713959E+02  0.76473115707E+02  0.36922975752E+02  0.86771311707E+02  0.47000000000E+01 0. -1.
        -13    1    4    4    0    0 -0.11071664840E+02  0.32262616701E+02  0.16654981040E+03  0.17000675734E+03  0.00000000000E+00 0.  1.
         14    1    4    4    0    0 -0.60564423256E+02  0.40749643112E+02  0.16006965170E+03  0.17592861102E+03  0.00000000000E+00 0. -1.
         -5    1    5    5    0  502  0.26450046520E+02 -0.14598640336E+03  0.19502945686E+03  0.24509225604E+03  0.47000000000E+01 0.  1.
         13    1    6    6    0    0 -0.18742190648E+02  0.86982912454E+01  0.10751356210E+03  0.10948103040E+03  0.00000000000E+00 0. -1.
        -14    1    6    6    0    0  0.46731518266E+02 -0.12197263408E+02  0.56978908004E+02  0.74694069319E+02  0.00000000000E+00 0.  1.
<mgrwt>
<rscale>  2 0.23464352E+03</rscale>
<asrwt>0</asrwt>
<pdfrwt beam="1">  1       21 0.12192602E+00 0.23467417E+03</pdfrwt>
<pdfrwt beam="2">  1       21 0.10685360E-01 0.23467417E+03</pdfrwt>
<totfact> 0.35808637E+04</totfact>
</mgrwt>
</event>
<event>
12    1  0.1019868E-001  0.2184020E+03  0.7546771E-02  0.1135390E+00
         21   -1    0    0  503  502  0.00000000000E+00  0.00000000000E+00  0.11385011122E+04  0.11385011122E+04  0.00000000000E+00 0. -1.
         21   -1    0    0  501  503 -0.00000000000E+00 -0.00000000000E+00 -0.10293497449E+03  0.10293497449E+03  0.00000000000E+00 0.  1.
          6    2    1    2  501    0  0.13097880001E+03  0.22357791053E+02  0.37780223428E+02  0.22002716601E+03  0.17125796807E+03 0.  0.
         24    2    3    3    0    0  0.11942596850E+03 -0.38933290081E+02  0.47285155862E+02  0.15676186522E+03  0.80994033088E+02 0.  0.
         -6    2    1    2    0  502 -0.13097880001E+03 -0.22357791053E+02  0.99778591426E+03  0.10214089207E+04  0.17333244254E+03 0.  0.
        -24    2    5    5    0    0 -0.11307191068E+02 -0.20320927803E+02  0.60453740756E+03  0.61032265135E+03  0.80544825589E+02 0.  0.
          5    1    3    3  501    0  0.11552831510E+02  0.61291081134E+02 -0.95049324337E+01  0.63265300782E+02  0.47000000000E+01 0. -1.
        -11    1    4    4    0    0  0.11929249668E+03 -0.11916432927E+02  0.26770590729E+02  0.12283877917E+03  0.00000000000E+00 0.  1.
         12    1    4    4    0    0  0.13347181247E+00 -0.27016857154E+02  0.20514565133E+02  0.33923086059E+02  0.00000000000E+00 0. -1.
         -5    1    5    5    0  502 -0.11967160894E+03 -0.20368632504E+01  0.39324850670E+03  0.41108626931E+03  0.47000000000E+01 0.  1.
         11    1    6    6    0    0 -0.33884542121E+02  0.18567330142E+02  0.30201416762E+03  0.30447572216E+03  0.00000000000E+00 0. -1.
        -12    1    6    6    0    0  0.22577351053E+02 -0.38888257945E+02  0.30252323994E+03  0.30584692918E+03  0.00000000000E+00 0.  1.
<mgrwt>
<rscale>  2 0.21799020E+03</rscale>
<asrwt>0</asrwt>
<pdfrwt beam="1">  1       21 0.17515401E+00 0.21840204E+03</pdfrwt>
<pdfrwt beam="2">  1       21 0.15836151E-01 0.21840204E+03</pdfrwt>
<totfact> 0.68351960E+03</totfact>
</mgrwt>
</event>
<event>
12    1  0.1019868E-001  0.2004645E+03  0.7546771E-02  0.1149848E+00
         21   -1    0    0  503  502  0.00000000000E+00  0.00000000000E+00  0.21635712642E+03  0.21635712642E+03  0.00000000000E+00 0. -1.
         21   -1    0    0  501  503 -0.00000000000E+00 -0.00000000000E+00 -0.22292154345E+03  0.22292154345E+03  0.00000000000E+00 0.  1.
          6    2    1    2  501    0  0.58884736576E+02  0.79058852129E+02 -0.95561211550E+02  0.21994684995E+03  0.17183409833E+03 0.  0.
         24    2    3    3    0    0  0.84484906727E+02  0.51919256329E+02 -0.12120695208E+03  0.17443069480E+03  0.76822089363E+02 0.  0.
         -6    2    1    2    0  502 -0.58884736576E+02 -0.79058852129E+02  0.88996794518E+02  0.21933181993E+03  0.17455172155E+03 0.  0.
        -24    2    5    5    0    0  0.19505909481E+02 -0.66703585622E+02  0.90810121270E+02  0.13981374554E+03  0.80445984848E+02 0.  0.
          5    1    3    3  501    0 -0.25600170152E+02  0.27139595799E+02  0.25645740531E+02  0.45516155146E+02  0.47000000000E+01 0. -1.
        -11    1    4    4    0    0  0.72398802290E+01 -0.18226561286E+02 -0.10285015296E+02  0.22145088432E+02  0.00000000000E+00 0.  1.
         12    1    4    4    0    0  0.77245026498E+02  0.70145817615E+02 -0.11092193679E+03  0.15228560637E+03  0.00000000000E+00 0. -1.
         -5    1    5    5    0  502 -0.78390646056E+02 -0.12355266507E+02 -0.18133267519E+01  0.79518074382E+02  0.47000000000E+01 0.  1.
         13    1    6    6    0    0 -0.17147549995E+02 -0.47407516461E+02  0.83810010287E+02  0.97804033210E+02  0.00000000000E+00 0. -1.
        -14    1    6    6    0    0  0.36653459475E+02 -0.19296069160E+02  0.70001109839E+01  0.42009712333E+02  0.00000000000E+00 0.  1.
<mgrwt>
<rscale>  2 0.19987142E+03</rscale>
<asrwt>0</asrwt>
<pdfrwt beam="1">  1       21 0.33285712E-01 0.20046451E+03</pdfrwt>
<pdfrwt beam="2">  1       21 0.34295622E-01 0.20046451E+03</pdfrwt>
<totfact> 0.70963624E+04</totfact>
</mgrwt>
</event>
<event>
12    1  0.1019868E-001  0.1962098E+03  0.7546771E-02  0.1153952E+00
         21   -1    0    0  501  502  0.00000000000E+00  0.00000000000E+00  0.14213038043E+03  0.14213038043E+03  0.00000000000E+00 0.  1.
         21   -1    0    0  502  503 -0.00000000000E+00 -0.00000000000E+00 -0.27835507492E+03  0.27835507492E+03  0.00000000000E+00 0.  1.
         -6    2    1    2    0  503 -0.77663491726E+02  0.37147128261E+02 -0.20894631748E+02  0.19289081970E+03  0.17134396868E+03 0.  0.
        -24    2    3    3    0    0 -0.48144533196E+02 -0.37756069479E+02  0.17224797964E+02  0.10368858393E+03  0.81921986752E+02 0.  0.
          6    2    1    2  501    0  0.77663491726E+02 -0.37147128261E+02 -0.11533006274E+03  0.22759463565E+03  0.17631440021E+03 0.  0.
         24    2    5    5    0    0  0.39970779576E+02 -0.89273228637E+02 -0.97598049217E+02  0.16070379029E+03  0.82054594217E+02 0.  0.
          5    1    5    5  501    0  0.37692712150E+02  0.52126100376E+02 -0.17732013526E+02  0.66890845362E+02  0.47000000000E+01 0. -1.
        -11    1    6    6    0    0  0.50392263490E+02 -0.50975253554E+02 -0.97500312806E+02  0.12101308893E+03  0.00000000000E+00 0.  1.
         12    1    6    6    0    0 -0.10421483913E+02 -0.38297975083E+02 -0.97736410928E-01  0.39690701365E+02  0.00000000000E+00 0. -1.
         -5    1    3    3    0  503 -0.29518958530E+02  0.74903197740E+02 -0.38119429712E+02  0.89202235767E+02  0.47000000000E+01 0.  1.
         11    1    4    4    0    0 -0.34692307268E+02 -0.63701021208E+02  0.76625283796E+01  0.72938951375E+02  0.00000000000E+00 0. -1.
        -12    1    4    4    0    0 -0.13452225929E+02  0.25944951730E+02  0.95622695840E+01  0.30749632555E+02  0.00000000000E+00 0.  1.
<mgrwt>
<rscale>  2 0.19508671E+03</rscale>
<asrwt>0</asrwt>
<pdfrwt beam="1">  1       21 0.21866212E-01 0.19620982E+03</pdfrwt>
<pdfrwt beam="2">  1       21 0.42823858E-01 0.19620982E+03</pdfrwt>
<totfact> 0.10226442E+05</totfact>
</mgrwt>
</event>
<event>
12    1  0.1019868E-001  0.1936903E+03  0.7546771E-02  0.1155493E+00
         21   -1    0    0  503  502  0.00000000000E+00  0.00000000000E+00  0.96645370817E+03  0.96645370817E+03  0.00000000000E+00 0.  1.
         21   -1    0    0  501  503 -0.00000000000E+00 -0.00000000000E+00 -0.43040515454E+02  0.43040515454E+02  0.00000000000E+00 0. -1.
          6    2    1    2  501    0  0.27515201990E+02 -0.80204653870E+02  0.29675368535E+03  0.35358411915E+03  0.17253726177E+03 0.  0.
         24    2    3    3    0    0  0.62367815625E+02 -0.10612163845E+03  0.23142122901E+03  0.27499140563E+03  0.83144099965E+02 0.  0.
         -6    2    1    2    0  502 -0.27515201990E+02  0.80204653870E+02  0.62665950737E+03  0.65591010448E+03  0.17414377435E+03 0.  0.
        -24    2    5    5    0    0  0.41163108885E+02  0.41439562583E+01  0.31683861032E+03  0.32954678186E+03  0.80639956216E+02 0.  0.
          5    1    3    3  501    0 -0.34852613635E+02  0.25916984577E+02  0.65332456341E+02  0.78592713519E+02  0.47000000000E+01 0. -1.
        -13    1    4    4    0    0  0.58782404027E+02 -0.72036753669E+02  0.22004174806E+03  0.23887870518E+03  0.00000000000E+00 0.  1.
         14    1    4    4    0    0  0.35854115979E+01 -0.34084884778E+02  0.11379480959E+02  0.36112700447E+02  0.00000000000E+00 0. -1.
         -5    1    5    5    0  502 -0.68678310875E+02  0.76060697612E+02  0.30982089705E+03  0.32636332262E+03  0.47000000000E+01 0.  1.
         11    1    6    6    0    0  0.31776239197E+02  0.15267158207E+02  0.44279689934E+02  0.56599526835E+02  0.00000000000E+00 0. -1.
        -12    1    6    6    0    0  0.93868696874E+01 -0.11123201949E+02  0.27255892039E+03  0.27294725503E+03  0.00000000000E+00 0.  1.
<mgrwt>
<rscale>  2 0.19332850E+03</rscale>
<asrwt>0</asrwt>
<pdfrwt beam="1">  1       21 0.14868517E+00 0.19369029E+03</pdfrwt>
<pdfrwt beam="2">  1       21 0.66216185E-02 0.19369029E+03</pdfrwt>
<totfact> 0.50898315E+04</totfact>
</mgrwt>
</event>
<event>
12    1  0.1019868E-001  0.2788274E+03  0.7546771E-02  0.1096353E+00
         21   -1    0    0  501  502  0.00000000000E+00  0.00000000000E+00  0.90514108249E+02  0.90514108249E+02  0.00000000000E+00 0.  1.
         21   -1    0    0  502  503 -0.00000000000E+00 -0.00000000000E+00 -0.13772706339E+04  0.13772706339E+04  0.00000000000E+00 0.  1.
         -6    2    1    2    0  503 -0.18883404534E+03  0.11007775735E+03 -0.10939376915E+04  0.11289129200E+04  0.17311643114E+03 0.  0.
        -24    2    3    3    0    0 -0.98390503293E+02  0.23061616487E+02 -0.78340119501E+03  0.79394001256E+03  0.80067358602E+02 0.  0.
          6    2    1    2  501    0  0.18883404534E+03 -0.11007775735E+03 -0.19281883419E+03  0.33887182218E+03  0.17285716563E+03 0.  0.
         24    2    5    5    0    0  0.18153318801E+03 -0.13178635950E+03 -0.20337761199E+03  0.31321751039E+03  0.80129974763E+02 0.  0.
          5    1    5    5  501    0  0.73008573256E+01  0.21708602146E+02  0.10558777804E+02  0.25654311792E+02  0.47000000000E+01 0. -1.
        -13    1    6    6    0    0  0.89083692216E+02 -0.24601711030E+02 -0.10988219206E+03  0.14358009798E+03  0.00000000000E+00 0.  1.
         14    1    6    6    0    0  0.92449495794E+02 -0.10718464847E+03 -0.93495419930E+02  0.16963741240E+03  0.00000000000E+00 0. -1.
         -5    1    3    3    0  503 -0.90443542043E+02  0.87016140863E+02 -0.31053649648E+03  0.33497290743E+03  0.47000000000E+01 0.  1.
         13    1    4    4    0    0 -0.13459810414E+02  0.29122379495E+02 -0.39572718714E+03  0.39702554846E+03  0.00000000000E+00 0. -1.
        -14    1    4    4    0    0 -0.84930692879E+02 -0.60607630087E+01 -0.38767400787E+03  0.39691446411E+03  0.00000000000E+00 0.  1.
<mgrwt>
<rscale>  2 0.27878715E+03</rscale>
<asrwt>0</asrwt>
<pdfrwt beam="1">  1       21 0.13925249E-01 0.27882738E+03</pdfrwt>
<pdfrwt beam="2">  1       21 0.21188777E+00 0.27882738E+03</pdfrwt>
<totfact> 0.47302372E+03</totfact>
</mgrwt>
</event>
<event>
12    1  0.1019868E-001  0.2226362E+03  0.7546771E-02  0.1132014E+00
         21   -1    0    0  501  502  0.00000000000E+00  0.00000000000E+00  0.31081160674E+04  0.31081160674E+04  0.00000000000E+00 0. -1.
         21   -1    0    0  502  503 -0.00000000000E+00 -0.00000000000E+00 -0.16451447062E+02  0.16451447062E+02  0.00000000000E+00 0. -1.
         -6    2    1    2    0  503 -0.18885568558E+02  0.13930031242E+03  0.12625333966E+04  0.12819368127E+04  0.17207606591E+03 0.  0.
        -24    2    3    3    0    0 -0.57630396086E+01  0.18405196811E+02  0.77996285686E+03  0.78425795482E+03  0.79665034524E+02 0.  0.
          6    2    1    2  501    0  0.18885568558E+02 -0.13930031242E+03  0.18291312237E+04  0.18426307018E+04  0.17264306452E+03 0.  0.
         24    2    5    5    0    0 -0.15087212518E+02 -0.12438290694E+03  0.17338435145E+04  0.17402660772E+04  0.81326225891E+02 0.  0.
          5    1    5    5  501    0  0.33972781076E+02 -0.14917405483E+02  0.95287709215E+02  0.10236462459E+03  0.47000000000E+01 0. -1.
        -11    1    6    6    0    0  0.23317353685E+02 -0.13157530225E+02  0.18084544858E+03  0.18281656341E+03  0.00000000000E+00 0.  1.
         12    1    6    6    0    0 -0.38404566203E+02 -0.11122537671E+03  0.15529980659E+04  0.15574495138E+04  0.00000000000E+00 0. -1.
         -5    1    3    3    0  503 -0.13122528950E+02  0.12089511561E+03  0.48257053978E+03  0.49767885791E+03  0.47000000000E+01 0.  1.
         13    1    4    4    0    0  0.10811489949E+02 -0.18655202110E+02  0.72679092257E+02  0.75809994935E+02  0.00000000000E+00 0. -1.
        -14    1    4    4    0    0 -0.16574529557E+02  0.37060398921E+02  0.70728376460E+03  0.70844795989E+03  0.00000000000E+00 0.  1.
<mgrwt>
<rscale>  2 0.22252625E+03</rscale>
<asrwt>0</asrwt>
<pdfrwt beam="1">  1       21 0.47817123E+00 0.22263618E+03</pdfrwt>
<pdfrwt beam="2">  1       21 0.25309943E-02 0.22263618E+03</pdfrwt>
<totfact> 0.21559949E+03</totfact>
</mgrwt>
</event>
<event>
12    1  0.1019868E-001  0.2336147E+03  0.7546771E-02  0.1125984E+00
         21   -1    0    0  501  502  0.00000000000E+00  0.00000000000E+00  0.10688147077E+04  0.10688147077E+04  0.00000000000E+00 0. -1.
         21   -1    0    0  502  503 -0.00000000000E+00 -0.00000000000E+00 -0.51124994512E+02  0.51124994512E+02  0.00000000000E+00 0. -1.
         -6    2    1    2    0  503  0.13862966644E+03  0.17463940392E+02  0.37784362756E+03  0.43877978143E+03  0.17389282927E+03 0.  0.
        -24    2    3    3    0    0  0.67834384497E+02  0.19066551705E+02  0.81239940659E+02  0.13380375386E+03  0.79614568231E+02 0.  0.
          6    2    1    2  501    0 -0.13862966644E+03 -0.17463940392E+02  0.63984608562E+03  0.68115992078E+03  0.18722353153E+03 0.  0.
         24    2    5    5    0    0 -0.26526151952E+02  0.48684094333E+02  0.15923913721E+03  0.18321625999E+03  0.71675081631E+02 0.  0.
          5    1    5    5  501    0 -0.11210351448E+03 -0.66148034725E+02  0.48060694841E+03  0.49794366079E+03  0.47000000000E+01 0. -1.
        -11    1    6    6    0    0 -0.21679910554E+02  0.20717365153E+02  0.10467985520E+02  0.31761713766E+02  0.00000000000E+00 0.  1.
         12    1    6    6    0    0 -0.48462413976E+01  0.27966729180E+02  0.14877115169E+03  0.15145454622E+03  0.00000000000E+00 0. -1.
         -5    1    3    3    0  503  0.70795281939E+02 -0.16026113125E+01  0.29660368690E+03  0.30497602757E+03  0.47000000000E+01 0.  1.
         11    1    4    4    0    0  0.53046773563E+02 -0.61503884762E+01  0.88789545714E+02  0.10361163493E+03  0.00000000000E+00 0. -1.
        -12    1    4    4    0    0  0.14787610934E+02  0.25216940181E+02 -0.75496050551E+01  0.30192118934E+02  0.00000000000E+00 0.  1.
<mgrwt>
<rscale>  2 0.23093365E+03</rscale>
<asrwt>0</asrwt>
<pdfrwt beam="1">  1       21 0.16443302E+00 0.23361469E+03</pdfrwt>
<pdfrwt beam="2">  1       21 0.78653846E-02 0.23361469E+03</pdfrwt>
<totfact> 0.28165392E+04</totfact>
</mgrwt>
</event>
<event>
12    1  0.1019868E-001  0.2242097E+03  0.7546771E-02  0.1130819E+00
         21   -1    0    0  503  502  0.00000000000E+00  0.00000000000E+00  0.82307848977E+02  0.82307848977E+02  0.00000000000E+00 0.  1.
         21   -1    0    0  501  503 -0.00000000000E+00 -0.00000000000E+00 -0.63745929664E+03  0.63745929664E+03  0.00000000000E+00 0.  1.
          6    2    1    2  501    0  0.92085299804E+02  0.10869262386E+03 -0.35184890251E+03  0.41710907407E+03  0.17288302564E+03 0.  0.
         24    2    3    3    0    0  0.12289263399E+02  0.11665759745E+03 -0.24800854981E+03  0.28582405178E+03  0.80169362957E+02 0.  0.
         -6    2    1    2    0  502 -0.92085299804E+02 -0.10869262386E+03 -0.20330254515E+03  0.30265807154E+03  0.17313634651E+03 0.  0.
        -24    2    5    5    0    0 -0.86640174926E+02 -0.98969991491E+01 -0.14624417237E+03  0.18834283742E+03  0.80505875267E+02 0.  0.
          5    1    3    3  501    0  0.79796036405E+02 -0.79649735915E+01 -0.10384035270E+03  0.13128502230E+03  0.47000000000E+01 0. -1.
        -11    1    4    4    0    0  0.36284816426E+02  0.27610975897E+02 -0.51710027224E+02  0.68941140175E+02  0.00000000000E+00 0.  1.
         12    1    4    4    0    0 -0.23995553028E+02  0.89046621557E+02 -0.19629852258E+03  0.21688291160E+03  0.00000000000E+00 0. -1.
         -5    1    5    5    0  502 -0.54451248780E+01 -0.98795624714E+02 -0.57058372781E+02  0.11431523412E+03  0.47000000000E+01 0.  1.
         13    1    6    6    0    0 -0.45616375229E+02 -0.80987917861E+01 -0.13916452516E+03  0.14667381900E+03  0.00000000000E+00 0. -1.
        -14    1    6    6    0    0 -0.41023799697E+02 -0.17982073630E+01 -0.70796472070E+01  0.41669018417E+02  0.00000000000E+00 0.  1.
<mgrwt>
<rscale>  2 0.22416078E+03</rscale>
<asrwt>0</asrwt>
<pdfrwt beam="1">  1       21 0.12662746E-01 0.22420969E+03</pdfrwt>
<pdfrwt beam="2">  1       21 0.98070661E-01 0.22420969E+03</pdfrwt>
<totfact> 0.45087895E+04</totfact>
</mgrwt>
</event>
<event>
12    1  0.1019868E-001  0.2199028E+03  0.7546771E-02  0.1133995E+00
         21   -1    0    0  503  502  0.00000000000E+00  0.00000000000E+00  0.18763935311E+03  0.18763935311E+03  0.00000000000E+00 0.  1.
         21   -1    0    0  501  503 -0.00000000000E+00 -0.00000000000E+00 -0.29025198690E+03  0.29025198690E+03  0.00000000000E+00 0.  1.
          6    2    1    2  501    0  0.12720429760E+03 -0.50761804146E+02  0.28977881697E+02  0.22180390866E+03  0.17204523296E+03 0.  0.
         24    2    3    3    0    0  0.13573775412E+03  0.64027240030E+01  0.20884789850E+01  0.15788416886E+03  0.80357428172E+02 0.  0.
         -6    2    1    2    0  502 -0.12720429760E+03  0.50761804146E+02 -0.13159051549E+03  0.25608743135E+03  0.17177605958E+03 0.  0.
        -24    2    5    5    0    0 -0.44200911135E+02  0.23274729667E+02 -0.13828165644E+03  0.16826964958E+03  0.81837796134E+02 0.  0.
          5    1    3    3  501    0 -0.85334565246E+01 -0.57164528149E+02  0.26889402712E+02  0.63919739807E+02  0.47000000000E+01 0. -1.
        -13    1    4    4    0    0  0.27515779477E+02 -0.27866627779E+02 -0.17140536318E+02  0.42748860210E+02  0.00000000000E+00 0.  1.
         14    1    4    4    0    0  0.10822197465E+03  0.34269351782E+02  0.19229015303E+02  0.11513530865E+03  0.00000000000E+00 0. -1.
         -5    1    5    5    0  502 -0.83003386463E+02  0.27487074479E+02  0.66911409560E+01  0.87817781770E+02  0.47000000000E+01 0.  1.
         11    1    6    6    0    0 -0.30981060544E+02 -0.25656584588E+02 -0.88560968695E+02  0.97268348508E+02  0.00000000000E+00 0. -1.
        -12    1    6    6    0    0 -0.13219850591E+02  0.48931314255E+02 -0.49720687749E+02  0.71001301077E+02  0.00000000000E+00 0.  1.
<mgrwt>
<rscale>  2 0.21985018E+03</rscale>
<asrwt>0</asrwt>
<pdfrwt beam="1">  1       21 0.28867593E-01 0.21990283E+03</pdfrwt>
<pdfrwt beam="2">  1       21 0.44654152E-01 0.21990283E+03</pdfrwt>
<totfact> 0.54594441E+04</totfact>
</mgrwt>
</event>
<event>
12    1  0.1019868E-001  0.1749870E+03  0.7546771E-02  0.1173087E+00
         21   -1    0    0  503  502  0.00000000000E+00  0.00000000000E+00  0.66391608475E+02  0.66391608475E+02  0.00000000000E+00 0. -1.
         21   -1    0    0  501  503 -0.00000000000E+00 -0.00000000000E+00 -0.80427920635E+03  0.80427920635E+03  0.00000000000E+00 0. -1.
          6    2    1    2  501    0 -0.28394224210E+02 -0.64025227772E+01 -0.65392295084E+03  0.67658184974E+03  0.17117403275E+03 0.  0.
         24    2    3    3    0    0  0.43796402498E+02  0.13253924651E+02 -0.44630427943E+03  0.45584339539E+03  0.80696343719E+02 0.  0.
         -6    2    1    2    0  502  0.28394224210E+02  0.64025227772E+01 -0.83964647033E+02  0.19408896509E+03  0.17254923979E+03 0.  0.
        -24    2    5    5    0    0 -0.11414959017E+02 -0.16402729735E+02 -0.11249646443E+03  0.13985792955E+03  0.80656277597E+02 0.  0.
          5    1    3    3  501    0 -0.72190626708E+02 -0.19656447429E+02 -0.20761867141E+03  0.22073845435E+03  0.47000000000E+01 0. -1.
        -13    1    4    4    0    0  0.33728785235E+01 -0.30968774255E+02 -0.11392952016E+03  0.11811171344E+03  0.00000000000E+00 0.  1.
         14    1    4    4    0    0  0.40423523975E+02  0.44222698906E+02 -0.33237475928E+03  0.33773168195E+03  0.00000000000E+00 0. -1.
         -5    1    5    5    0  502  0.39809183227E+02  0.22805252512E+02  0.28531817401E+02  0.54231035538E+02  0.47000000000E+01 0.  1.
         13    1    6    6    0    0 -0.37409236028E+02  0.13594247555E+02 -0.35960625260E+02  0.53641598372E+02  0.00000000000E+00 0. -1.
        -14    1    6    6    0    0  0.25994277010E+02 -0.29996977290E+02 -0.76535839173E+02  0.86216331178E+02  0.00000000000E+00 0.  1.
<mgrwt>
<rscale>  2 0.17464708E+03</rscale>
<asrwt>0</asrwt>
<pdfrwt beam="1">  1       21 0.10214094E-01 0.17498704E+03</pdfrwt>
<pdfrwt beam="2">  1       21 0.12373525E+00 0.17498704E+03</pdfrwt>
<totfact> 0.38627910E+04</totfact>
</mgrwt>
</event>
<event>
11    1  0.1019868E-001  0.2390371E+03  0.7546771E-02  0.1121028E+00
         21   -1    0    0  503  502  0.00000000000E+00  0.00000000000E+00  0.81439077390E+02  0.81439077390E+02  0.00000000000E+00 0. -1.
         21   -1    0    0  501  503 -0.00000000000E+00 -0.00000000000E+00 -0.79402207456E+03  0.79402207456E+03  0.00000000000E+00 0.  1.
          6    2    1    2  501    0  0.90865335259E+02  0.13066230903E+03 -0.51139675551E+03  0.56302776415E+03  0.17362163894E+03 0.  0.
         -6    2    1    2    0  502 -0.90865335259E+02 -0.13066230903E+03 -0.20118624166E+03  0.31243338780E+03  0.17835237543E+03 0.  0.
        -24    2    4    4    0    0 -0.97441008370E+02 -0.16057848944E+03 -0.15153590676E+03  0.25390593199E+03  0.78897971337E+02 0.  0.
          5    1    3    3  501    0  0.35653138159E+02 -0.14577360382E+02 -0.60533697782E+02  0.71903158925E+02  0.47000000000E+01 0. -1.
        -11    1    3    3    0    0 -0.36378327068E+02  0.38130130907E+02 -0.10048533719E+03  0.11346626174E+03  0.00000000000E+00 0.  1.
         12    1    3    3    0    0  0.91590524169E+02  0.10710953851E+03 -0.35037772054E+03  0.37765834349E+03  0.00000000000E+00 0. -1.
         -5    1    4    4    0  502  0.65756731104E+01  0.29916180406E+02 -0.49650334901E+02  0.58527455803E+02  0.47000000000E+01 0.  1.
         13    1    5    5    0    0 -0.72601347745E+02 -0.15696488627E+03 -0.14970727813E+03  0.22873827914E+03  0.00000000000E+00 0. -1.
        -14    1    5    5    0    0 -0.24839660624E+02 -0.36136031676E+01 -0.18286286329E+01  0.25167652860E+02  0.00000000000E+00 0.  1.
<mgrwt>
<rscale>  2 0.23815503E+03</rscale>
<asrwt>0</asrwt>
<pdfrwt beam="1">  1       21 0.12529089E-01 0.23903706E+03</pdfrwt>
<pdfrwt beam="2">  1       21 0.12215724E+00 0.23903706E+03</pdfrwt>
<totfact> 0.26732448E+04</totfact>
</mgrwt>
</event>
<event>
11    1  0.1019868E-001  0.1969597E+03  0.7546771E-02  0.1155232E+00
         21   -1    0    0  503  502  0.00000000000E+00  0.00000000000E+00  0.88792061159E+02  0.88792061159E+02  0.00000000000E+00 0. -1.
         21   -1    0    0  501  503 -0.00000000000E+00 -0.00000000000E+00 -0.41639476504E+03  0.41639476504E+03  0.00000000000E+00 0.  1.
          6    2    1    2  501    0  0.59699787672E+02  0.21048353937E+02 -0.13459653845E+03  0.23855680858E+03  0.18651012012E+03 0.  0.
         -6    2    1    2    0  502 -0.59699787672E+02 -0.21048353937E+02 -0.19300616544E+03  0.26663001762E+03  0.17272257683E+03 0.  0.
        -24    2    4    4    0    0 -0.53895907643E+02 -0.75304776308E+02 -0.95032244196E+02  0.15438731792E+03  0.78922356166E+02 0.  0.
          5    1    3    3  501    0  0.28301961249E+02  0.39160283410E+02 -0.16750980018E+03  0.17440227052E+03  0.47000000000E+01 0. -1.
        -13    1    3    3    0    0  0.26265514833E+02 -0.34394692594E+00 -0.15231184177E+00  0.26268208310E+02  0.00000000000E+00 0.  1.
         14    1    3    3    0    0  0.51323115903E+01 -0.17767982547E+02  0.33065573575E+02  0.37886329749E+02  0.00000000000E+00 0. -1.
         -5    1    4    4    0  502 -0.58038800293E+01  0.54256422371E+02 -0.97973921242E+02  0.11224269970E+03  0.47000000000E+01 0.  1.
         13    1    5    5    0    0 -0.18205046521E+01 -0.31162642645E+02  0.66480661930E+01  0.31915847441E+02  0.00000000000E+00 0. -1.
        -14    1    5    5    0    0 -0.52075402991E+02 -0.44142133663E+02 -0.10168031039E+03  0.12247147048E+03  0.00000000000E+00 0.  1.
<mgrwt>
<rscale>  2 0.19362531E+03</rscale>
<asrwt>0</asrwt>
<pdfrwt beam="1">  1       21 0.13660317E-01 0.19695970E+03</pdfrwt>
<pdfrwt beam="2">  1       21 0.64060734E-01 0.19695970E+03</pdfrwt>
<totfact> 0.10438978E+05</totfact>
</mgrwt>
</event>
<event>
12    1  0.1019868E-001  0.1990403E+03  0.7546771E-02  0.1150750E+00
         21   -1    0    0  501  502  0.00000000000E+00  0.00000000000E+00  0.31211016791E+03  0.31211016791E+03  0.00000000000E+00 0. -1.
         21   -1    0    0  502  503 -0.00000000000E+00 -0.00000000000E+00 -0.32284343523E+03  0.32284343523E+03  0.00000000000E+00 0. -1.
         -6    2    1    2    0  503 -0.92726412630E+02  0.28228926104E+02 -0.25305909298E+03  0.32195645323E+03  0.17384473925E+03 0.  0.
        -24    2    3    3    0    0 -0.60792791792E+02  0.85633765796E+02 -0.15334515399E+03  0.20245736792E+03  0.80282901009E+02 0.  0.
          6    2    1    2  501    0  0.92726412630E+02 -0.28228926104E+02  0.24232582566E+03  0.31299714991E+03  0.17277253892E+03 0.  0.
         24    2    5    5    0    0  0.55700300460E+00 -0.42157546022E+02  0.64730798835E+02  0.11236990830E+03  0.81604846885E+02 0.  0.
          5    1    5    5  501    0  0.92169409625E+02  0.13928619918E+02  0.17759502683E+03  0.20062724161E+03  0.47000000000E+01 0. -1.
        -11    1    6    6    0    0  0.24277030783E+02  0.45976723648E+01 -0.49187238572E+01  0.25193385227E+02  0.00000000000E+00 0.  1.
         12    1    6    6    0    0 -0.23720027779E+02 -0.46755218386E+02  0.69649522692E+02  0.87176523075E+02  0.00000000000E+00 0. -1.
         -5    1    3    3    0  503 -0.31933620838E+02 -0.57404839693E+02 -0.99713938990E+02  0.11949908531E+03  0.47000000000E+01 0.  1.
         11    1    4    4    0    0 -0.75946536184E+02  0.51495717272E+02 -0.12729740829E+03  0.15692136697E+03  0.00000000000E+00 0. -1.
        -12    1    4    4    0    0  0.15153744392E+02  0.34138048524E+02 -0.26047745707E+02  0.45536000950E+02  0.00000000000E+00 0.  1.
<mgrwt>
<rscale>  2 0.19880597E+03</rscale>
<asrwt>0</asrwt>
<pdfrwt beam="1">  1       21 0.48016949E-01 0.19904033E+03</pdfrwt>
<pdfrwt beam="2">  1       21 0.49668221E-01 0.19904033E+03</pdfrwt>
<totfact> 0.15950027E+04</totfact>
</mgrwt>
</event>
<event>
12    1  0.1019868E-001  0.2746076E+03  0.7546771E-02  0.1098680E+00
         21   -1    0    0  501  502  0.00000000000E+00  0.00000000000E+00  0.39849567517E+02  0.39849567517E+02  0.00000000000E+00 0. -1.
         21   -1    0    0  502  503 -0.00000000000E+00 -0.00000000000E+00 -0.18932579915E+04  0.18932579915E+04  0.00000000000E+00 0. -1.
         -6    2    1    2    0  503  0.21315536145E+03 -0.19213297196E+01 -0.95254723832E+03  0.99132190666E+03  0.17301439757E+03 0.  0.
        -24    2    3    3    0    0  0.22128237298E+03  0.33707229986E+02 -0.82068004313E+03  0.85440408550E+03  0.79928356568E+02 0.  0.
          6    2    1    2  501    0 -0.21315536145E+03  0.19213297196E+01 -0.90086118566E+03  0.94178565235E+03  0.17311972601E+03 0.  0.
         24    2    5    5    0    0 -0.20209097779E+03  0.45568960832E+02 -0.81233821393E+03  0.84235757377E+03  0.82192547000E+02 0.  0.
          5    1    5    5  501    0 -0.11064383662E+02 -0.43647631112E+02 -0.88522971730E+02  0.99428078586E+02  0.47000000000E+01 0. -1.
        -11    1    6    6    0    0  0.65890147547E+01 -0.47505460136E+01 -0.34423568110E+02  0.35368981386E+02  0.00000000000E+00 0.  1.
         12    1    6    6    0    0 -0.20867999254E+03  0.50319506845E+02 -0.77791464582E+03  0.80698859238E+03  0.00000000000E+00 0. -1.
         -5    1    3    3    0  503 -0.81270115306E+01 -0.35628559705E+02 -0.13186719519E+03  0.13691782116E+03  0.47000000000E+01 0.  1.
         13    1    4    4    0    0  0.13947582316E+03  0.85092365376E+01 -0.36664210286E+03  0.39236761327E+03  0.00000000000E+00 0. -1.
        -14    1    4    4    0    0  0.81806549816E+02  0.25197993448E+02 -0.45403794027E+03  0.46203647223E+03  0.00000000000E+00 0.  1.
<mgrwt>
<rscale>  2 0.27459101E+03</rscale>
<asrwt>0</asrwt>
<pdfrwt beam="1">  1       21 0.61307028E-02 0.27460761E+03</pdfrwt>
<pdfrwt beam="2">  1       21 0.29127045E+00 0.27460761E+03</pdfrwt>
<totfact> 0.67505093E+03</totfact>
</mgrwt>
</event>
<event>
12    1  0.1019868E-001  0.1782063E+03  0.7546771E-02  0.1170588E+00
         21   -1    0    0  501  502  0.00000000000E+00  0.00000000000E+00  0.88101136860E+02  0.88101136860E+02  0.00000000000E+00 0.  1.
         21   -1    0    0  502  503 -0.00000000000E+00 -0.00000000000E+00 -0.46958699117E+03  0.46958699117E+03  0.00000000000E+00 0.  1.
         -6    2    1    2    0  503  0.79028399431E+01 -0.66186770065E+01 -0.33192932283E+03  0.37674201822E+03  0.17790787271E+03 0.  0.
        -24    2    3    3    0    0  0.57479390480E+00  0.28845372551E+02 -0.57385253267E+02  0.99780043926E+02  0.76358391601E+02 0.  0.
          6    2    1    2  501    0 -0.79028399431E+01  0.66186770065E+01 -0.49556531477E+02  0.18094610981E+03  0.17372214332E+03 0.  0.
         24    2    5    5    0    0 -0.63049343760E+02  0.29930106391E+02 -0.16497758231E+02  0.11239297632E+03  0.86538858798E+02 0.  0.
          5    1    5    5  501    0  0.55146503816E+02 -0.23311429385E+02 -0.33058773247E+02  0.68553133493E+02  0.47000000000E+01 0. -1.
        -13    1    6    6    0    0 -0.57244756639E+02  0.58527919093E+02 -0.97990432381E+01  0.82453021317E+02  0.00000000000E+00 0.  1.
         14    1    6    6    0    0 -0.58045871205E+01 -0.28597812702E+02 -0.66987149926E+01  0.29939955002E+02  0.00000000000E+00 0. -1.
         -5    1    3    3    0  503  0.73280460383E+01 -0.35464049557E+02 -0.27454406957E+03  0.27696197429E+03  0.47000000000E+01 0.  1.
         13    1    4    4    0    0  0.37473577565E+01  0.51609257218E+02 -0.19162844294E+02  0.55179459242E+02  0.00000000000E+00 0. -1.
        -14    1    4    4    0    0 -0.31725638517E+01 -0.22763884668E+02 -0.38222408972E+02  0.44600584684E+02  0.00000000000E+00 0.  1.
<mgrwt>
<rscale>  2 0.17715231E+03</rscale>
<asrwt>0</asrwt>
<pdfrwt beam="1">  1       21 0.13554021E-01 0.17820627E+03</pdfrwt>
<pdfrwt beam="2">  1       21 0.72244152E-01 0.17820627E+03</pdfrwt>
<totfact> 0.81960375E+04</totfact>
</mgrwt>
</event>
<event>
12    1  0.1019868E-001  0.2042961E+03  0.7546771E-02  0.1146291E+00
         21   -1    0    0  503  502  0.00000000000E+00  0.00000000000E+00  0.21760404495E+03  0.21760404495E+03  0.00000000000E+00 0.  1.
         21   -1    0    0  501  503 -0.00000000000E+00 -0.00000000000E+00 -0.24367411535E+03  0.24367411535E+03  0.00000000000E+00 0.  1.
          6    2    1    2  501    0  0.27748855080E+02  0.10285913336E+03 -0.12005331744E+03  0.23695925520E+03  0.17431835624E+03 0.  0.
         24    2    3    3    0    0 -0.30462385173E+02 -0.15419251877E+01 -0.55981829707E+02  0.10125599416E+03  0.78666871372E+02 0.  0.
         -6    2    1    2    0  502 -0.27748855080E+02 -0.10285913336E+03  0.93983247040E+02  0.22431890510E+03  0.17359758117E+03 0.  0.
        -24    2    5    5    0    0 -0.56394442380E+02 -0.22224620133E+02  0.18512680666E+01  0.98490108939E+02  0.77605460465E+02 0.  0.
          5    1    3    3  501    0  0.58211240254E+02  0.10440105854E+03 -0.64071487732E+02  0.13570326104E+03  0.47000000000E+01 0. -1.
        -13    1    4    4    0    0 -0.23274075472E+02  0.34507315578E+02 -0.48196689067E+02  0.63681694815E+02  0.00000000000E+00 0.  1.
         14    1    4    4    0    0 -0.71883097018E+01 -0.36049240766E+02 -0.77851406397E+01  0.37574299341E+02  0.00000000000E+00 0. -1.
         -5    1    5    5    0  502  0.28645587299E+02 -0.80634513224E+02  0.92131978973E+02  0.12582879616E+03  0.47000000000E+01 0.  1.
         11    1    6    6    0    0 -0.37971350111E+01 -0.96307976791E+01 -0.32708115281E+02  0.34307306852E+02  0.00000000000E+00 0. -1.
        -12    1    6    6    0    0 -0.52597307369E+02 -0.12593822453E+02  0.34559383347E+02  0.64182802087E+02  0.00000000000E+00 0.  1.
<mgrwt>
<rscale>  2 0.20414224E+03</rscale>
<asrwt>0</asrwt>
<pdfrwt beam="1">  1       21 0.33477545E-01 0.20429608E+03</pdfrwt>
<pdfrwt beam="2">  1       21 0.37488325E-01 0.20429608E+03</pdfrwt>
<totfact> 0.58653489E+04</totfact>
</mgrwt>
</event>
<event>
12    1  0.1019868E-001  0.2106367E+03  0.7546771E-02  0.1141083E+00
         21   -1    0    0  501  502  0.00000000000E+00  0.00000000000E+00  0.50084041647E+03  0.50084041647E+03  0.00000000000E+00 0.  1.
         21   -1    0    0  502  503 -0.00000000000E+00 -0.00000000000E+00 -0.13980681451E+03  0.13980681451E+03  0.00000000000E+00 0.  1.
         -6    2    1    2    0  503  0.30036664819E+02 -0.11633743572E+03 -0.13422384708E+02  0.21106388966E+03  0.17300637249E+03 0.  0.
        -24    2    3    3    0    0 -0.29919647203E+02 -0.13084678036E+02 -0.27591229721E+02  0.90736264029E+02  0.80033740162E+02 0.  0.
          6    2    1    2  501    0 -0.30036664819E+02  0.11633743572E+03  0.37445598667E+03  0.42958334132E+03  0.17288134949E+03 0.  0.
         24    2    5    5    0    0 -0.36735770608E+02  0.14655451632E+03  0.26277825607E+03  0.31360077586E+03  0.80407037386E+02 0.  0.
          5    1    5    5  501    0  0.66991057892E+01 -0.30217080598E+02  0.11167773060E+03  0.11598256546E+03  0.47000000000E+01 0. -1.
        -13    1    6    6    0    0  0.55607173679E+01  0.82047567133E+02  0.19217266215E+03  0.20902884233E+03  0.00000000000E+00 0.  1.
         14    1    6    6    0    0 -0.42296487976E+02  0.64506949185E+02  0.70605593917E+02  0.10457193352E+03  0.00000000000E+00 0. -1.
         -5    1    3    3    0  503  0.59956312022E+02 -0.10325275768E+03  0.14168845013E+02  0.12032762563E+03  0.47000000000E+01 0.  1.
         13    1    4    4    0    0 -0.29017302490E+02  0.83540455257E+01  0.21561605423E+02  0.37103864338E+02  0.00000000000E+00 0. -1.
        -14    1    4    4    0    0 -0.90234471301E+00 -0.21438723562E+02 -0.49152835144E+02  0.53632399691E+02  0.00000000000E+00 0.  1.
<mgrwt>
<rscale>  2 0.21061099E+03</rscale>
<asrwt>0</asrwt>
<pdfrwt beam="1">  1       21 0.77052371E-01 0.21063667E+03</pdfrwt>
<pdfrwt beam="2">  1       21 0.21508741E-01 0.21063667E+03</pdfrwt>
<totfact> 0.29847350E+04</totfact>
</mgrwt>
</event>
<event>
12    1  0.1019868E-001  0.1943094E+03  0.7546771E-02  0.1154752E+00
         21   -1    0    0  501  502  0.00000000000E+00  0.00000000000E+00  0.45924506234E+03  0.45924506234E+03  0.00000000000E+00 0.  1.
         21   -1    0    0  502  503 -0.00000000000E+00 -0.00000000000E+00 -0.13744434999E+03  0.13744434999E+03  0.00000000000E+00 0.  1.
         -6    2    1    2    0  503 -0.67286921966E+01  0.86050658594E+02 -0.28759922480E+02  0.19587912514E+03  0.17346903869E+03 0.  0.
        -24    2    3    3    0    0 -0.63351521803E+02  0.33214603796E+02 -0.48575574462E+02  0.11580076613E+03  0.77029901864E+02 0.  0.
          6    2    1    2  501    0  0.67286921966E+01 -0.86050658594E+02  0.35056063483E+03  0.40081028718E+03  0.17408657752E+03 0.  0.
         24    2    5    5    0    0  0.15377224135E+02 -0.11925832590E+03  0.23090871419E+03  0.27624617362E+03  0.92380229668E+02 0.  0.
          5    1    5    5  501    0 -0.86485319383E+01  0.33207667308E+02  0.11965192064E+03  0.12456411356E+03  0.47000000000E+01 0. -1.
        -13    1    6    6    0    0  0.14367492429E+02 -0.38235497671E+02  0.17010607903E+03  0.17494129371E+03  0.00000000000E+00 0.  1.
         14    1    6    6    0    0  0.10097317053E+01 -0.81022828231E+02  0.60802635163E+02  0.10130487992E+03  0.00000000000E+00 0. -1.
         -5    1    3    3    0  503  0.56622829607E+02  0.52836054798E+02  0.19815651983E+02  0.80078359017E+02  0.47000000000E+01 0.  1.
         11    1    4    4    0    0 -0.33566355821E+02 -0.46121626157E+01 -0.57590767056E+02  0.66818176697E+02  0.00000000000E+00 0. -1.
        -12    1    4    4    0    0 -0.29785165983E+02  0.37826766411E+02  0.90151925938E+01  0.48982589430E+02  0.00000000000E+00 0.  1.
<mgrwt>
<rscale>  2 0.19417094E+03</rscale>
<asrwt>0</asrwt>
<pdfrwt beam="1">  1       21 0.70653086E-01 0.19430936E+03</pdfrwt>
<pdfrwt beam="2">  1       21 0.21145285E-01 0.19430936E+03</pdfrwt>
<totfact> 0.37722482E+04</totfact>
</mgrwt>
</event>
<event>
12    1  0.1019868E-001  0.1976492E+03  0.7546771E-02  0.1152093E+00
         21   -1    0    0  501  502  0.00000000000E+00  0.00000000000E+00  0.15323725676E+04  0.15323725676E+04  0.00000000000E+00 0.  1.
         21   -1    0    0  502  503 -0.00000000000E+00 -0.00000000000E+00 -0.26148077410E+02  0.26148077410E+02  0.00000000000E+00 0.  1.
         -6    2    1    2    0  503 -0.90862156400E+02  0.23145166514E+02  0.61422369231E+03  0.64524100041E+03  0.17399302921E+03 0.  0.
        -24    2    3    3    0    0  0.97475848642E+00  0.47800662757E+02  0.21733265438E+03  0.23709090741E+03  0.81809303867E+02 0.  0.
          6    2    1    2  501    0  0.90862156400E+02 -0.23145166514E+02  0.89200079785E+03  0.91327964457E+03  0.17211233433E+03 0.  0.
         24    2    5    5    0    0  0.40290727984E+02  0.54817745354E+02  0.43960121949E+03  0.45141044935E+03  0.76771307364E+02 0.  0.
          5    1    5    5  501    0  0.50571428416E+02 -0.77962911869E+02  0.45239957836E+03  0.46186919522E+03  0.47000000000E+01 0. -1.
        -11    1    6    6    0    0  0.51424063267E+02  0.67827007937E+01  0.18806552946E+03  0.19508737193E+03  0.00000000000E+00 0.  1.
         12    1    6    6    0    0 -0.11133335283E+02  0.48035044561E+02  0.25153569003E+03  0.25632307742E+03  0.00000000000E+00 0. -1.
         -5    1    3    3    0  503 -0.91836914886E+02 -0.24655496243E+02  0.39689103793E+03  0.40815009300E+03  0.47000000000E+01 0.  1.
         13    1    4    4    0    0  0.12943481196E+02  0.45856369655E+02  0.21963897695E+03  0.22474790442E+03  0.00000000000E+00 0. -1.
        -14    1    4    4    0    0 -0.11968722710E+02  0.19442931024E+01 -0.23063225695E+01  0.12343002988E+02  0.00000000000E+00 0.  1.
<mgrwt>
<rscale>  2 0.19723450E+03</rscale>
<asrwt>0</asrwt>
<pdfrwt beam="1">  1       21 0.23574956E+00 0.19764920E+03</pdfrwt>
<pdfrwt beam="2">  1       21 0.40227823E-02 0.19764920E+03</pdfrwt>
<totfact> 0.31225525E+04</totfact>
</mgrwt>
</event>
<event>
12    1  0.1019868E-001  0.1765675E+03  0.7546771E-02  0.1171447E+00
         21   -1    0    0  501  502  0.00000000000E+00  0.00000000000E+00  0.48838285243E+03  0.48838285243E+03  0.00000000000E+00 0.  1.
         21   -1    0    0  502  503 -0.00000000000E+00 -0.00000000000E+00 -0.65746945898E+02  0.65746945898E+02  0.00000000000E+00 0. -1.
         -6    2    1    2    0  503 -0.32940783808E+02 -0.13477301115E+02  0.15994429897E+03  0.23823991789E+03  0.17294318956E+03 0.  0.
        -24    2    3    3    0    0  0.13506932636E+02 -0.62023924705E+02  0.12458441780E+03  0.16217036931E+03  0.82149540816E+02 0.  0.
          6    2    1    2  501    0  0.32940783808E+02  0.13477301115E+02  0.26269160756E+03  0.31588988044E+03  0.17179290731E+03 0.  0.
         24    2    5    5    0    0 -0.92209481540E+01 -0.44860207154E+02  0.10067850249E+03  0.13854498278E+03  0.83433130826E+02 0.  0.
          5    1    5    5  501    0  0.42161731962E+02  0.58337508269E+02  0.16201310507E+03  0.17734489766E+03  0.47000000000E+01 0. -1.
        -13    1    6    6    0    0 -0.40195388943E+01 -0.51883133657E+02  0.11243637915E+03  0.12389493778E+03  0.00000000000E+00 0.  1.
         14    1    6    6    0    0 -0.52014092597E+01  0.70229265032E+01 -0.11757876661E+02  0.14650045001E+02  0.00000000000E+00 0. -1.
         -5    1    3    3    0  503 -0.46447716444E+02  0.48546623590E+02  0.35359881172E+02  0.76069548581E+02  0.47000000000E+01 0.  1.
         11    1    4    4    0    0 -0.31115193095E+02 -0.36947561624E+02  0.83792930914E+02  0.96718833856E+02  0.00000000000E+00 0. -1.
        -12    1    4    4    0    0  0.44622125731E+02 -0.25076363081E+02  0.40791486888E+02  0.65451535449E+02  0.00000000000E+00 0.  1.
<mgrwt>
<rscale>  2 0.17628519E+03</rscale>
<asrwt>0</asrwt>
<pdfrwt beam="1">  1       21 0.75135821E-01 0.17656749E+03</pdfrwt>
<pdfrwt beam="2">  1       21 0.10114915E-01 0.17656749E+03</pdfrwt>
<totfact> 0.12666277E+05</totfact>
</mgrwt>
</event>
<event>
12    1  0.1019868E-001  0.1817901E+03  0.7546771E-02  0.1166782E+00
         21   -1    0    0  501  502  0.00000000000E+00  0.00000000000E+00  0.67077936083E+03  0.67077936083E+03  0.00000000000E+00 0.  1.
         21   -1    0    0  502  503 -0.00000000000E+00 -0.00000000000E+00 -0.80527840126E+02  0.80527840126E+02  0.00000000000E+00 0.  1.
         -6    2    1    2    0  503 -0.54932644393E+02 -0.87739742264E+01  0.53352167144E+03  0.56364261785E+03  0.17306949098E+03 0.  0.
        -24    2    3    3    0    0  0.11809388439E+02  0.30280045081E+02  0.40095563348E+03  0.41009926959E+03  0.79747401955E+02 0.  0.
          6    2    1    2  501    0  0.54932644393E+02  0.87739742264E+01  0.56729849259E+02  0.18766458311E+03  0.17001512260E+03 0.  0.
         24    2    5    5    0    0  0.97281589451E+02 -0.18484798161E+02  0.53324967319E+02  0.13696786684E+03  0.78174477914E+02 0.  0.
          5    1    5    5  501    0 -0.42348945058E+02  0.27258772387E+02  0.34048819395E+01  0.50696716271E+02  0.47000000000E+01 0. -1.
        -13    1    6    6    0    0  0.22668683586E+02  0.30038387171E-01 -0.20368664919E+02  0.30475443039E+02  0.00000000000E+00 0.  1.
         14    1    6    6    0    0  0.74612905865E+02 -0.18514836548E+02  0.73693632238E+02  0.10649242380E+03  0.00000000000E+00 0. -1.
         -5    1    3    3    0  503 -0.66742032833E+02 -0.39054019307E+02  0.13256603797E+03  0.15354334825E+03  0.47000000000E+01 0.  1.
         13    1    4    4    0    0 -0.19333244323E+02 -0.64537201969E+01  0.31505612308E+02  0.37523705138E+02  0.00000000000E+00 0. -1.
        -14    1    4    4    0    0  0.31142632762E+02  0.36733765278E+02  0.36945002117E+03  0.37257556446E+03  0.00000000000E+00 0.  1.
<mgrwt>
<rscale>  2 0.18105932E+03</rscale>
<asrwt>0</asrwt>
<pdfrwt beam="1">  1       21 0.10319682E+00 0.18179006E+03</pdfrwt>
<pdfrwt beam="2">  1       21 0.12388899E-01 0.18179006E+03</pdfrwt>
<totfact> 0.42450143E+04</totfact>
</mgrwt>
</event>
<event>
12    1  0.1019868E-001  0.1801444E+03  0.7546771E-02  0.1167804E+00
         21   -1    0    0  503  502  0.00000000000E+00  0.00000000000E+00  0.13992871106E+04  0.13992871106E+04  0.00000000000E+00 0. -1.
         21   -1    0    0  501  503 -0.00000000000E+00 -0.00000000000E+00 -0.71530214408E+02  0.71530214408E+02  0.00000000000E+00 0. -1.
          6    2    1    2  501    0 -0.48502594473E+02  0.83374451962E+01  0.59210672021E+02  0.18962566901E+03  0.17329159242E+03 0.  0.
         24    2    3    3    0    0 -0.71695189587E+02  0.16237876390E+02 -0.17071449707E+02  0.10936755181E+03  0.79157805388E+02 0.  0.
         -6    2    1    2    0  502  0.48502594473E+02 -0.83374451962E+01  0.12685462242E+04  0.12811916560E+04  0.17268619482E+03 0.  0.
        -24    2    5    5    0    0  0.59280021630E+02 -0.50564946499E+02  0.56486402162E+03  0.57614552489E+03  0.82470407746E+02 0.  0.
          5    1    3    3  501    0  0.23192595114E+02 -0.79004311941E+01  0.76282121727E+02  0.80258117199E+02  0.47000000000E+01 0. -1.
        -13    1    4    4    0    0 -0.45450915208E+02 -0.30241227085E+02 -0.68398661128E+01  0.55019099205E+02  0.00000000000E+00 0.  1.
         14    1    4    4    0    0 -0.26244274379E+02  0.46479103476E+02 -0.10231583594E+02  0.54348452604E+02  0.00000000000E+00 0. -1.
         -5    1    5    5    0  502 -0.10777427157E+02  0.42227501303E+02  0.70368220255E+03  0.70504613110E+03  0.47000000000E+01 0.  1.
         13    1    6    6    0    0  0.22457987195E+02 -0.35588054661E+02  0.48610746346E+03  0.48792554437E+03  0.00000000000E+00 0. -1.
        -14    1    6    6    0    0  0.36822034436E+02 -0.14976891838E+02  0.78756558163E+02  0.88219980519E+02  0.00000000000E+00 0.  1.
<mgrwt>
<rscale>  2 0.17999861E+03</rscale>
<asrwt>0</asrwt>
<pdfrwt beam="1">  1       21 0.21527492E+00 0.18014436E+03</pdfrwt>
<pdfrwt beam="2">  1       21 0.11004649E-01 0.18014436E+03</pdfrwt>
<totfact> 0.74535597E+03</totfact>
</mgrwt>
</event>
<event>
12    1  0.1019868E-001  0.1969857E+03  0.7546771E-02  0.1152420E+00
         21   -1    0    0  501  502  0.00000000000E+00  0.00000000000E+00  0.90625781215E+02  0.90625781215E+02  0.00000000000E+00 0.  1.
         21   -1    0    0  502  503 -0.00000000000E+00 -0.00000000000E+00 -0.44833475267E+03  0.44833475267E+03  0.00000000000E+00 0.  1.
         -6    2    1    2    0  503 -0.34755858213E+02  0.86985746136E+02 -0.23781432552E+03  0.30880255274E+03  0.17328841117E+03 0.  0.
        -24    2    3    3    0    0  0.44637779971E+02  0.27497144725E+02 -0.10155809793E+03  0.14019029625E+03  0.81182803218E+02 0.  0.
          6    2    1    2  501    0  0.34755858213E+02 -0.86985746136E+02 -0.11989464593E+03  0.23015798114E+03  0.17269476092E+03 0.  0.
         24    2    5    5    0    0  0.46460670283E+01 -0.69370520988E+01 -0.12019416838E+03  0.14450418580E+03  0.79781658120E+02 0.  0.
          5    1    5    5  501    0  0.30109791185E+02 -0.80048694038E+02  0.29952244384E+00  0.85653795339E+02  0.47000000000E+01 0. -1.
        -11    1    6    6    0    0  0.28353234528E+02 -0.19147746575E+02 -0.17548689010E+02  0.38451249564E+02  0.00000000000E+00 0.  1.
         12    1    6    6    0    0 -0.23707167499E+02  0.12210694477E+02 -0.10264547937E+03  0.10605293624E+03  0.00000000000E+00 0. -1.
         -5    1    3    3    0  503 -0.79393638184E+02  0.59488601411E+02 -0.13625622760E+03  0.16861225650E+03  0.47000000000E+01 0.  1.
         11    1    4    4    0    0  0.35530109218E+02  0.55897105845E+02 -0.76908852975E+02  0.10149801362E+03  0.00000000000E+00 0. -1.
        -12    1    4    4    0    0  0.91076707531E+01 -0.28399961120E+02 -0.24649244952E+02  0.38692282627E+02  0.00000000000E+00 0.  1.
<mgrwt>
<rscale>  2 0.19685505E+03</rscale>
<asrwt>0</asrwt>
<pdfrwt beam="1">  1       21 0.13942428E-01 0.19698569E+03</pdfrwt>
<pdfrwt beam="2">  1       21 0.68974577E-01 0.19698569E+03</pdfrwt>
<totfact> 0.85588497E+04</totfact>
</mgrwt>
</event>
<event>
12    1  0.1019868E-001  0.2697901E+03  0.7546771E-02  0.1101406E+00
         21   -1    0    0  503  502  0.00000000000E+00  0.00000000000E+00  0.96912933209E+03  0.96912933209E+03  0.00000000000E+00 0.  1.
         21   -1    0    0  501  503 -0.00000000000E+00 -0.00000000000E+00 -0.13421940461E+04  0.13421940461E+04  0.00000000000E+00 0.  1.
          6    2    1    2  501    0  0.15562503879E+03  0.13462823572E+03 -0.13093991325E+04  0.13368959379E+04  0.17441544102E+03 0.  0.
         24    2    3    3    0    0  0.17056072332E+03  0.80125612380E+02 -0.86561319624E+03  0.88950163995E+03  0.80099237680E+02 0.  0.
         -6    2    1    2    0  502 -0.15562503879E+03 -0.13462823572E+03  0.93633441847E+03  0.97442744029E+03  0.17447859080E+03 0.  0.
        -24    2    5    5    0    0 -0.10193190226E+03 -0.13976174911E+03  0.50378981483E+03  0.53850745910E+03  0.79136886274E+02 0.  0.
          5    1    3    3  501    0 -0.14935684537E+02  0.54502623340E+02 -0.44378593623E+03  0.44739429793E+03  0.47000000000E+01 0. -1.
        -11    1    4    4    0    0  0.11127873804E+03  0.29466524302E+02 -0.65236165050E+03  0.66244015325E+03  0.00000000000E+00 0.  1.
         12    1    4    4    0    0  0.59281985283E+02  0.50659088078E+02 -0.21325154573E+03  0.22706148670E+03  0.00000000000E+00 0. -1.
         -5    1    5    5    0  502 -0.53693136524E+02  0.51335133864E+01  0.43254460364E+03  0.43591998120E+03  0.47000000000E+01 0.  1.
         13    1    6    6    0    0 -0.62833638359E+02 -0.11117060355E+03  0.25662779691E+03  0.28664402201E+03  0.00000000000E+00 0. -1.
        -14    1    6    6    0    0 -0.39098263902E+02 -0.28591145554E+02  0.24716201792E+03  0.25186343709E+03  0.00000000000E+00 0.  1.
<mgrwt>
<rscale>  2 0.26977988E+03</rscale>
<asrwt>0</asrwt>
<pdfrwt beam="1">  1       21 0.14909682E+00 0.26979009E+03</pdfrwt>
<pdfrwt beam="2">  1       21 0.20649139E+00 0.26979009E+03</pdfrwt>
<totfact> 0.33328836E+01</totfact>
</mgrwt>
</event>
<event>
12    1  0.1019868E-001  0.1864997E+03  0.7546771E-02  0.1162894E+00
         21   -1    0    0  501  502  0.00000000000E+00  0.00000000000E+00  0.29164170518E+03  0.29164170518E+03  0.00000000000E+00 0. -1.
         21   -1    0    0  502  503 -0.00000000000E+00 -0.00000000000E+00 -0.17070085756E+03  0.17070085756E+03  0.00000000000E+00 0. -1.
         -6    2    1    2    0  503 -0.53699073050E+02  0.31490814076E+02  0.19201292096E+03  0.26767723544E+03  0.17580352310E+03 0.  0.
        -24    2    3    3    0    0 -0.58173247220E+02  0.67945647224E+02  0.19660790759E+03  0.23036534730E+03  0.80079874135E+02 0.  0.
          6    2    1    2  501    0  0.53699073050E+02 -0.31490814076E+02 -0.71072073347E+02  0.19466532731E+03  0.17020014168E+03 0.  0.
         24    2    5    5    0    0 -0.16273811620E+01 -0.38670899327E+02  0.14600072852E+02  0.92320924459E+02  0.82534260410E+02 0.  0.
          5    1    5    5  501    0  0.55326454212E+02  0.71800852508E+01 -0.85672146198E+02  0.10234440285E+03  0.47000000000E+01 0. -1.
        -11    1    6    6    0    0  0.10122068771E+01  0.39611537012E+01  0.41592660961E+02  0.41793118419E+02  0.00000000000E+00 0.  1.
         12    1    6    6    0    0 -0.26395880390E+01 -0.42632053028E+02 -0.26992588109E+02  0.50527806040E+02  0.00000000000E+00 0. -1.
         -5    1    3    3    0  503  0.44741741704E+01 -0.36454833148E+02 -0.45949866215E+01  0.37311888138E+02  0.47000000000E+01 0.  1.
         11    1    4    4    0    0  0.18287914044E+02  0.26388956139E+02  0.66375238319E+02  0.73732605190E+02  0.00000000000E+00 0. -1.
        -12    1    4    4    0    0 -0.76461161264E+02  0.41556691085E+02  0.13023266927E+03  0.15663274211E+03  0.00000000000E+00 0.  1.
<mgrwt>
<rscale>  2 0.18516741E+03</rscale>
<asrwt>0</asrwt>
<pdfrwt beam="1">  1       21 0.44867955E-01 0.18649971E+03</pdfrwt>
<pdfrwt beam="2">  1       21 0.26261670E-01 0.18649971E+03</pdfrwt>
<totfact> 0.65890067E+04</totfact>
</mgrwt>
</event>
<event>
12    1  0.1019868E-001  0.3128552E+03  0.7546771E-02  0.1080538E+00
         21   -1    0    0  501  502  0.00000000000E+00  0.00000000000E+00  0.86147733719E+02  0.86147733719E+02  0.00000000000E+00 0.  1.
         21   -1    0    0  502  503 -0.00000000000E+00 -0.00000000000E+00 -0.14083550166E+04  0.14083550166E+04  0.00000000000E+00 0. -1.
         -6    2    1    2    0  503 -0.12894938067E+02 -0.24559730210E+03 -0.10269795200E+04  0.10735759354E+04  0.19337538703E+03 0.  0.
        -24    2    3    3    0    0  0.75887783997E+01 -0.23614287866E+02 -0.38027159326E+03  0.38950775622E+03  0.80588977898E+02 0.  0.
          6    2    1    2  501    0  0.12894938067E+02  0.24559730210E+03 -0.29522776293E+03  0.42092681498E+03  0.17185935337E+03 0.  0.
         24    2    5    5    0    0 -0.18658736064E+02  0.25225958291E+03 -0.24136193934E+03  0.35796939057E+03  0.76833932773E+02 0.  0.
          5    1    5    5  501    0  0.31553674130E+02 -0.66622808135E+01 -0.53865823588E+02  0.62957424404E+02  0.47000000000E+01 0. -1.
        -13    1    6    6    0    0 -0.43362678449E+02  0.20982761787E+03 -0.18365019289E+03  0.28219735018E+03  0.00000000000E+00 0.  1.
         14    1    6    6    0    0  0.24703942385E+02  0.42431965043E+02 -0.57711746451E+02  0.75772040392E+02  0.00000000000E+00 0. -1.
         -5    1    3    3    0  503 -0.20483716467E+02 -0.22198301423E+03 -0.64670792670E+03  0.68406817914E+03  0.47000000000E+01 0.  1.
         13    1    4    4    0    0 -0.32786536448E+02 -0.27028183075E+02 -0.16033395159E+03  0.16586879057E+03  0.00000000000E+00 0. -1.
        -14    1    4    4    0    0  0.40375314848E+02  0.34138952093E+01 -0.21993764168E+03  0.22363896565E+03  0.00000000000E+00 0.  1.
<mgrwt>
<rscale>  2 0.30959921E+03</rscale>
<asrwt>0</asrwt>
<pdfrwt beam="1">  1       21 0.13253499E-01 0.31285517E+03</pdfrwt>
<pdfrwt beam="2">  1       21 0.21666997E+00 0.31285517E+03</pdfrwt>
<totfact> 0.47258157E+03</totfact>
</mgrwt>
</event>
<event>
12    1  0.1019868E-001  0.2116156E+03  0.7546771E-02  0.1141687E+00
         21   -1    0    0  501  502  0.00000000000E+00  0.00000000000E+00  0.33962143915E+03  0.33962143915E+03  0.00000000000E+00 0.  1.
         21   -1    0    0  502  503 -0.00000000000E+00 -0.00000000000E+00 -0.13964639847E+03  0.13964639847E+03  0.00000000000E+00 0.  1.
         -6    2    1    2    0  503 -0.41771855307E+02  0.10055190010E+03  0.17206587226E+03  0.27274135646E+03  0.18145415568E+03 0.  0.
        -24    2    3    3    0    0  0.11743289428E+02  0.20269354908E+01  0.12832812698E+03  0.15230000255E+03  0.81149056004E+02 0.  0.
          6    2    1    2  501    0  0.41771855307E+02 -0.10055190010E+03  0.27909168418E+02  0.20652648116E+03  0.17325903506E+03 0.  0.
         24    2    5    5    0    0  0.40551184116E+02  0.80376481593E+01 -0.13127154296E+02  0.90340209121E+02  0.79246633260E+02 0.  0.
          5    1    5    5  501    0  0.12206711908E+01 -0.10858954826E+03  0.41036322713E+02  0.11618627204E+03  0.47000000000E+01 0. -1.
        -13    1    6    6    0    0  0.41161231966E+02 -0.25971031821E+02 -0.24482612457E+02  0.54480637143E+02  0.00000000000E+00 0.  1.
         14    1    6    6    0    0 -0.61004784943E+00  0.34008679980E+02  0.11355458162E+02  0.35859571978E+02  0.00000000000E+00 0. -1.
         -5    1    3    3    0  503 -0.53515144735E+02  0.98524964610E+02  0.43737745288E+02  0.12044135390E+03  0.47000000000E+01 0.  1.
         11    1    4    4    0    0  0.43169318723E+02  0.17812398639E+02  0.77753308324E+02  0.90699771662E+02  0.00000000000E+00 0. -1.
        -12    1    4    4    0    0 -0.31426029295E+02 -0.15785463148E+02  0.50574818652E+02  0.61600230891E+02  0.00000000000E+00 0.  1.
<mgrwt>
<rscale>  2 0.20984771E+03</rscale>
<asrwt>0</asrwt>
<pdfrwt beam="1">  1       21 0.52249452E-01 0.21161565E+03</pdfrwt>
<pdfrwt beam="2">  1       21 0.21484061E-01 0.21161565E+03</pdfrwt>
<totfact> 0.69561013E+04</totfact>
</mgrwt>
</event>
<event>
12    1  0.1019868E-001  0.1821851E+03  0.7546771E-02  0.1167628E+00
         21   -1    0    0  501  502  0.00000000000E+00  0.00000000000E+00  0.10452427907E+03  0.10452427907E+03  0.00000000000E+00 0.  1.
         21   -1    0    0  502  503 -0.00000000000E+00 -0.00000000000E+00 -0.30399198615E+03  0.30399198615E+03  0.00000000000E+00 0.  1.
         -6    2    1    2    0  503  0.52819695995E+02  0.95198039731E+01 -0.99890525916E+02  0.20089392599E+03  0.16583035120E+03 0.  0.
        -24    2    3    3    0    0 -0.20804159779E+02  0.26608346765E+02 -0.88561908513E+02  0.12432423221E+03  0.80451761276E+02 0.  0.
          6    2    1    2  501    0 -0.52819695995E+02 -0.95198039731E+01 -0.99577181166E+02  0.20762233923E+03  0.17410018319E+03 0.  0.
         24    2    5    5    0    0 -0.32484807073E+02  0.61808310372E+02 -0.69841778282E+02  0.12757552925E+03  0.80759592295E+02 0.  0.
          5    1    5    5  501    0 -0.20334888922E+02 -0.71328114345E+02 -0.29735402884E+02  0.80046809982E+02  0.47000000000E+01 0. -1.
        -11    1    6    6    0    0 -0.25428577498E+02 -0.14459524360E+02 -0.12102941858E+02  0.31657093991E+02  0.00000000000E+00 0.  1.
         12    1    6    6    0    0 -0.70562295742E+01  0.76267834732E+02 -0.57738836424E+02  0.95918435257E+02  0.00000000000E+00 0. -1.
         -5    1    3    3    0  503  0.73623855774E+02 -0.17088542791E+02 -0.11328617403E+02  0.76569693783E+02  0.47000000000E+01 0.  1.
         13    1    4    4    0    0 -0.29998204124E+02 -0.58833301681E+01 -0.11215341033E+01  0.30590254384E+02  0.00000000000E+00 0. -1.
        -14    1    4    4    0    0  0.91940443456E+01  0.32491676933E+02 -0.87440374410E+02  0.93733977822E+02  0.00000000000E+00 0.  1.
<mgrwt>
<rscale>  2 0.18018084E+03</rscale>
<asrwt>0</asrwt>
<pdfrwt beam="1">  1       21 0.16080658E-01 0.18218513E+03</pdfrwt>
<pdfrwt beam="2">  1       21 0.46767998E-01 0.18218513E+03</pdfrwt>
<totfact> 0.15173489E+05</totfact>
</mgrwt>
</event>
<event>
11    1  0.1019868E-001  0.2143085E+03  0.7546771E-02  0.1139465E+00
         21   -1    0    0  503  502  0.00000000000E+00  0.00000000000E+00  0.14200551194E+04  0.14200551194E+04  0.00000000000E+00 0. -1.
         21   -1    0    0  501  503 -0.00000000000E+00 -0.00000000000E+00 -0.34167269498E+02  0.34167269498E+02  0.00000000000E+00 0. -1.
          6    2    1    2  501    0 -0.11965807786E+03  0.31314276136E+02  0.49483488184E+03  0.53924921182E+03  0.17501289288E+03 0.  0.
         -6    2    1    2    0  502  0.11965807786E+03 -0.31314276136E+02  0.89105296809E+03  0.91497317711E+03  0.16703856859E+03 0.  0.
        -24    2    4    4    0    0  0.18727329650E+02  0.27257373415E+02  0.46515612330E+03  0.47335358235E+03  0.81238646008E+02 0.  0.
          5    1    3    3  501    0 -0.58908588843E+02  0.83134426508E+01  0.80335826262E+02  0.10007632162E+03  0.47000000000E+01 0. -1.
        -13    1    3    3    0    0 -0.55811420891E+02  0.62575923160E+02  0.15140013806E+03  0.17306837570E+03  0.00000000000E+00 0.  1.
         14    1    3    3    0    0 -0.49380681235E+01 -0.39575089675E+02  0.26309891752E+03  0.26610451450E+03  0.00000000000E+00 0. -1.
         -5    1    4    4    0  502  0.10093074821E+03 -0.58571649551E+02  0.42589684479E+03  0.44161959475E+03  0.47000000000E+01 0.  1.
         11    1    5    5    0    0 -0.14344121516E+02  0.39697759454E+01  0.36548545288E+03  0.36578836670E+03  0.00000000000E+00 0. -1.
        -12    1    5    5    0    0  0.33071451166E+02  0.23287597470E+02  0.99670670414E+02  0.10756521565E+03  0.00000000000E+00 0.  1.
<mgrwt>
<rscale>  2 0.21267466E+03</rscale>
<asrwt>0</asrwt>
<pdfrwt beam="1">  1       21 0.21846997E+00 0.21430854E+03</pdfrwt>
<pdfrwt beam="2">  1       21 0.52565041E-02 0.21430854E+03</pdfrwt>
<totfact> 0.24989699E+04</totfact>
</mgrwt>
</event>
<event>
12    1  0.1019868E-001  0.1847281E+03  0.7546771E-02  0.1163418E+00
         21   -1    0    0  501  502  0.00000000000E+00  0.00000000000E+00  0.30336474491E+02  0.30336474491E+02  0.00000000000E+00 0. -1.
         21   -1    0    0  502  503 -0.00000000000E+00 -0.00000000000E+00 -0.11620813369E+04  0.11620813369E+04  0.00000000000E+00 0. -1.
         -6    2    1    2    0  503 -0.27325076243E+01  0.64904018607E+02 -0.67601034212E+03  0.70066744701E+03  0.17240907869E+03 0.  0.
        -24    2    3    3    0    0  0.55049855658E+02  0.73977949827E+02 -0.51412276547E+03  0.52847332629E+03  0.80365508543E+02 0.  0.
          6    2    1    2  501    0  0.27325076243E+01 -0.64904018607E+02 -0.45573452034E+03  0.49175036443E+03  0.17292908854E+03 0.  0.
         24    2    5    5    0    0 -0.56646626008E+02 -0.76531988725E+01 -0.29206609567E+03  0.30841193118E+03  0.80919116210E+02 0.  0.
          5    1    5    5  501    0  0.59379133632E+02 -0.57250819735E+02 -0.16366842467E+03  0.18333843325E+03  0.47000000000E+01 0. -1.
        -11    1    6    6    0    0 -0.21337596683E+02 -0.25954786377E+01 -0.25862919268E+03  0.25952088326E+03  0.00000000000E+00 0.  1.
         12    1    6    6    0    0 -0.35309029325E+02 -0.50577202348E+01 -0.33436902985E+02  0.48891047924E+02  0.00000000000E+00 0. -1.
         -5    1    3    3    0  503 -0.57782363282E+02 -0.90739312196E+01 -0.16188757665E+03  0.17219412072E+03  0.47000000000E+01 0.  1.
         13    1    4    4    0    0  0.41018845945E+02  0.91212943957E+02 -0.42792351378E+03  0.43945520877E+03  0.00000000000E+00 0. -1.
        -14    1    4    4    0    0  0.14031009713E+02 -0.17234994130E+02 -0.86199251689E+02  0.89018117527E+02  0.00000000000E+00 0.  1.
<mgrwt>
<rscale>  2 0.18460630E+03</rscale>
<asrwt>0</asrwt>
<pdfrwt beam="1">  1       21 0.46671503E-02 0.18472809E+03</pdfrwt>
<pdfrwt beam="2">  1       21 0.17878173E+00 0.18472809E+03</pdfrwt>
<totfact> 0.56325674E+04</totfact>
</mgrwt>
</event>
<event>
12    1  0.1019868E-001  0.3529228E+03  0.7546771E-02  0.1061547E+00
         21   -1    0    0  501  502  0.00000000000E+00  0.00000000000E+00  0.13128902612E+03  0.13128902612E+03  0.00000000000E+00 0. -1.
         21   -1    0    0  502  503 -0.00000000000E+00 -0.00000000000E+00 -0.13984691378E+04  0.13984691378E+04  0.00000000000E+00 0.  1.
         -6    2    1    2    0  503 -0.21682107429E+03 -0.21634405574E+03 -0.10696959694E+04  0.11264119844E+04  0.17532359465E+03 0.  0.
        -24    2    3    3    0    0 -0.15528085146E+03 -0.18789928832E+03 -0.98750202602E+03  0.10197619110E+04  0.73046686112E+02 0.  0.
          6    2    1    2  501    0  0.21682107429E+03  0.21634405574E+03 -0.19748414224E+03  0.40334617952E+03  0.17283525504E+03 0.  0.
         24    2    5    5    0    0  0.93038208112E+02  0.18406148243E+03 -0.14649821208E+03  0.26555642093E+03  0.80769728675E+02 0.  0.
          5    1    5    5  501    0  0.12378286618E+03  0.32282573314E+02 -0.50985930163E+02  0.13778975860E+03  0.47000000000E+01 0. -1.
        -11    1    6    6    0    0  0.72034491259E+02  0.78988239186E+02 -0.10728793302E+03  0.15145563850E+03  0.00000000000E+00 0.  1.
         12    1    6    6    0    0  0.21003716853E+02  0.10507324324E+03 -0.39210279058E+02  0.11410078243E+03  0.00000000000E+00 0. -1.
         -5    1    3    3    0  503 -0.61540222835E+02 -0.28444767415E+02 -0.82193943417E+02  0.10665007339E+03  0.47000000000E+01 0.  1.
         13    1    4    4    0    0 -0.70405952393E+01 -0.20352801240E+02 -0.19827144590E+03  0.19943764128E+03  0.00000000000E+00 0. -1.
        -14    1    4    4    0    0 -0.14824025622E+03 -0.16754648708E+03 -0.78923058012E+03  0.82032426972E+03  0.00000000000E+00 0.  1.
<mgrwt>
<rscale>  2 0.35261500E+03</rscale>
<asrwt>0</asrwt>
<pdfrwt beam="1">  1       21 0.20198312E-01 0.35292278E+03</pdfrwt>
<pdfrwt beam="2">  1       21 0.21514909E+00 0.35292278E+03</pdfrwt>
<totfact> 0.21582746E+03</totfact>
</mgrwt>
</event>
<event>
12    1  0.1019868E-001  0.2581737E+03  0.7546771E-02  0.1108857E+00
         21   -1    0    0  503  502  0.00000000000E+00  0.00000000000E+00  0.61067273409E+03  0.61067273409E+03  0.00000000000E+00 0.  1.
         21   -1    0    0  501  503 -0.00000000000E+00 -0.00000000000E+00 -0.14081477592E+03  0.14081477592E+03  0.00000000000E+00 0. -1.
          6    2    1    2  501    0  0.18674068635E+03 -0.43698879472E+02  0.50672174011E+02  0.25917622553E+03  0.16680219020E+03 0.  0.
         24    2    3    3    0    0  0.13387060590E+03 -0.97262465247E+02  0.20012853851E+02  0.17777360247E+03  0.61819197238E+02 0.  0.
         -6    2    1    2    0  502 -0.18674068635E+03  0.43698879472E+02  0.41918578417E+03  0.49231128448E+03  0.17283519078E+03 0.  0.
        -24    2    5    5    0    0 -0.18504853881E+03  0.83238142143E+02  0.34425193110E+03  0.40743850327E+03  0.79531074753E+02 0.  0.
          5    1    3    3  501    0  0.52870080450E+02  0.53563585776E+02  0.30659320160E+02  0.81402623057E+02  0.47000000000E+01 0. -1.
        -11    1    4    4    0    0  0.11974945502E+03 -0.92555940601E+02  0.36369996530E+02  0.15565767172E+03  0.00000000000E+00 0.  1.
         12    1    4    4    0    0  0.14121150877E+02 -0.47065246467E+01 -0.16357142679E+02  0.22115930750E+02  0.00000000000E+00 0. -1.
         -5    1    5    5    0  502 -0.16921475345E+01 -0.39539262671E+02  0.74933853064E+02  0.84872781213E+02  0.47000000000E+01 0.  1.
         13    1    6    6    0    0 -0.65133592421E+02  0.10816889836E+02  0.54554022162E+02  0.85647716266E+02  0.00000000000E+00 0. -1.
        -14    1    6    6    0    0 -0.11991494639E+03  0.72421252307E+02  0.28969790894E+03  0.32179078700E+03  0.00000000000E+00 0.  1.
<mgrwt>
<rscale>  2 0.25716805E+03</rscale>
<asrwt>0</asrwt>
<pdfrwt beam="1">  1       21 0.93949650E-01 0.25817374E+03</pdfrwt>
<pdfrwt beam="2">  1       21 0.21663812E-01 0.25817374E+03</pdfrwt>
<totfact> 0.18211762E+04</totfact>
</mgrwt>
</event>
<event>
12    1  0.1019868E-001  0.1859505E+03  0.7546771E-02  0.1162369E+00
         21   -1    0    0  503  502  0.00000000000E+00  0.00000000000E+00  0.65730816509E+02  0.65730816509E+02  0.00000000000E+00 0.  1.
         21   -1    0    0  501  503 -0.00000000000E+00 -0.00000000000E+00 -0.69777356617E+03  0.69777356617E+03  0.00000000000E+00 0.  1.
          6    2    1    2  501    0 -0.59743841534E+02 -0.23353340504E+02 -0.50620315692E+03  0.53897556230E+03  0.17360390425E+03 0.  0.
         24    2    3    3    0    0 -0.82751975529E+02  0.34924670975E+02 -0.35665709939E+03  0.37676639433E+03  0.81737428724E+02 0.  0.
         -6    2    1    2    0  502  0.59743841534E+02  0.23353340504E+02 -0.12583959274E+03  0.22452882038E+03  0.17453619385E+03 0.  0.
        -24    2    5    5    0    0 -0.27653738487E+02 -0.13702028754E+02 -0.84287729192E+02  0.12079799203E+03  0.80840947192E+02 0.  0.
          5    1    3    3  501    0  0.23008133995E+02 -0.58278011479E+02 -0.14954605753E+03  0.16220916797E+03  0.47000000000E+01 0. -1.
        -11    1    4    4    0    0 -0.62855499482E+02  0.22742901330E+02 -0.34357987916E+03  0.35002169467E+03  0.00000000000E+00 0.  1.
         12    1    4    4    0    0 -0.19896476047E+02  0.12181769645E+02 -0.13077220223E+02  0.26744699653E+02  0.00000000000E+00 0. -1.
         -5    1    5    5    0  502  0.87397580020E+02  0.37055369258E+02 -0.41551863550E+02  0.10373082834E+03  0.47000000000E+01 0.  1.
         11    1    6    6    0    0 -0.15272368468E+01 -0.25632814563E+02 -0.88153494579E+02  0.91817276377E+02  0.00000000000E+00 0. -1.
        -12    1    6    6    0    0 -0.26126501640E+02  0.11930785809E+02  0.38657653867E+01  0.28980715657E+02  0.00000000000E+00 0.  1.
<mgrwt>
<rscale>  2 0.18573142E+03</rscale>
<asrwt>0</asrwt>
<pdfrwt beam="1">  1       21 0.10112433E-01 0.18595050E+03</pdfrwt>
<pdfrwt beam="2">  1       21 0.10734978E+00 0.18595050E+03</pdfrwt>
<totfact> 0.55293205E+04</totfact>
</mgrwt>
</event>
<event>
12    1  0.1019868E-001  0.1965618E+03  0.7546771E-02  0.1154583E+00
         21   -1    0    0  501  502  0.00000000000E+00  0.00000000000E+00  0.54612505514E+02  0.54612505514E+02  0.00000000000E+00 0. -1.
         21   -1    0    0  502  503 -0.00000000000E+00 -0.00000000000E+00 -0.74832187394E+03  0.74832187394E+03  0.00000000000E+00 0. -1.
         -6    2    1    2    0  503 -0.68454175629E+02  0.35471598055E+02 -0.22973279616E+03  0.30234701655E+03  0.18081026618E+03 0.  0.
        -24    2    3    3    0    0 -0.11049374193E+03  0.46956494210E+02 -0.13529110811E+03  0.19822905260E+03  0.81100517925E+02 0.  0.
          6    2    1    2  501    0  0.68454175629E+02 -0.35471598055E+02 -0.46397657227E+03  0.50058736291E+03  0.17137456013E+03 0.  0.
         24    2    5    5    0    0  0.11814856977E+02 -0.64225039610E+02 -0.38694733201E+03  0.40063554115E+03  0.80722689003E+02 0.  0.
          5    1    5    5  501    0  0.56639318652E+02  0.28753441555E+02 -0.77029240254E+02  0.99951821758E+02  0.47000000000E+01 0. -1.
        -11    1    6    6    0    0 -0.32838524378E+02 -0.25252835982E+02 -0.20936024651E+03  0.21341927567E+03  0.00000000000E+00 0.  1.
         12    1    6    6    0    0  0.44653381355E+02 -0.38972203627E+02 -0.17758708551E+03  0.18721626548E+03  0.00000000000E+00 0. -1.
         -5    1    3    3    0  503  0.42039566303E+02 -0.11484896156E+02 -0.94441688054E+02  0.10411796395E+03  0.47000000000E+01 0.  1.
         11    1    4    4    0    0 -0.19826796337E+02  0.49765863508E+02 -0.41648794846E+02  0.67855472409E+02  0.00000000000E+00 0. -1.
        -12    1    4    4    0    0 -0.90666945595E+02 -0.28093692976E+01 -0.93642313260E+02  0.13037358019E+03  0.00000000000E+00 0.  1.
<mgrwt>
<rscale>  2 0.19436450E+03</rscale>
<asrwt>0</asrwt>
<pdfrwt beam="1">  1       21 0.84019244E-02 0.19656185E+03</pdfrwt>
<pdfrwt beam="2">  1       21 0.11512644E+00 0.19656185E+03</pdfrwt>
<totfact> 0.64293063E+04</totfact>
</mgrwt>
</event>
<event>
12    1  0.1019868E-001  0.1908032E+03  0.7546771E-02  0.1157966E+00
         21   -1    0    0  503  502  0.00000000000E+00  0.00000000000E+00  0.16816352026E+02  0.16816352026E+02  0.00000000000E+00 0. -1.
         21   -1    0    0  501  503 -0.00000000000E+00 -0.00000000000E+00 -0.22814491033E+04  0.22814491033E+04  0.00000000000E+00 0. -1.
          6    2    1    2  501    0  0.55047980553E+02 -0.57087742976E+02 -0.14016464984E+04  0.14144378989E+04  0.17243077680E+03 0.  0.
         24    2    3    3    0    0  0.17397455520E+02  0.98239064772E+01 -0.32664865322E+03  0.33669155211E+03  0.79137083678E+02 0.  0.
         -6    2    1    2    0  502 -0.55047980553E+02  0.57087742976E+02 -0.86298625290E+03  0.88382755646E+03  0.17354131007E+03 0.  0.
        -24    2    5    5    0    0  0.52691239918E+01 -0.25795152180E+02 -0.47999525902E+03  0.48732797411E+03  0.79999700781E+02 0.  0.
          5    1    3    3  501    0  0.37650525032E+02 -0.66911649453E+02 -0.10749978452E+04  0.10777463468E+04  0.47000000000E+01 0. -1.
        -13    1    4    4    0    0 -0.31232705554E+02 -0.25024997711E+01 -0.13454504161E+03  0.13814525914E+03  0.00000000000E+00 0.  1.
         14    1    4    4    0    0  0.48630161074E+02  0.12326406248E+02 -0.19210361162E+03  0.19854629297E+03  0.00000000000E+00 0. -1.
         -5    1    5    5    0  502 -0.60317104544E+02  0.82882895156E+02 -0.38299099388E+03  0.39649958235E+03  0.47000000000E+01 0.  1.
         11    1    6    6    0    0 -0.19455205599E+02  0.11852734338E+02 -0.49590857161E+02  0.54573303456E+02  0.00000000000E+00 0. -1.
        -12    1    6    6    0    0  0.24724329591E+02 -0.37647886519E+02 -0.43040440186E+03  0.43275467065E+03  0.00000000000E+00 0.  1.
<mgrwt>
<rscale>  2 0.19055036E+03</rscale>
<asrwt>0</asrwt>
<pdfrwt beam="1">  1       21 0.25871298E-02 0.19080324E+03</pdfrwt>
<pdfrwt beam="2">  1       21 0.35099234E+00 0.19080324E+03</pdfrwt>
<totfact> 0.13966182E+04</totfact>
</mgrwt>
</event>
<event>
12    1  0.1019868E-001  0.2256571E+03  0.7546771E-02  0.1130470E+00
         21   -1    0    0  503  502  0.00000000000E+00  0.00000000000E+00  0.75613154585E+02  0.75613154585E+02  0.00000000000E+00 0. -1.
         21   -1    0    0  501  503 -0.00000000000E+00 -0.00000000000E+00 -0.10153569219E+04  0.10153569219E+04  0.00000000000E+00 0.  1.
          6    2    1    2  501    0 -0.83183748606E+02 -0.11894307906E+03 -0.78914787851E+03  0.81967643993E+03  0.16747566966E+03 0.  0.
         24    2    3    3    0    0 -0.10512886373E+03 -0.11326318855E+03 -0.49439610912E+03  0.52401693173E+03  0.79281802133E+02 0.  0.
         -6    2    1    2    0  502  0.83183748606E+02  0.11894307906E+03 -0.15059588877E+03  0.27129363652E+03  0.17278345816E+03 0.  0.
        -24    2    5    5    0    0 -0.17485531979E+02  0.84862544806E+02 -0.91205800959E+02  0.14945333367E+03  0.80687083706E+02 0.  0.
          5    1    3    3  501    0  0.21945115120E+02 -0.56798905039E+01 -0.29475176939E+03  0.29565950821E+03  0.47000000000E+01 0. -1.
        -11    1    4    4    0    0 -0.10917714915E+03 -0.89432391724E+02 -0.46507281477E+03  0.48601494383E+03  0.00000000000E+00 0.  1.
         12    1    4    4    0    0  0.40482854269E+01 -0.23830796829E+02 -0.29323294355E+02  0.38001987898E+02  0.00000000000E+00 0. -1.
         -5    1    5    5    0  502  0.10066928058E+03  0.34080534251E+02 -0.59390087808E+02  0.12184030285E+03  0.47000000000E+01 0.  1.
         11    1    6    6    0    0 -0.45171867641E+01  0.19635054537E+02  0.14320810409E+02  0.24718939170E+02  0.00000000000E+00 0. -1.
        -12    1    6    6    0    0 -0.12968345215E+02  0.65227490270E+02 -0.10552661137E+03  0.12473439450E+03  0.00000000000E+00 0.  1.
<mgrwt>
<rscale>  2 0.22464077E+03</rscale>
<asrwt>0</asrwt>
<pdfrwt beam="1">  1       21 0.11632793E-01 0.22565708E+03</pdfrwt>
<pdfrwt beam="2">  1       21 0.15620876E+00 0.22565708E+03</pdfrwt>
<totfact> 0.16284774E+04</totfact>
</mgrwt>
</event>
<event>
12    1  0.1019868E-001  0.1884859E+03  0.7546771E-02  0.1160417E+00
         21   -1    0    0  501  502  0.00000000000E+00  0.00000000000E+00  0.10867224505E+04  0.10867224505E+04  0.00000000000E+00 0. -1.
         21   -1    0    0  502  503 -0.00000000000E+00 -0.00000000000E+00 -0.75116235986E+02  0.75116235986E+02  0.00000000000E+00 0. -1.
         -6    2    1    2    0  503  0.43232700733E+02  0.50032457825E+02  0.65507134008E+02  0.19714681135E+03  0.17379116022E+03 0.  0.
        -24    2    3    3    0    0  0.27036744813E+01  0.59896375181E+01 -0.28286510996E+02  0.85783846983E+02  0.80718994577E+02 0.  0.
          6    2    1    2  501    0 -0.43232700733E+02 -0.50032457825E+02  0.94609908049E+03  0.96469187512E+03  0.17650674369E+03 0.  0.
         24    2    5    5    0    0 -0.87390671207E+02 -0.58930273627E+02  0.81899178852E+03  0.82975688649E+03  0.81480270397E+02 0.  0.
          5    1    5    5  501    0  0.44157970474E+02  0.88978158025E+01  0.12710729198E+03  0.13493498863E+03  0.47000000000E+01 0. -1.
        -11    1    6    6    0    0 -0.89525272274E+02 -0.31064242219E+02  0.45888259183E+03  0.46856482434E+03  0.00000000000E+00 0.  1.
         12    1    6    6    0    0  0.21346010673E+01 -0.27866031408E+02  0.36010919668E+03  0.36119206216E+03  0.00000000000E+00 0. -1.
         -5    1    3    3    0  503  0.40529026252E+02  0.44042820306E+02  0.93793645004E+02  0.11136296437E+03  0.47000000000E+01 0.  1.
         11    1    4    4    0    0  0.29168459461E+02 -0.22545384473E+02 -0.28927386382E+02  0.46860293120E+02  0.00000000000E+00 0. -1.
        -12    1    4    4    0    0 -0.26464784980E+02  0.28535021991E+02  0.64087538567E+00  0.38923553863E+02  0.00000000000E+00 0.  1.
<mgrwt>
<rscale>  2 0.18784755E+03</rscale>
<asrwt>0</asrwt>
<pdfrwt beam="1">  1       21 0.16718806E+00 0.18848592E+03</pdfrwt>
<pdfrwt beam="2">  1       21 0.11556345E-01 0.18848592E+03</pdfrwt>
<totfact> 0.14064048E+04</totfact>
</mgrwt>
</event>
<event>
12    1  0.1019868E-001  0.2349642E+03  0.7546771E-02  0.1123295E+00
         21   -1    0    0  501  502  0.00000000000E+00  0.00000000000E+00  0.22555613506E+03  0.22555613506E+03  0.00000000000E+00 0.  1.
         21   -1    0    0  502  503 -0.00000000000E+00 -0.00000000000E+00 -0.48075707816E+03  0.48075707816E+03  0.00000000000E+00 0.  1.
         -6    2    1    2    0  503 -0.57938103539E+02  0.14828355688E+03 -0.37543411444E+03  0.44289837170E+03  0.17281017415E+03 0.  0.
        -24    2    3    3    0    0  0.12599829338E+02  0.25335809489E+02 -0.19975320304E+03  0.21711612884E+03  0.80233486362E+02 0.  0.
          6    2    1    2  501    0  0.57938103539E+02 -0.14828355688E+03  0.12023317134E+03  0.26341484153E+03  0.17200734334E+03 0.  0.
         24    2    5    5    0    0 -0.24308710911E+02 -0.21014288154E+02  0.38211081162E+02  0.91043966588E+02  0.76134114533E+02 0.  0.
          5    1    5    5  501    0  0.82246814450E+02 -0.12726926873E+03  0.82022090176E+02  0.17237087494E+03  0.47000000000E+01 0. -1.
        -11    1    6    6    0    0 -0.50478026673E+02 -0.22864393946E+02  0.19206147774E+02  0.58648851648E+02  0.00000000000E+00 0.  1.
         12    1    6    6    0    0  0.26169315762E+02  0.18501057919E+01  0.19004933387E+02  0.32395114940E+02  0.00000000000E+00 0. -1.
         -5    1    3    3    0  503 -0.70537932877E+02  0.12294774740E+03 -0.17568091139E+03  0.22578224286E+03  0.47000000000E+01 0.  1.
         11    1    4    4    0    0 -0.32153313307E+02  0.66195904927E+00 -0.99839917154E+02  0.10489176709E+03  0.00000000000E+00 0. -1.
        -12    1    4    4    0    0  0.44753142645E+02  0.24673850439E+02 -0.99913285888E+02  0.11222436174E+03  0.00000000000E+00 0.  1.
<mgrwt>
<rscale>  2 0.23481664E+03</rscale>
<asrwt>0</asrwt>
<pdfrwt beam="1">  1       21 0.34700944E-01 0.23496424E+03</pdfrwt>
<pdfrwt beam="2">  1       21 0.73962627E-01 0.23496424E+03</pdfrwt>
<totfact> 0.12788053E+04</totfact>
</mgrwt>
</event>
<event>
12    1  0.1019868E-001  0.2302838E+03  0.7546771E-02  0.1126943E+00
         21   -1    0    0  501  502  0.00000000000E+00  0.00000000000E+00  0.38326322600E+02  0.38326322600E+02  0.00000000000E+00 0. -1.
         21   -1    0    0  502  503 -0.00000000000E+00 -0.00000000000E+00 -0.25828879301E+04  0.25828879301E+04  0.00000000000E+00 0. -1.
         -6    2    1    2    0  503  0.93359642990E+02  0.11414784306E+03 -0.21674468771E+04  0.21793475795E+04  0.17315933164E+03 0.  0.
        -24    2    3    3    0    0  0.70430568865E+02  0.12527714510E+03 -0.21058749426E+04  0.21125434110E+04  0.86461329655E+02 0.  0.
          6    2    1    2  501    0 -0.93359642990E+02 -0.11414784306E+03 -0.37711473037E+03  0.44186667319E+03  0.17687533462E+03 0.  0.
         24    2    5    5    0    0  0.20689166222E+01  0.22858067284E+01 -0.14665204822E+03  0.16655132190E+03  0.78886084009E+02 0.  0.
          5    1    5    5  501    0 -0.95428559612E+02 -0.11643364978E+03 -0.23046268215E+03  0.27531535129E+03  0.47000000000E+01 0. -1.
        -13    1    6    6    0    0 -0.12700401470E+02 -0.19166117600E+02 -0.63507547597E+01  0.23853141247E+02  0.00000000000E+00 0.  1.
         14    1    6    6    0    0  0.14769318092E+02  0.21451924328E+02 -0.14030129346E+03  0.14269818065E+03  0.00000000000E+00 0. -1.
         -5    1    3    3    0  503  0.22929074125E+02 -0.11129302040E+02 -0.61571934527E+02  0.66804168474E+02  0.47000000000E+01 0.  1.
         13    1    4    4    0    0  0.28295961077E+01  0.43622836735E+02 -0.26183769298E+03  0.26546174105E+03  0.00000000000E+00 0. -1.
        -14    1    4    4    0    0  0.67600972758E+02  0.81654308360E+02 -0.18440372496E+04  0.18470816700E+04  0.00000000000E+00 0.  1.
<mgrwt>
<rscale>  2 0.22957008E+03</rscale>
<asrwt>0</asrwt>
<pdfrwt beam="1">  1       21 0.58963579E-02 0.23028382E+03</pdfrwt>
<pdfrwt beam="2">  1       21 0.39736733E+00 0.23028382E+03</pdfrwt>
<totfact> 0.17458965E+03</totfact>
</mgrwt>
</event>
<event>
12    1  0.1019868E-001  0.1984013E+03  0.7546771E-02  0.1151261E+00
         21   -1    0    0  503  502  0.00000000000E+00  0.00000000000E+00  0.69285363005E+03  0.69285363005E+03  0.00000000000E+00 0. -1.
         21   -1    0    0  501  503 -0.00000000000E+00 -0.00000000000E+00 -0.11038684732E+03  0.11038684732E+03  0.00000000000E+00 0. -1.
          6    2    1    2  501    0 -0.70200224293E+02 -0.63951549804E+02  0.11156478872E+02  0.19871475954E+03  0.17419878423E+03 0.  0.
         24    2    3    3    0    0 -0.62601913614E+02  0.21938129363E+02  0.28004779943E+02  0.11073336059E+03  0.84126858612E+02 0.  0.
         -6    2    1    2    0  502  0.70200224293E+02  0.63951549804E+02  0.57131030386E+03  0.60452571782E+03  0.17331476568E+03 0.  0.
        -24    2    5    5    0    0  0.19781010010E+01  0.87469233423E+02  0.42745376522E+03  0.44351598750E+03  0.79592274056E+02 0.  0.
          5    1    3    3  501    0 -0.75983106789E+01 -0.85889679167E+02 -0.16848301071E+02  0.87981398952E+02  0.47000000000E+01 0. -1.
        -11    1    4    4    0    0 -0.75660173965E+02  0.99961597541E+01  0.42948075190E+02  0.87572383185E+02  0.00000000000E+00 0.  1.
         12    1    4    4    0    0  0.13058260351E+02  0.11941969609E+02 -0.14943295247E+02  0.23160977405E+02  0.00000000000E+00 0. -1.
         -5    1    5    5    0  502  0.68222123292E+02 -0.23517683619E+02  0.14385653864E+03  0.16100973032E+03  0.47000000000E+01 0.  1.
         11    1    6    6    0    0 -0.96259789098E+01  0.20948084393E+02  0.28432484672E+03  0.28525795374E+03  0.00000000000E+00 0. -1.
        -12    1    6    6    0    0  0.11604079911E+02  0.66521149030E+02  0.14312891850E+03  0.15825803376E+03  0.00000000000E+00 0.  1.
<mgrwt>
<rscale>  2 0.19820712E+03</rscale>
<asrwt>0</asrwt>
<pdfrwt beam="1">  1       21 0.10659286E+00 0.19840133E+03</pdfrwt>
<pdfrwt beam="2">  1       21 0.16982592E-01 0.19840133E+03</pdfrwt>
<totfact> 0.21946144E+04</totfact>
</mgrwt>
</event>
<event>
12    1  0.1019868E-001  0.1789614E+03  0.7546771E-02  0.1169300E+00
         21   -1    0    0  501  502  0.00000000000E+00  0.00000000000E+00  0.50481866268E+03  0.50481866268E+03  0.00000000000E+00 0.  1.
         21   -1    0    0  502  503 -0.00000000000E+00 -0.00000000000E+00 -0.97831907061E+02  0.97831907061E+02  0.00000000000E+00 0.  1.
         -6    2    1    2    0  503 -0.39546075162E+02  0.86271168286E+00  0.23755691486E+02  0.18053115877E+03  0.17453518291E+03 0.  0.
        -24    2    3    3    0    0 -0.50365946404E+02  0.31284583217E+02  0.70116542937E+02  0.12383919788E+03  0.83092500473E+02 0.  0.
          6    2    1    2  501    0  0.39546075162E+02 -0.86271168286E+00  0.38323106413E+03  0.42211941098E+03  0.17249380358E+03 0.  0.
         24    2    5    5    0    0  0.39104502027E+02  0.66119792217E+02  0.22422279447E+03  0.24951416587E+03  0.77977358316E+02 0.  0.
          5    1    5    5  501    0  0.44157313525E+00 -0.66982503900E+02  0.15900826966E+03  0.17260524510E+03  0.47000000000E+01 0. -1.
        -11    1    6    6    0    0  0.59263283910E+02  0.44612284878E+02  0.11887731220E+03  0.14012211866E+03  0.00000000000E+00 0.  1.
         12    1    6    6    0    0 -0.20158781883E+02  0.21507507338E+02  0.10534548227E+03  0.10939204721E+03  0.00000000000E+00 0. -1.
         -5    1    3    3    0  503  0.10819871242E+02 -0.30421871534E+02 -0.46360851450E+02  0.56691960881E+02  0.47000000000E+01 0.  1.
         11    1    4    4    0    0 -0.10618525686E+02  0.43170046334E+02  0.25213661551E+01  0.44528230097E+02  0.00000000000E+00 0. -1.
        -12    1    4    4    0    0 -0.39747420718E+02 -0.11885463117E+02  0.67595176781E+02  0.79310967787E+02  0.00000000000E+00 0.  1.
<mgrwt>
<rscale>  2 0.17846169E+03</rscale>
<asrwt>0</asrwt>
<pdfrwt beam="1">  1       21 0.77664408E-01 0.17896135E+03</pdfrwt>
<pdfrwt beam="2">  1       21 0.15051063E-01 0.17896135E+03</pdfrwt>
<totfact> 0.57688790E+04</totfact>
</mgrwt>
</event>
<event>
12    1  0.1019868E-001  0.1796894E+03  0.7546771E-02  0.1169128E+00
         21   -1    0    0  501  502  0.00000000000E+00  0.00000000000E+00  0.38913134613E+03  0.38913134613E+03  0.00000000000E+00 0.  1.
         21   -1    0    0  502  503 -0.00000000000E+00 -0.00000000000E+00 -0.93293027741E+02  0.93293027741E+02  0.00000000000E+00 0.  1.
         -6    2    1    2    0  503 -0.33629387077E+02  0.33162021714E+02  0.62089115148E+02  0.19011401476E+03  0.17337135008E+03 0.  0.
        -24    2    3    3    0    0 -0.31872802419E+02  0.81704987472E+02  0.98937306331E+01  0.11865806134E+03  0.79311216751E+02 0.  0.
          6    2    1    2  501    0  0.33629387077E+02 -0.33162021714E+02  0.23374920324E+03  0.29231035911E+03  0.16904437486E+03 0.  0.
         24    2    5    5    0    0  0.86718255128E+02 -0.29719018213E+02  0.16587209093E+03  0.20594095157E+03  0.80590627048E+02 0.  0.
          5    1    5    5  501    0 -0.53088868051E+02 -0.34430035004E+01  0.67877112311E+02  0.86369407546E+02  0.47000000000E+01 0. -1.
        -11    1    6    6    0    0 -0.14786884670E+00  0.18579219508E+02  0.49669891252E+02  0.53031192328E+02  0.00000000000E+00 0.  1.
         12    1    6    6    0    0  0.86866123974E+02 -0.48298237721E+02  0.11620219967E+03  0.15290975924E+03  0.00000000000E+00 0. -1.
         -5    1    3    3    0  503 -0.17565846575E+01 -0.48542965759E+02  0.52195384515E+02  0.71455953419E+02  0.47000000000E+01 0.  1.
         13    1    4    4    0    0 -0.62456582652E+01  0.88492771934E+02 -0.38501292950E+01  0.88796409991E+02  0.00000000000E+00 0. -1.
        -14    1    4    4    0    0 -0.25627144154E+02 -0.67877844618E+01  0.13743859928E+02  0.29861651346E+02  0.00000000000E+00 0.  1.
<mgrwt>
<rscale>  2 0.17863741E+03</rscale>
<asrwt>0</asrwt>
<pdfrwt beam="1">  1       21 0.59866360E-01 0.17968940E+03</pdfrwt>
<pdfrwt beam="2">  1       21 0.14352774E-01 0.17968940E+03</pdfrwt>
<totfact> 0.11119262E+05</totfact>
</mgrwt>
</event>
<event>
12    1  0.1019868E-001  0.2025230E+03  0.7546771E-02  0.1148167E+00
         21   -1    0    0  503  502  0.00000000000E+00  0.00000000000E+00  0.35093609592E+03  0.35093609592E+03  0.00000000000E+00 0.  1.
         21   -1    0    0  501  503 -0.00000000000E+00 -0.00000000000E+00 -0.14801776093E+03  0.14801776093E+03  0.00000000000E+00 0.  1.
          6    2    1    2  501    0 -0.46603696086E+02  0.92021602186E+02 -0.15163043308E+02  0.20308985029E+03  0.17428622909E+03 0.  0.
         24    2    3    3    0    0 -0.33000124980E+02  0.14391226461E+02 -0.65169593158E+02  0.10963249419E+03  0.80474171397E+02 0.  0.
         -6    2    1    2    0  502  0.46603696086E+02 -0.92021602186E+02  0.21808137830E+03  0.29586400656E+03  0.17127797016E+03 0.  0.
        -24    2    5    5    0    0 -0.28200229656E+02 -0.25649603588E+02  0.15275371782E+03  0.17632044661E+03  0.79385429814E+02 0.  0.
          5    1    3    3  501    0 -0.13603571106E+02  0.77630375725E+02  0.50006549850E+02  0.93457356104E+02  0.47000000000E+01 0. -1.
        -13    1    4    4    0    0  0.22660550115E+02  0.22447249699E+02 -0.24795089737E+02  0.40400198337E+02  0.00000000000E+00 0.  1.
         14    1    4    4    0    0 -0.55660675095E+02 -0.80560232380E+01 -0.40374503421E+02  0.69232295852E+02  0.00000000000E+00 0. -1.
         -5    1    5    5    0  502  0.74803925742E+02 -0.66371998598E+02  0.65327660476E+02  0.11954355996E+03  0.47000000000E+01 0.  1.
         11    1    6    6    0    0  0.95716452418E+01 -0.11860501361E+02 -0.29366774586E+01  0.15521338849E+02  0.00000000000E+00 0. -1.
        -12    1    6    6    0    0 -0.37771874898E+02 -0.13789102227E+02  0.15569039528E+03  0.16079910776E+03  0.00000000000E+00 0.  1.
<mgrwt>
<rscale>  2 0.20187416E+03</rscale>
<asrwt>0</asrwt>
<pdfrwt beam="1">  1       21 0.53990168E-01 0.20252301E+03</pdfrwt>
<pdfrwt beam="2">  1       21 0.22771963E-01 0.20252301E+03</pdfrwt>
<totfact> 0.58394401E+04</totfact>
</mgrwt>
</event>
<event>
12    1  0.1019868E-001  0.2425383E+03  0.7546771E-02  0.1118303E+00
         21   -1    0    0  501  502  0.00000000000E+00  0.00000000000E+00  0.10806661941E+04  0.10806661941E+04  0.00000000000E+00 0.  1.
         21   -1    0    0  502  503 -0.00000000000E+00 -0.00000000000E+00 -0.64372393905E+02  0.64372393905E+02  0.00000000000E+00 0. -1.
         -6    2    1    2    0  503 -0.12573965059E+03 -0.11327638460E+03  0.73703399809E+03  0.77591490460E+03  0.17373205175E+03 0.  0.
        -24    2    3    3    0    0 -0.45552369030E+02 -0.11572179968E+03  0.38130444440E+03  0.41122108021E+03  0.90791763103E+02 0.  0.
          6    2    1    2  501    0  0.12573965059E+03  0.11327638460E+03  0.27925980207E+03  0.36912368337E+03  0.17211698792E+03 0.  0.
         24    2    5    5    0    0  0.92115411464E+02  0.13904635986E+03  0.16586727065E+03  0.24798476615E+03  0.78519765360E+02 0.  0.
          5    1    5    5  501    0  0.33624239126E+02 -0.25769975258E+02  0.11339253142E+03  0.12113891722E+03  0.47000000000E+01 0. -1.
        -13    1    6    6    0    0  0.43787415689E+02  0.24215816559E+02  0.14818742982E+02  0.52185617635E+02  0.00000000000E+00 0.  1.
         14    1    6    6    0    0  0.48327995775E+02  0.11483054330E+03  0.15104852766E+03  0.19579914852E+03  0.00000000000E+00 0. -1.
         -5    1    3    3    0  503 -0.80187281561E+02  0.24454150834E+01  0.35572955369E+03  0.36469382439E+03  0.47000000000E+01 0.  1.
         11    1    4    4    0    0  0.27224330441E+02 -0.22019916742E+02  0.76191045104E+02  0.83851751653E+02  0.00000000000E+00 0. -1.
        -12    1    4    4    0    0 -0.72776699471E+02 -0.93701882942E+02  0.30511339929E+03  0.32736932856E+03  0.00000000000E+00 0.  1.
<mgrwt>
<rscale>  2 0.24224922E+03</rscale>
<asrwt>0</asrwt>
<pdfrwt beam="1">  1       21 0.16625632E+00 0.24253830E+03</pdfrwt>
<pdfrwt beam="2">  1       21 0.99034460E-02 0.24253830E+03</pdfrwt>
<totfact> 0.18121536E+04</totfact>
</mgrwt>
</event>
<event>
12    1  0.1019868E-001  0.1998488E+03  0.7546771E-02  0.1150371E+00
         21   -1    0    0  503  502  0.00000000000E+00  0.00000000000E+00  0.13296597744E+04  0.13296597744E+04  0.00000000000E+00 0.  1.
         21   -1    0    0  501  503 -0.00000000000E+00 -0.00000000000E+00 -0.31068674127E+02  0.31068674127E+02  0.00000000000E+00 0.  1.
          6    2    1    2  501    0 -0.20607702808E+02  0.93759651907E+02  0.50186245831E+03  0.53931743247E+03  0.17257408892E+03 0.  0.
         24    2    3    3    0    0 -0.55195511470E+02  0.11620108802E+03  0.35298649449E+03  0.38476622036E+03  0.83044215296E+02 0.  0.
         -6    2    1    2    0  502  0.20607702808E+02 -0.93759651907E+02  0.79672864192E+03  0.82141101601E+03  0.17528256795E+03 0.  0.
        -24    2    5    5    0    0  0.70783769787E+02 -0.57607735140E+02  0.65979689062E+03  0.67108805270E+03  0.81842802956E+02 0.  0.
          5    1    3    3  501    0  0.34587808663E+02 -0.22441436110E+02  0.14887596381E+03  0.15455121211E+03  0.47000000000E+01 0. -1.
        -13    1    4    4    0    0 -0.30475209578E+02  0.29813096188E+02  0.37651284095E+02  0.56878627771E+02  0.00000000000E+00 0.  1.
         14    1    4    4    0    0 -0.24720301892E+02  0.86387991829E+02  0.31533521040E+03  0.32788759259E+03  0.00000000000E+00 0. -1.
         -5    1    5    5    0  502 -0.50176066979E+02 -0.36151916767E+02  0.13693175131E+03  0.15032296332E+03  0.47000000000E+01 0.  1.
         13    1    6    6    0    0  0.19440163636E+02  0.52010947030E+01  0.30227743033E+02  0.36313741162E+02  0.00000000000E+00 0. -1.
        -14    1    6    6    0    0  0.51343606150E+02 -0.62808829842E+02  0.62956914758E+03  0.63477431154E+03  0.00000000000E+00 0.  1.
<mgrwt>
<rscale>  2 0.19925329E+03</rscale>
<asrwt>0</asrwt>
<pdfrwt beam="1">  1       21 0.20456300E+00 0.19984876E+03</pdfrwt>
<pdfrwt beam="2">  1       21 0.47797970E-02 0.19984876E+03</pdfrwt>
<totfact> 0.36268659E+04</totfact>
</mgrwt>
</event>
<event>
12    1  0.1019868E-001  0.1773927E+03  0.7546771E-02  0.1171621E+00
         21   -1    0    0  503  502  0.00000000000E+00  0.00000000000E+00  0.24834771859E+03  0.24834771859E+03  0.00000000000E+00 0. -1.
         21   -1    0    0  501  503 -0.00000000000E+00 -0.00000000000E+00 -0.12908100852E+03  0.12908100852E+03  0.00000000000E+00 0. -1.
          6    2    1    2  501    0 -0.89885160590E+01  0.24518311477E+02  0.99384933943E+02  0.19892538001E+03  0.17032909528E+03 0.  0.
         24    2    3    3    0    0  0.53045934220E+02  0.54702898780E+01  0.25430942212E+02  0.10042470468E+03  0.81207101162E+02 0.  0.
         -6    2    1    2    0  502  0.89885160590E+01 -0.24518311477E+02  0.19881776125E+02  0.17850334710E+03  0.17546002076E+03 0.  0.
        -24    2    5    5    0    0 -0.28993960950E+02 -0.50282006021E+02  0.62472991345E+02  0.11571371316E+03  0.78216742871E+02 0.  0.
          5    1    3    3  501    0 -0.62034450279E+02  0.19048021599E+02  0.73953991731E+02  0.98500675334E+02  0.47000000000E+01 0. -1.
        -11    1    4    4    0    0 -0.16639130976E+02 -0.10224818439E+02 -0.85547554368E+01  0.21321149883E+02  0.00000000000E+00 0.  1.
         12    1    4    4    0    0  0.69685065196E+02  0.15695108317E+02  0.33985697649E+02  0.79103554795E+02  0.00000000000E+00 0. -1.
         -5    1    5    5    0  502  0.37982477009E+02  0.25763694544E+02 -0.42591215220E+02  0.62789633939E+02  0.47000000000E+01 0.  1.
         13    1    6    6    0    0 -0.23164293918E+02 -0.44877203399E+02 -0.22030121199E+01  0.50550975856E+02  0.00000000000E+00 0. -1.
        -14    1    6    6    0    0 -0.58296670323E+01 -0.54048026217E+01  0.64676003465E+02  0.65162737306E+02  0.00000000000E+00 0.  1.
<mgrwt>
<rscale>  2 0.17611049E+03</rscale>
<asrwt>0</asrwt>
<pdfrwt beam="1">  1       21 0.38207341E-01 0.17739267E+03</pdfrwt>
<pdfrwt beam="2">  1       21 0.19858617E-01 0.17739267E+03</pdfrwt>
<totfact> 0.15527525E+05</totfact>
</mgrwt>
</event>
<event>
12    1  0.1019868E-001  0.1827390E+03  0.7546771E-02  0.1165743E+00
         21   -1    0    0  501  502  0.00000000000E+00  0.00000000000E+00  0.37707680990E+03  0.37707680990E+03  0.00000000000E+00 0.  1.
         21   -1    0    0  502  503 -0.00000000000E+00 -0.00000000000E+00 -0.11771680353E+03  0.11771680353E+03  0.00000000000E+00 0. -1.
         -6    2    1    2    0  503 -0.49884511981E+02 -0.83037660777E+01  0.35391969307E+01  0.18040875847E+03  0.17313976190E+03 0.  0.
        -24    2    3    3    0    0 -0.82184063047E+02 -0.21208703746E+02  0.45729528981E+02  0.12552786440E+03  0.80386725191E+02 0.  0.
          6    2    1    2  501    0  0.49884511981E+02  0.83037660777E+01  0.25582080943E+03  0.31438485496E+03  0.17560220221E+03 0.  0.
         24    2    5    5    0    0  0.70729607831E+01 -0.46278015858E+02  0.21455261420E+03  0.23353218788E+03  0.79452986055E+02 0.  0.
          5    1    5    5  501    0  0.42811551198E+02  0.54581781936E+02  0.41268195238E+02  0.80852667077E+02  0.47000000000E+01 0. -1.
        -13    1    6    6    0    0  0.32719646084E+02 -0.15330804603E+02  0.16883701211E+03  0.17266020233E+03  0.00000000000E+00 0.  1.
         14    1    6    6    0    0 -0.25646685301E+02 -0.30947211255E+02  0.45715602089E+02  0.60871985558E+02  0.00000000000E+00 0. -1.
         -5    1    3    3    0  503  0.32299551066E+02  0.12904937668E+02 -0.42190332050E+02  0.54880894069E+02  0.47000000000E+01 0.  1.
         13    1    4    4    0    0 -0.45119355514E+02 -0.23323010683E+00 -0.18249049252E+02  0.48670714366E+02  0.00000000000E+00 0. -1.
        -14    1    4    4    0    0 -0.37064707533E+02 -0.20975473639E+02  0.63978578233E+02  0.76857150035E+02  0.00000000000E+00 0.  1.
<mgrwt>
<rscale>  2 0.18214489E+03</rscale>
<asrwt>0</asrwt>
<pdfrwt beam="1">  1       21 0.58011816E-01 0.18273902E+03</pdfrwt>
<pdfrwt beam="2">  1       21 0.18110278E-01 0.18273902E+03</pdfrwt>
<totfact> 0.77632540E+04</totfact>
</mgrwt>
</event>
<event>
12    1  0.1019868E-001  0.2085322E+03  0.7546771E-02  0.1142855E+00
         21   -1    0    0  503  502  0.00000000000E+00  0.00000000000E+00  0.67329505293E+03  0.67329505293E+03  0.00000000000E+00 0. -1.
         21   -1    0    0  501  503 -0.00000000000E+00 -0.00000000000E+00 -0.67676861578E+02  0.67676861578E+02  0.00000000000E+00 0. -1.
          6    2    1    2  501    0 -0.50331539045E+02 -0.10869725471E+03  0.22168496815E+03  0.30435164203E+03  0.17069663118E+03 0.  0.
         24    2    3    3    0    0 -0.10560133524E+01  0.63106439595E+01  0.10867864339E+03  0.13568803118E+03  0.80989226965E+02 0.  0.
         -6    2    1    2    0  502  0.50331539045E+02  0.10869725471E+03  0.38393322320E+03  0.43662027248E+03  0.16995348027E+03 0.  0.
        -24    2    5    5    0    0  0.82812027500E+02  0.44777001922E+02  0.28013779560E+03  0.31038096941E+03  0.94849089886E+02 0.  0.
          5    1    3    3  501    0 -0.49275525692E+02 -0.11500789867E+03  0.11300632475E+03  0.16866361084E+03  0.47000000000E+01 0. -1.
        -11    1    4    4    0    0  0.26015177677E+02 -0.26660240849E+02  0.62982943453E+02  0.73173827819E+02  0.00000000000E+00 0.  1.
         12    1    4    4    0    0 -0.27071191030E+02  0.32970884809E+02  0.45695699941E+02  0.62514203361E+02  0.00000000000E+00 0. -1.
         -5    1    5    5    0  502 -0.32480488455E+02  0.63920252790E+02  0.10379542761E+03  0.12623930307E+03  0.47000000000E+01 0.  1.
         13    1    6    6    0    0  0.48756108125E+02  0.40936759562E+02  0.26565147250E+03  0.27317335376E+03  0.00000000000E+00 0. -1.
        -14    1    6    6    0    0  0.34055919375E+02  0.38402423602E+01  0.14486323099E+02  0.37207615656E+02  0.00000000000E+00 0.  1.
<mgrwt>
<rscale>  2 0.20838011E+03</rscale>
<asrwt>0</asrwt>
<pdfrwt beam="1">  1       21 0.10358385E+00 0.20853224E+03</pdfrwt>
<pdfrwt beam="2">  1       21 0.10411825E-01 0.20853224E+03</pdfrwt>
<totfact> 0.56578218E+04</totfact>
</mgrwt>
</event>
<event>
12    1  0.1019868E-001  0.1952755E+03  0.7546771E-02  0.1154607E+00
         21   -1    0    0  503  502  0.00000000000E+00  0.00000000000E+00  0.14063853964E+03  0.14063853964E+03  0.00000000000E+00 0.  1.
         21   -1    0    0  501  503 -0.00000000000E+00 -0.00000000000E+00 -0.26664106542E+03  0.26664106542E+03  0.00000000000E+00 0. -1.
          6    2    1    2  501    0  0.30214911802E+02  0.76865116049E+02 -0.72494404731E+02  0.20480578199E+03  0.17282587381E+03 0.  0.
         24    2    3    3    0    0  0.37219808635E+02  0.10234750170E+03 -0.83753584344E+01  0.13529490042E+03  0.79838826352E+02 0.  0.
         -6    2    1    2    0  502 -0.30214911802E+02 -0.76865116049E+02 -0.53508121052E+02  0.20247382307E+03  0.17695011458E+03 0.  0.
        -24    2    5    5    0    0  0.16664751073E+02  0.22677281869E+02 -0.29779587917E+02  0.89817154122E+02  0.79926993417E+02 0.  0.
          5    1    3    3  501    0 -0.70048968333E+01 -0.25482385646E+02 -0.64119046297E+02  0.69510881565E+02  0.47000000000E+01 0. -1.
        -11    1    4    4    0    0  0.72245155392E+01  0.10469610173E+03 -0.68996091327E+01  0.10517163091E+03  0.00000000000E+00 0.  1.
         12    1    4    4    0    0  0.29995293096E+02 -0.23486000351E+01 -0.14757493018E+01  0.30123269511E+02  0.00000000000E+00 0. -1.
         -5    1    5    5    0  502 -0.46879662875E+02 -0.99542397918E+02 -0.23728533134E+02  0.11265666895E+03  0.47000000000E+01 0.  1.
         11    1    6    6    0    0 -0.27024431027E+02  0.29791095962E+02 -0.10739540979E+02  0.41631322480E+02  0.00000000000E+00 0. -1.
        -12    1    6    6    0    0  0.43689182101E+02 -0.71138140932E+01 -0.19040046938E+02  0.48185831642E+02  0.00000000000E+00 0.  1.
<mgrwt>
<rscale>  2 0.19433646E+03</rscale>
<asrwt>0</asrwt>
<pdfrwt beam="1">  1       21 0.21636699E-01 0.19527552E+03</pdfrwt>
<pdfrwt beam="2">  1       21 0.41021702E-01 0.19527552E+03</pdfrwt>
<totfact> 0.11389532E+05</totfact>
</mgrwt>
</event>
<event>
12    1  0.1019868E-001  0.2298177E+03  0.7546771E-02  0.1126778E+00
         21   -1    0    0  503  502  0.00000000000E+00  0.00000000000E+00  0.41410902297E+03  0.41410902297E+03  0.00000000000E+00 0.  1.
         21   -1    0    0  501  503 -0.00000000000E+00 -0.00000000000E+00 -0.21077886574E+03  0.21077886574E+03  0.00000000000E+00 0.  1.
          6    2    1    2  501    0  0.13907317479E+03  0.61116988356E+02 -0.94708146047E+02  0.24856748865E+03  0.17245152732E+03 0.  0.
         24    2    3    3    0    0  0.14562713046E+03  0.16931590525E+02 -0.11054604843E+03  0.20094152023E+03  0.81627972193E+02 0.  0.
         -6    2    1    2    0  502 -0.13907317479E+03 -0.61116988356E+02  0.29803830328E+03  0.37632040005E+03  0.17237627175E+03 0.  0.
        -24    2    5    5    0    0 -0.42784729817E+02 -0.27224310130E+02  0.48390041774E+02  0.10656769340E+03  0.80270673145E+02 0.  0.
          5    1    3    3  501    0 -0.65539556725E+01  0.44185397831E+02  0.15837902381E+02  0.47625968424E+02  0.47000000000E+01 0. -1.
        -11    1    4    4    0    0  0.45592444009E+02 -0.55927731846E+01 -0.82843822005E+02  0.94726178573E+02  0.00000000000E+00 0.  1.
         12    1    4    4    0    0  0.10003468645E+03  0.22524363710E+02 -0.27702226422E+02  0.10621534165E+03  0.00000000000E+00 0. -1.
         -5    1    5    5    0  502 -0.96288444970E+02 -0.33892678227E+02  0.24964826150E+03  0.26975270665E+03  0.47000000000E+01 0.  1.
         11    1    6    6    0    0  0.12221983651E+01 -0.35758385098E+02  0.50268558018E+02  0.61701570473E+02  0.00000000000E+00 0. -1.
        -12    1    6    6    0    0 -0.44006928183E+02  0.85340749686E+01 -0.18785162436E+01  0.44866122932E+02  0.00000000000E+00 0.  1.
<mgrwt>
<rscale>  2 0.22980356E+03</rscale>
<asrwt>0</asrwt>
<pdfrwt beam="1">  1       21 0.63709080E-01 0.22981767E+03</pdfrwt>
<pdfrwt beam="2">  1       21 0.32427518E-01 0.22981767E+03</pdfrwt>
<totfact> 0.20394857E+04</totfact>
</mgrwt>
</event>
<event>
12    1  0.1019868E-001  0.1864323E+03  0.7546771E-02  0.1161793E+00
         21   -1    0    0  503  502  0.00000000000E+00  0.00000000000E+00  0.14285855825E+03  0.14285855825E+03  0.00000000000E+00 0.  1.
         21   -1    0    0  501  503 -0.00000000000E+00 -0.00000000000E+00 -0.34761650307E+03  0.34761650307E+03  0.00000000000E+00 0.  1.
          6    2    1    2  501    0 -0.19208156251E+02  0.67469925069E+02 -0.23705323488E+03  0.30158123493E+03  0.17273060249E+03 0.  0.
         24    2    3    3    0    0 -0.32663867210E+02  0.86421898850E+01 -0.51133543371E+02  0.10605635090E+03  0.86554576081E+02 0.  0.
         -6    2    1    2    0  502  0.19208156251E+02 -0.67469925069E+02  0.32295290061E+02  0.18889382640E+03  0.17238546295E+03 0.  0.
        -24    2    5    5    0    0 -0.27089621060E+02 -0.96479857000E+02  0.86386246258E+01  0.12917123307E+03  0.81045488716E+02 0.  0.
          5    1    3    3  501    0  0.13455710958E+02  0.58827735184E+02 -0.18591969151E+03  0.19552488403E+03  0.47000000000E+01 0. -1.
        -11    1    4    4    0    0 -0.57585265407E+02  0.17274755655E+02 -0.52258470466E+02  0.79658192989E+02  0.00000000000E+00 0.  1.
         12    1    4    4    0    0  0.24921398197E+02 -0.86325657701E+01  0.11249270949E+01  0.26398157906E+02  0.00000000000E+00 0. -1.
         -5    1    5    5    0  502  0.46297777311E+02  0.29009931931E+02  0.23656665435E+02  0.59722593330E+02  0.47000000000E+01 0.  1.
         11    1    6    6    0    0  0.17041427860E+01 -0.52569909967E+02  0.41699049420E+02  0.67121607990E+02  0.00000000000E+00 0. -1.
        -12    1    6    6    0    0 -0.28793763846E+02 -0.43909947033E+02 -0.33060424794E+02  0.62049625079E+02  0.00000000000E+00 0.  1.
<mgrwt>
<rscale>  2 0.18635232E+03</rscale>
<asrwt>0</asrwt>
<pdfrwt beam="1">  1       21 0.21978240E-01 0.18643231E+03</pdfrwt>
<pdfrwt beam="2">  1       21 0.53479461E-01 0.18643231E+03</pdfrwt>
<totfact> 0.64174215E+04</totfact>
</mgrwt>
</event>
<event>
12    1  0.1019868E-001  0.1745957E+03  0.7546771E-02  0.1173228E+00
         21   -1    0    0  501  502  0.00000000000E+00  0.00000000000E+00  0.26180544128E+02  0.26180544128E+02  0.00000000000E+00 0. -1.
         21   -1    0    0  502  503 -0.00000000000E+00 -0.00000000000E+00 -0.13706113436E+04  0.13706113436E+04  0.00000000000E+00 0. -1.
         -6    2    1    2    0  503 -0.20260512302E+02  0.32852237409E+01 -0.94527149279E+03  0.96126055159E+03  0.17338503942E+03 0.  0.
        -24    2    3    3    0    0  0.50103846915E+02 -0.24469498498E+02 -0.49655809246E+03  0.50619212454E+03  0.80940570342E+02 0.  0.
          6    2    1    2  501    0  0.20260512302E+02 -0.32852237409E+01 -0.39915930669E+03  0.43553133616E+03  0.17302633210E+03 0.  0.
         24    2    5    5    0    0 -0.43013077549E+02 -0.30185345391E+02 -0.16220703548E+03  0.18876093163E+03  0.80983251565E+02 0.  0.
          5    1    5    5  501    0  0.63273589851E+02  0.26900121650E+02 -0.23695227121E+03  0.24677040452E+03  0.47000000000E+01 0. -1.
        -11    1    6    6    0    0 -0.48668318123E+02 -0.13511062985E+02 -0.16348286305E+03  0.17110757004E+03  0.00000000000E+00 0.  1.
         12    1    6    6    0    0  0.56552405738E+01 -0.16674282406E+02  0.12758275687E+01  0.17653361597E+02  0.00000000000E+00 0. -1.
         -5    1    3    3    0  503 -0.70364359217E+02  0.27754722239E+02 -0.44871340033E+03  0.45506842704E+03  0.47000000000E+01 0.  1.
         11    1    4    4    0    0 -0.15950992385E+02  0.53417786541E+00 -0.22614509046E+03  0.22670756812E+03  0.00000000000E+00 0. -1.
        -12    1    4    4    0    0  0.66054839300E+02 -0.25003676363E+02 -0.27041300200E+03  0.27948455642E+03  0.00000000000E+00 0.  1.
<mgrwt>
<rscale>  2 0.17450656E+03</rscale>
<asrwt>0</asrwt>
<pdfrwt beam="1">  1       21 0.40277752E-02 0.17459568E+03</pdfrwt>
<pdfrwt beam="2">  1       21 0.21086333E+00 0.17459568E+03</pdfrwt>
<totfact> 0.44959417E+04</totfact>
</mgrwt>
</event>
<event>
12    1  0.1019868E-001  0.2830663E+03  0.7546771E-02  0.1094418E+00
         21   -1    0    0  503  502  0.00000000000E+00  0.00000000000E+00  0.19007426035E+03  0.19007426035E+03  0.00000000000E+00 0.  1.
         21   -1    0    0  501  503 -0.00000000000E+00 -0.00000000000E+00 -0.42369756173E+03  0.42369756173E+03  0.00000000000E+00 0. -1.
          6    2    1    2  501    0 -0.79032490543E+02  0.20919551198E+03 -0.78359387225E+02  0.29091980588E+03  0.16877571832E+03 0.  0.
         24    2    3    3    0    0 -0.11354942805E+03  0.12162056272E+03 -0.35053934487E+02  0.18719785570E+03  0.78289366898E+02 0.  0.
         -6    2    1    2    0  502  0.79032490543E+02 -0.20919551198E+03 -0.15526391415E+03  0.32285201620E+03  0.17354435898E+03 0.  0.
        -24    2    5    5    0    0  0.86809455037E+02 -0.11934252850E+03 -0.34914963297E+02  0.17238607392E+03  0.81971844099E+02 0.  0.
          5    1    3    3  501    0  0.34516937506E+02  0.87574949253E+02 -0.43305452738E+02  0.10372195018E+03  0.47000000000E+01 0. -1.
        -13    1    4    4    0    0 -0.68916003939E+02  0.76293204598E+02  0.17987008130E+02  0.10437241555E+03  0.00000000000E+00 0.  1.
         14    1    4    4    0    0 -0.44633424110E+02  0.45327358126E+02 -0.53040942617E+02  0.82825440151E+02  0.00000000000E+00 0. -1.
         -5    1    5    5    0  502 -0.77769644933E+01 -0.89852983474E+02 -0.12034895085E+03  0.15046594229E+03  0.47000000000E+01 0.  1.
         13    1    6    6    0    0 -0.59730394408E+01 -0.51488972039E+02 -0.23377194130E+02  0.56861978925E+02  0.00000000000E+00 0. -1.
        -14    1    6    6    0    0  0.92782494477E+02 -0.67853556463E+02 -0.11537769166E+02  0.11552409499E+03  0.00000000000E+00 0.  1.
<mgrwt>
<rscale>  2 0.28233896E+03</rscale>
<asrwt>0</asrwt>
<pdfrwt beam="1">  1       21 0.29242194E-01 0.28306632E+03</pdfrwt>
<pdfrwt beam="2">  1       21 0.65184240E-01 0.28306632E+03</pdfrwt>
<totfact> 0.23195009E+04</totfact>
</mgrwt>
</event>
<event>
12    1  0.1019868E-001  0.1773181E+03  0.7546771E-02  0.1170436E+00
         21   -1    0    0  501  502  0.00000000000E+00  0.00000000000E+00  0.17233869778E+04  0.17233869778E+04  0.00000000000E+00 0.  1.
         21   -1    0    0  502  503 -0.00000000000E+00 -0.00000000000E+00 -0.10599922020E+03  0.10599922020E+03  0.00000000000E+00 0.  1.
         -6    2    1    2    0  503  0.36902918482E+02  0.11939357285E+01 -0.23572771697E+02  0.17887816535E+03  0.17343146081E+03 0.  0.
        -24    2    3    3    0    0  0.39599522763E+02 -0.84720779743E+00  0.51770190435E+02  0.10331302865E+03  0.80153535836E+02 0.  0.
          6    2    1    2  501    0 -0.36902918482E+02 -0.11939357285E+01  0.16409605293E+04  0.16505080327E+04  0.17338412918E+03 0.  0.
         24    2    5    5    0    0 -0.83069623115E+02 -0.23819669957E+02  0.10423359725E+04  0.10496613480E+04  0.88638179891E+02 0.  0.
          5    1    5    5  501    0  0.46166704633E+02  0.22625734229E+02  0.59862455676E+03  0.60084668462E+03  0.47000000000E+01 0. -1.
        -13    1    6    6    0    0 -0.15974216336E+02 -0.16804969817E+02  0.71846538729E+03  0.71883940858E+03  0.00000000000E+00 0.  1.
         14    1    6    6    0    0 -0.67095406779E+02 -0.70147001402E+01  0.32387058526E+03  0.33082193946E+03  0.00000000000E+00 0. -1.
         -5    1    3    3    0  503 -0.26966042805E+01  0.20411435259E+01 -0.75342962132E+02  0.75565136699E+02  0.47000000000E+01 0.  1.
         13    1    4    4    0    0  0.22626855704E+02 -0.21448475290E+02  0.66051847320E+02  0.73040113812E+02  0.00000000000E+00 0. -1.
        -14    1    4    4    0    0  0.16972667059E+02  0.20601267493E+02 -0.14281656885E+02  0.30272914838E+02  0.00000000000E+00 0.  1.
<mgrwt>
<rscale>  2 0.17730656E+03</rscale>
<asrwt>0</asrwt>
<pdfrwt beam="1">  1       21 0.26513644E+00 0.17731814E+03</pdfrwt>
<pdfrwt beam="2">  1       21 0.16307574E-01 0.17731814E+03</pdfrwt>
<totfact> 0.18617754E+03</totfact>
</mgrwt>
</event>
<event>
12    1  0.1019868E-001  0.3850461E+03  0.7546771E-02  0.1049125E+00
         21   -1    0    0  501  502  0.00000000000E+00  0.00000000000E+00  0.30969522764E+03  0.30969522764E+03  0.00000000000E+00 0. -1.
         21   -1    0    0  502  503 -0.00000000000E+00 -0.00000000000E+00 -0.10407351310E+04  0.10407351310E+04  0.00000000000E+00 0.  1.
         -6    2    1    2    0  503  0.25484756026E+03  0.23123905844E+03 -0.86185057957E+03  0.94377083277E+03  0.17175034836E+03 0.  0.
        -24    2    3    3    0    0  0.47003246677E+02  0.99305773637E+02 -0.27074831475E+03  0.30343527402E+03  0.81837483476E+02 0.  0.
          6    2    1    2  501    0 -0.25484756026E+03 -0.23123905844E+03  0.13081067624E+03  0.40665952585E+03  0.17274766519E+03 0.  0.
         24    2    5    5    0    0 -0.82433247266E+02 -0.16601331590E+03  0.52436411620E+02  0.20629558656E+03  0.73841928865E+02 0.  0.
          5    1    5    5  501    0 -0.17241431299E+03 -0.65225742536E+02  0.78374264622E+02  0.20036393929E+03  0.47000000000E+01 0. -1.
        -13    1    6    6    0    0 -0.28758382029E+02 -0.70444303173E+02 -0.15068139391E+02  0.77566057082E+02  0.00000000000E+00 0.  1.
         14    1    6    6    0    0 -0.53674865237E+02 -0.95569012727E+02  0.67504551011E+02  0.12872952948E+03  0.00000000000E+00 0. -1.
         -5    1    3    3    0  503  0.20784431358E+03  0.13193328480E+03 -0.59110226482E+03  0.64033555875E+03  0.47000000000E+01 0.  1.
         13    1    4    4    0    0  0.47700376423E+02  0.48574078268E+02 -0.75317149130E+02  0.10152556301E+03  0.00000000000E+00 0. -1.
        -14    1    4    4    0    0 -0.69712974611E+00  0.50731695369E+02 -0.19543116562E+03  0.20190971101E+03  0.00000000000E+00 0.  1.
<mgrwt>
<rscale>  2 0.38493450E+03</rscale>
<asrwt>0</asrwt>
<pdfrwt beam="1">  1       21 0.47645420E-01 0.38504615E+03</pdfrwt>
<pdfrwt beam="2">  1       21 0.16011310E+00 0.38504615E+03</pdfrwt>
<totfact> 0.91795053E+02</totfact>
</mgrwt>
</event>
<event>
12    1  0.1019868E-001  0.1864680E+03  0.7546771E-02  0.1162028E+00
         21   -1    0    0  503  502  0.00000000000E+00  0.00000000000E+00  0.50813794246E+02  0.50813794246E+02  0.00000000000E+00 0. -1.
         21   -1    0    0  501  503 -0.00000000000E+00 -0.00000000000E+00 -0.13206397028E+04  0.13206397028E+04  0.00000000000E+00 0. -1.
          6    2    1    2  501    0  0.51010948868E+02  0.44568207869E+02 -0.11116384105E+04  0.11269261636E+04  0.17214581135E+03 0.  0.
         24    2    3    3    0    0 -0.31810421563E+02 -0.53639940958E+01 -0.58909993344E+03  0.59549304999E+03  0.80824288762E+02 0.  0.
         -6    2    1    2    0  502 -0.51010948868E+02 -0.44568207869E+02 -0.15818749806E+03  0.24452733349E+03  0.17372935913E+03 0.  0.
        -24    2    5    5    0    0 -0.54220285832E+02 -0.44037115649E+02 -0.21922448589E+02  0.10814245306E+03  0.79593275165E+02 0.  0.
          5    1    3    3  501    0  0.82821370432E+02  0.49932201965E+02 -0.52253847710E+03  0.53143311361E+03  0.47000000000E+01 0. -1.
        -11    1    4    4    0    0  0.15969180870E+02 -0.13029896252E+02 -0.48054715719E+02  0.52288130937E+02  0.00000000000E+00 0.  1.
         12    1    4    4    0    0 -0.47779602433E+02  0.76659021563E+01 -0.54104521772E+03  0.54320491905E+03  0.00000000000E+00 0. -1.
         -5    1    5    5    0  502  0.32093369633E+01 -0.53109222001E+00 -0.13626504947E+03  0.13638488043E+03  0.47000000000E+01 0.  1.
         13    1    6    6    0    0  0.10326039126E+01 -0.46664922476E+02 -0.24600436217E+02  0.52762322946E+02  0.00000000000E+00 0. -1.
        -14    1    6    6    0    0 -0.55252889744E+02  0.26278068273E+01  0.26779876280E+01  0.55380130115E+02  0.00000000000E+00 0.  1.
<mgrwt>
<rscale>  2 0.18609833E+03</rscale>
<asrwt>0</asrwt>
<pdfrwt beam="1">  1       21 0.78175076E-02 0.18646805E+03</pdfrwt>
<pdfrwt beam="2">  1       21 0.20317532E+00 0.18646805E+03</pdfrwt>
<totfact> 0.16085820E+04</totfact>
</mgrwt>
</event>
<event>
12    1  0.1019868E-001  0.1876573E+03  0.7546771E-02  0.1161326E+00
         21   -1    0    0  501  502  0.00000000000E+00  0.00000000000E+00  0.82119222811E+02  0.82119222811E+02  0.00000000000E+00 0.  1.
         21   -1    0    0  502  503 -0.00000000000E+00 -0.00000000000E+00 -0.61224837791E+03  0.61224837791E+03  0.00000000000E+00 0. -1.
         -6    2    1    2    0  503 -0.42194790489E+02 -0.45752776741E+02 -0.45723572061E+03  0.49305010841E+03  0.17366688884E+03 0.  0.
        -24    2    3    3    0    0 -0.28602071354E+02  0.36243545617E+02 -0.31267853842E+03  0.32623575707E+03  0.80809824358E+02 0.  0.
          6    2    1    2  501    0  0.42194790489E+02  0.45752776741E+02 -0.72893434488E+02  0.20131749231E+03  0.17703548513E+03 0.  0.
         24    2    5    5    0    0  0.98674427123E+02  0.24839534278E+02 -0.31165021588E+02  0.12789635429E+03  0.70940636020E+02 0.  0.
          5    1    5    5  501    0 -0.56479636634E+02  0.20913242463E+02 -0.41728412901E+02  0.73421138018E+02  0.47000000000E+01 0. -1.
        -11    1    6    6    0    0  0.73942852507E+02  0.30076052912E+02  0.91111803336E+01  0.80343811229E+02  0.00000000000E+00 0.  1.
         12    1    6    6    0    0  0.24731574616E+02 -0.52365186344E+01 -0.40276201921E+02  0.47552543061E+02  0.00000000000E+00 0. -1.
         -5    1    3    3    0  503 -0.13592719135E+02 -0.81996322357E+02 -0.14455718218E+03  0.16681435135E+03  0.47000000000E+01 0.  1.
         13    1    4    4    0    0  0.20250787271E+02  0.32180714758E+02 -0.19639275805E+03  0.20003951660E+03  0.00000000000E+00 0. -1.
        -14    1    4    4    0    0 -0.48852858624E+02  0.40628308584E+01 -0.11628578038E+03  0.12619624047E+03  0.00000000000E+00 0.  1.
<mgrwt>
<rscale>  2 0.18685863E+03</rscale>
<asrwt>0</asrwt>
<pdfrwt beam="1">  1       21 0.12633726E-01 0.18765735E+03</pdfrwt>
<pdfrwt beam="2">  1       21 0.94192059E-01 0.18765735E+03</pdfrwt>
<totfact> 0.50694125E+04</totfact>
</mgrwt>
</event>
<event>
12    1  0.1019868E-001  0.1989688E+03  0.7546771E-02  0.1151158E+00
         21   -1    0    0  503  502  0.00000000000E+00  0.00000000000E+00  0.32291309015E+03  0.32291309015E+03  0.00000000000E+00 0. -1.
         21   -1    0    0  501  503 -0.00000000000E+00 -0.00000000000E+00 -0.18210483740E+03  0.18210483740E+03  0.00000000000E+00 0.  1.
          6    2    1    2  501    0  0.82514393950E+02 -0.48101675008E+02 -0.76131611319E+02  0.21065170946E+03  0.17162669988E+03 0.  0.
         24    2    3    3    0    0  0.62017307083E+02 -0.93168926315E+02 -0.26954236996E+02  0.14071107853E+03  0.80910330116E+02 0.  0.
         -6    2    1    2    0  502 -0.82514393950E+02  0.48101675008E+02  0.21693986406E+03  0.29436621809E+03  0.17454560832E+03 0.  0.
        -24    2    5    5    0    0 -0.91692203234E+02  0.36409381888E+02  0.70393515856E+02  0.14699300453E+03  0.83178080543E+02 0.  0.
          5    1    3    3  501    0  0.20497086867E+02  0.45067251308E+02 -0.49177374323E+02  0.69940630936E+02  0.47000000000E+01 0. -1.
        -11    1    4    4    0    0  0.37025696217E+02 -0.90299321645E+02 -0.47209602442E+02  0.10841409610E+03  0.00000000000E+00 0.  1.
         12    1    4    4    0    0  0.24991610867E+02 -0.28696046702E+01  0.20255365446E+02  0.32296982429E+02  0.00000000000E+00 0. -1.
         -5    1    5    5    0  502  0.91778092836E+01  0.11692293120E+02  0.14654634821E+03  0.14737321356E+03  0.47000000000E+01 0.  1.
         13    1    6    6    0    0 -0.87497731762E+02  0.81961106603E+00  0.68467826715E+02  0.11110521194E+03  0.00000000000E+00 0. -1.
        -14    1    6    6    0    0 -0.41944714715E+01  0.35589770822E+02  0.19256891418E+01  0.35887792587E+02  0.00000000000E+00 0.  1.
<mgrwt>
<rscale>  2 0.19832675E+03</rscale>
<asrwt>0</asrwt>
<pdfrwt beam="1">  1       21 0.49678937E-01 0.19896876E+03</pdfrwt>
<pdfrwt beam="2">  1       21 0.28016129E-01 0.19896876E+03</pdfrwt>
<totfact> 0.46852414E+04</totfact>
</mgrwt>
</event>
<event>
12    1  0.1019868E-001  0.2046304E+03  0.7546771E-02  0.1146574E+00
         21   -1    0    0  503  502  0.00000000000E+00  0.00000000000E+00  0.15425062339E+03  0.15425062339E+03  0.00000000000E+00 0.  1.
         21   -1    0    0  501  503 -0.00000000000E+00 -0.00000000000E+00 -0.27480837195E+03  0.27480837195E+03  0.00000000000E+00 0.  1.
          6    2    1    2  501    0 -0.20346687279E+02  0.10771407829E+03 -0.23844624916E+02  0.20272512112E+03  0.16885673884E+03 0.  0.
         24    2    3    3    0    0 -0.28448525529E+02 -0.68986600770E+01 -0.43683611544E+01  0.86092645247E+02  0.80845227879E+02 0.  0.
         -6    2    1    2    0  502  0.20346687279E+02 -0.10771407829E+03 -0.96713123644E+02  0.22633387421E+03  0.17279260396E+03 0.  0.
        -24    2    5    5    0    0 -0.90330926465E+01 -0.12321426692E+02  0.72239883206E+01  0.82153630444E+02  0.80396633446E+02 0.  0.
          5    1    3    3  501    0  0.81018382497E+01  0.11461273837E+03 -0.19476263762E+02  0.11663247588E+03  0.47000000000E+01 0. -1.
        -13    1    4    4    0    0 -0.45259533368E+02 -0.30824764917E+02  0.59551744339E+01  0.55082262076E+02  0.00000000000E+00 0.  1.
         14    1    4    4    0    0  0.16811007839E+02  0.23926104840E+02 -0.10323535588E+02  0.31010383171E+02  0.00000000000E+00 0. -1.
         -5    1    5    5    0  502  0.29379779925E+02 -0.95392651599E+02 -0.10393711196E+03  0.14418024376E+03  0.47000000000E+01 0.  1.
         13    1    6    6    0    0 -0.33060929230E+02 -0.33111174318E+01 -0.24549288538E+02  0.41311694567E+02  0.00000000000E+00 0. -1.
        -14    1    6    6    0    0  0.24027836584E+02 -0.90103092605E+01  0.31773276859E+02  0.40841935878E+02  0.00000000000E+00 0.  1.
<mgrwt>
<rscale>  2 0.20379720E+03</rscale>
<asrwt>0</asrwt>
<pdfrwt beam="1">  1       21 0.23730865E-01 0.20463038E+03</pdfrwt>
<pdfrwt beam="2">  1       21 0.42278211E-01 0.20463038E+03</pdfrwt>
<totfact> 0.89596978E+04</totfact>
</mgrwt>
</event>
<event>
12    1  0.1019868E-001  0.1876213E+03  0.7546771E-02  0.1161188E+00
         21   -1    0    0  503  502  0.00000000000E+00  0.00000000000E+00  0.29167115631E+03  0.29167115631E+03  0.00000000000E+00 0. -1.
         21   -1    0    0  501  503 -0.00000000000E+00 -0.00000000000E+00 -0.14346564211E+03  0.14346564211E+03  0.00000000000E+00 0. -1.
          6    2    1    2  501    0  0.57485890238E+00 -0.68788782485E+02 -0.15107993089E+02  0.18822855806E+03  0.17455518198E+03 0.  0.
         24    2    3    3    0    0  0.45344836839E+02  0.87284160065E+01 -0.65886380239E+01  0.98184477756E+02  0.86397002537E+02 0.  0.
         -6    2    1    2    0  502 -0.57485890238E+00  0.68788782485E+02  0.16331350730E+03  0.24690824036E+03  0.17193065589E+03 0.  0.
        -24    2    5    5    0    0  0.21092523344E+02  0.32204528791E+02  0.18010497282E+03  0.20095254011E+03  0.80387162700E+02 0.  0.
          5    1    3    3  501    0 -0.44769977936E+02 -0.77517198492E+02 -0.85193550652E+01  0.90044080300E+02  0.47000000000E+01 0. -1.
        -11    1    4    4    0    0  0.42626046795E+02  0.27466648383E+02  0.28605028965E+02  0.58220652013E+02  0.00000000000E+00 0.  1.
         12    1    4    4    0    0  0.27187900440E+01 -0.18738232377E+02 -0.35193666989E+02  0.39963825743E+02  0.00000000000E+00 0. -1.
         -5    1    5    5    0  502 -0.21667382247E+02  0.36584253694E+02 -0.16791465520E+02  0.45955700257E+02  0.47000000000E+01 0.  1.
         13    1    6    6    0    0  0.47997095789E+00  0.55831810765E+02  0.94193142556E+02  0.10949780623E+03  0.00000000000E+00 0. -1.
        -14    1    6    6    0    0  0.20612552387E+02 -0.23627281973E+02  0.85911830260E+02  0.91454733874E+02  0.00000000000E+00 0.  1.
<mgrwt>
<rscale>  2 0.18700845E+03</rscale>
<asrwt>0</asrwt>
<pdfrwt beam="1">  1       21 0.44872485E-01 0.18762126E+03</pdfrwt>
<pdfrwt beam="2">  1       21 0.22071637E-01 0.18762126E+03</pdfrwt>
<totfact> 0.91622219E+04</totfact>
</mgrwt>
</event>
<event>
12    1  0.1019868E-001  0.1784159E+03  0.7546771E-02  0.1169526E+00
         21   -1    0    0  501  502  0.00000000000E+00  0.00000000000E+00  0.70696766787E+02  0.70696766787E+02  0.00000000000E+00 0.  1.
         21   -1    0    0  502  503 -0.00000000000E+00 -0.00000000000E+00 -0.60506442476E+03  0.60506442476E+03  0.00000000000E+00 0.  1.
         -6    2    1    2    0  503 -0.23989814185E+02 -0.37990293263E+02 -0.43951817809E+03  0.47435058625E+03  0.17266579349E+03 0.  0.
        -24    2    3    3    0    0 -0.61286153438E+02  0.20331701172E+02 -0.31442051536E+03  0.33129819313E+03  0.82029638667E+02 0.  0.
          6    2    1    2  501    0  0.23989814185E+02  0.37990293263E+02 -0.94849479886E+02  0.20141060529E+03  0.17190414342E+03 0.  0.
         24    2    5    5    0    0 -0.51883708446E+02  0.20929275159E+01 -0.47542891873E+02  0.10494602333E+03  0.77826998512E+02 0.  0.
          5    1    5    5  501    0  0.75873522632E+02  0.35897365747E+02 -0.47306588012E+02  0.96464581964E+02  0.47000000000E+01 0. -1.
        -11    1    6    6    0    0  0.16930624643E+02  0.10001132540E+02  0.20283187597E+01  0.19768226523E+02  0.00000000000E+00 0.  1.
         12    1    6    6    0    0 -0.68814333090E+02 -0.79082050239E+01 -0.49571210633E+02  0.85177796807E+02  0.00000000000E+00 0. -1.
         -5    1    3    3    0  503  0.37296339253E+02 -0.58321994435E+02 -0.12509766273E+03  0.14305239312E+03  0.47000000000E+01 0.  1.
         11    1    4    4    0    0  0.18130574091E+02  0.99791485496E+01 -0.35344916998E+02  0.40958079548E+02  0.00000000000E+00 0. -1.
        -12    1    4    4    0    0 -0.79416727529E+02  0.10352552622E+02 -0.27907559836E+03  0.29034011358E+03  0.00000000000E+00 0.  1.
<mgrwt>
<rscale>  2 0.17823141E+03</rscale>
<asrwt>0</asrwt>
<pdfrwt beam="1">  1       21 0.10876425E-01 0.17841595E+03</pdfrwt>
<pdfrwt beam="2">  1       21 0.93086840E-01 0.17841595E+03</pdfrwt>
<totfact> 0.68366966E+04</totfact>
</mgrwt>
</event>
<event>
12    1  0.1019868E-001  0.2907415E+03  0.7546771E-02  0.1090035E+00
         21   -1    0    0  503  502  0.00000000000E+00  0.00000000000E+00  0.30173091177E+03  0.30173091177E+03  0.00000000000E+00 0.  1.
         21   -1    0    0  501  503 -0.00000000000E+00 -0.00000000000E+00 -0.50452834625E+03  0.50452834625E+03  0.00000000000E+00 0. -1.
          6    2    1    2  501    0  0.52449092591E+02  0.22710710873E+03 -0.37061101023E+03  0.47104474457E+03  0.17378746886E+03 0.  0.
         24    2    3    3    0    0  0.97644616700E+02  0.20021206480E+03 -0.31758623268E+03  0.39621362924E+03  0.80652853300E+02 0.  0.
         -6    2    1    2    0  502 -0.52449092591E+02 -0.22710710873E+03  0.16781357575E+03  0.33521451345E+03  0.17285493244E+03 0.  0.
        -24    2    5    5    0    0  0.15795776322E+02 -0.19022040819E+03  0.15014848189E+03  0.25551422266E+03  0.79433249510E+02 0.  0.
          5    1    3    3  501    0 -0.45195524108E+02  0.26895043930E+02 -0.53024777553E+02  0.74831115333E+02  0.47000000000E+01 0. -1.
        -13    1    4    4    0    0 -0.12653578615E+02  0.36631172369E+02 -0.65428897153E+02  0.76045357673E+02  0.00000000000E+00 0.  1.
         14    1    4    4    0    0  0.11029819531E+03  0.16358089243E+03 -0.25215733553E+03  0.32016827157E+03  0.00000000000E+00 0. -1.
         -5    1    5    5    0  502 -0.68244868913E+02 -0.36886700542E+02  0.17665093857E+02  0.79700290783E+02  0.47000000000E+01 0.  1.
         11    1    6    6    0    0 -0.56189407792E+01  0.61068140231E+01  0.17484005334E+01  0.84807179778E+01  0.00000000000E+00 0. -1.
        -12    1    6    6    0    0  0.21414717101E+02 -0.19632722221E+03  0.14840008136E+03  0.24703350469E+03  0.00000000000E+00 0.  1.
<mgrwt>
<rscale>  2 0.29060231E+03</rscale>
<asrwt>0</asrwt>
<pdfrwt beam="1">  1       21 0.46420141E-01 0.29074152E+03</pdfrwt>
<pdfrwt beam="2">  1       21 0.77619745E-01 0.29074152E+03</pdfrwt>
<totfact> 0.61549993E+03</totfact>
</mgrwt>
</event>
<event>
12    1  0.1019868E-001  0.2309384E+03  0.7546771E-02  0.1125983E+00
         21   -1    0    0  503  502  0.00000000000E+00  0.00000000000E+00  0.43373558050E+03  0.43373558050E+03  0.00000000000E+00 0.  1.
         21   -1    0    0  501  503 -0.00000000000E+00 -0.00000000000E+00 -0.12517864557E+03  0.12517864557E+03  0.00000000000E+00 0. -1.
          6    2    1    2  501    0  0.12421414815E+03  0.89951704304E+02  0.19151704542E+03  0.30001100393E+03  0.17264808160E+03 0.  0.
         24    2    3    3    0    0  0.78656994046E+02  0.36482935065E+02  0.19687754527E+03  0.22940513637E+03  0.79674472078E+02 0.  0.
         -6    2    1    2    0  502 -0.12421414815E+03 -0.89951704304E+02  0.11703988951E+03  0.25890322215E+03  0.17266174734E+03 0.  0.
        -24    2    5    5    0    0 -0.99086005655E+02 -0.41376829876E+02  0.21765344699E+02  0.14894745441E+03  0.10090359448E+03 0.  0.
          5    1    3    3  501    0  0.45557154108E+02  0.53468769240E+02 -0.53604998457E+01  0.70605867554E+02  0.47000000000E+01 0. -1.
        -13    1    4    4    0    0  0.94334488469E+02  0.38158842854E+02  0.16532518590E+03  0.19413271258E+03  0.00000000000E+00 0.  1.
         14    1    4    4    0    0 -0.15677494423E+02 -0.16759077893E+01  0.31552359369E+02  0.35272423790E+02  0.00000000000E+00 0. -1.
         -5    1    5    5    0  502 -0.25128142500E+02 -0.48574874428E+02  0.95274544807E+02  0.10995576774E+03  0.47000000000E+01 0.  1.
         11    1    6    6    0    0  0.17704192879E+02  0.93372216038E+01  0.24515070625E+01  0.20165119381E+02  0.00000000000E+00 0. -1.
        -12    1    6    6    0    0 -0.11679019853E+03 -0.50714051480E+02  0.19313837637E+02  0.12878233503E+03  0.00000000000E+00 0.  1.
<mgrwt>
<rscale>  2 0.23093584E+03</rscale>
<asrwt>0</asrwt>
<pdfrwt beam="1">  1       21 0.66728550E-01 0.23093840E+03</pdfrwt>
<pdfrwt beam="2">  1       21 0.19258253E-01 0.23093840E+03</pdfrwt>
<totfact> 0.50072690E+04</totfact>
</mgrwt>
</event>
<event>
12    1  0.1019868E-001  0.2126425E+03  0.7546771E-02  0.1139560E+00
         21   -1    0    0  501  502  0.00000000000E+00  0.00000000000E+00  0.42805927348E+03  0.42805927348E+03  0.00000000000E+00 0.  1.
         21   -1    0    0  502  503 -0.00000000000E+00 -0.00000000000E+00 -0.30091254220E+03  0.30091254220E+03  0.00000000000E+00 0.  1.
         -6    2    1    2    0  503 -0.10065046929E+03 -0.70562529241E+02 -0.23020154136E+03  0.31314179585E+03  0.17307642000E+03 0.  0.
        -24    2    3    3    0    0 -0.11421366782E+03 -0.26418017388E+02 -0.97804241275E+02  0.17284271049E+03  0.81032458927E+02 0.  0.
          6    2    1    2  501    0  0.10065046929E+03  0.70562529241E+02  0.35734827264E+03  0.41583001983E+03  0.17351435078E+03 0.  0.
         24    2    5    5    0    0  0.81334767477E+02 -0.19963820457E+02  0.21974066211E+03  0.24992022264E+03  0.84618322908E+02 0.  0.
          5    1    5    5  501    0  0.19315701811E+02  0.90526349698E+02  0.13760761053E+03  0.16590979718E+03  0.47000000000E+01 0. -1.
        -11    1    6    6    0    0  0.33182196350E+02  0.24661970509E+02  0.36061238774E+02  0.54860585906E+02  0.00000000000E+00 0.  1.
         12    1    6    6    0    0  0.48152571127E+02 -0.44625790967E+02  0.18367942334E+03  0.19505963674E+03  0.00000000000E+00 0. -1.
         -5    1    3    3    0  503  0.13563198527E+02 -0.44144511853E+02 -0.13239730009E+03  0.14029908535E+03  0.47000000000E+01 0.  1.
         13    1    4    4    0    0 -0.69094197785E+01 -0.26195936296E+02 -0.46702039578E+02  0.53991181325E+02  0.00000000000E+00 0. -1.
        -14    1    4    4    0    0 -0.10730424804E+03 -0.22208109124E+00 -0.51102201698E+02  0.11885152917E+03  0.00000000000E+00 0.  1.
<mgrwt>
<rscale>  2 0.21255311E+03</rscale>
<asrwt>0</asrwt>
<pdfrwt beam="1">  1       21 0.65855273E-01 0.21264246E+03</pdfrwt>
<pdfrwt beam="2">  1       21 0.46294237E-01 0.21264246E+03</pdfrwt>
<totfact> 0.93399457E+03</totfact>
</mgrwt>
</event>
<event>
12    1  0.1019868E-001  0.1773388E+03  0.7546771E-02  0.1170627E+00
         21   -1    0    0  503  502  0.00000000000E+00  0.00000000000E+00  0.29358487562E+03  0.29358487562E+03  0.00000000000E+00 0. -1.
         21   -1    0    0  501  503 -0.00000000000E+00 -0.00000000000E+00 -0.25179686255E+03  0.25179686255E+03  0.00000000000E+00 0. -1.
          6    2    1    2  501    0 -0.30981928340E+02 -0.17952597296E+02 -0.18621917170E+03  0.25652826055E+03  0.17276282273E+03 0.  0.
         24    2    3    3    0    0  0.42713340396E+02  0.19380692073E+02 -0.91840009821E+02  0.13101219255E+03  0.80805733213E+02 0.  0.
         -6    2    1    2    0  502  0.30981928340E+02  0.17952597296E+02  0.22800718477E+03  0.28885347762E+03  0.17368615256E+03 0.  0.
        -24    2    5    5    0    0  0.76729916909E+02  0.28815117443E+02  0.97421889722E+02  0.14998129867E+03  0.79281613335E+02 0.  0.
          5    1    3    3  501    0 -0.73695268736E+02 -0.37333289369E+02 -0.94379161876E+02  0.12551606800E+03  0.47000000000E+01 0. -1.
        -11    1    4    4    0    0 -0.11384777932E+02 -0.12286690687E+02  0.33052539924E+01  0.17073389838E+02  0.00000000000E+00 0.  1.
         12    1    4    4    0    0  0.54098118328E+02  0.31667382760E+02 -0.95145263814E+02  0.11393880271E+03  0.00000000000E+00 0. -1.
         -5    1    5    5    0  502 -0.45747988569E+02 -0.10862520146E+02  0.13058529505E+03  0.13887217895E+03  0.47000000000E+01 0.  1.
         11    1    6    6    0    0  0.72390858589E+02 -0.67498149704E+01  0.41933787108E+02  0.83931155781E+02  0.00000000000E+00 0. -1.
        -12    1    6    6    0    0  0.43390583195E+01  0.35564932413E+02  0.55488102613E+02  0.66050142894E+02  0.00000000000E+00 0.  1.
<mgrwt>
<rscale>  2 0.17711233E+03</rscale>
<asrwt>0</asrwt>
<pdfrwt beam="1">  1       21 0.45166904E-01 0.17733881E+03</pdfrwt>
<pdfrwt beam="2">  1       21 0.38737979E-01 0.17733881E+03</pdfrwt>
<totfact> 0.30469172E+04</totfact>
</mgrwt>
</event>
<event>
12    1  0.1019868E-001  0.2942681E+03  0.7546771E-02  0.1088245E+00
         21   -1    0    0  501  502  0.00000000000E+00  0.00000000000E+00  0.31043376540E+03  0.31043376540E+03  0.00000000000E+00 0. -1.
         21   -1    0    0  502  503 -0.00000000000E+00 -0.00000000000E+00 -0.28681469181E+03  0.28681469181E+03  0.00000000000E+00 0.  1.
         -6    2    1    2    0  503  0.20645988815E+03 -0.11784884262E+03 -0.39992912530E+02  0.29697331299E+03  0.17343494588E+03 0.  0.
        -24    2    3    3    0    0  0.20854705572E+03 -0.10724114857E+03 -0.25797815938E+01  0.25774689577E+03  0.10693113956E+03 0.  0.
          6    2    1    2  501    0 -0.20645988815E+03  0.11784884262E+03  0.63611986119E+02  0.30027514423E+03  0.17205999634E+03 0.  0.
         24    2    5    5    0    0 -0.31423551114E+02  0.59990838487E+02  0.16076680667E+00  0.10525356809E+03  0.80572622417E+02 0.  0.
          5    1    5    5  501    0 -0.17503633704E+03  0.57858004133E+02  0.63451219313E+02  0.19502157613E+03  0.47000000000E+01 0. -1.
        -13    1    6    6    0    0 -0.53159812669E+02  0.15782648371E+02  0.53870784718E+01  0.55714255689E+02  0.00000000000E+00 0.  1.
         14    1    6    6    0    0  0.21736261555E+02  0.44208190116E+02 -0.52263116652E+01  0.49539312403E+02  0.00000000000E+00 0. -1.
         -5    1    3    3    0  503 -0.20871675717E+01 -0.10607694048E+02 -0.37413130936E+02  0.39226417220E+02  0.47000000000E+01 0.  1.
         13    1    4    4    0    0  0.10498721388E+03 -0.53402668511E+01  0.29036168419E+02  0.10905930774E+03  0.00000000000E+00 0. -1.
        -14    1    4    4    0    0  0.10355984184E+03 -0.10190088172E+03 -0.31615950013E+02  0.14868758803E+03  0.00000000000E+00 0.  1.
<mgrwt>
<rscale>  2 0.29406583E+03</rscale>
<asrwt>0</asrwt>
<pdfrwt beam="1">  1       21 0.47759041E-01 0.29426810E+03</pdfrwt>
<pdfrwt beam="2">  1       21 0.44125337E-01 0.29426810E+03</pdfrwt>
<totfact> 0.19653565E+04</totfact>
</mgrwt>
</event>
<event>
12    1  0.1019868E-001  0.2001176E+03  0.7546771E-02  0.1150672E+00
         21   -1    0    0  503  502  0.00000000000E+00  0.00000000000E+00  0.44583873834E+03  0.44583873834E+03  0.00000000000E+00 0.  1.
         21   -1    0    0  501  503 -0.00000000000E+00 -0.00000000000E+00 -0.87685544657E+02  0.87685544657E+02  0.00000000000E+00 0.  1.
          6    2    1    2  501    0 -0.78462087137E+02 -0.56122928492E+02  0.18502938970E+03  0.27254893096E+03  0.17533100837E+03 0.  0.
         24    2    3    3    0    0  0.94206349543E+01 -0.68389746732E+02  0.61039127591E+02  0.12000541989E+03  0.76874052095E+02 0.  0.
         -6    2    1    2    0  502  0.78462087137E+02  0.56122928492E+02  0.17312380398E+03  0.26097535204E+03  0.16979458367E+03 0.  0.
        -24    2    5    5    0    0  0.56201759292E+02 -0.32636855931E+02  0.93974696457E+02  0.13989483028E+03  0.80718757746E+02 0.  0.
          5    1    3    3  501    0 -0.87882722092E+02  0.12266818240E+02  0.12399026211E+03  0.15254351107E+03  0.47000000000E+01 0. -1.
        -11    1    4    4    0    0 -0.22097656982E+02 -0.38044034829E+02  0.62259818402E+02  0.76236080812E+02  0.00000000000E+00 0.  1.
         12    1    4    4    0    0  0.31518291936E+02 -0.30345711903E+02 -0.12206908107E+01  0.43769339080E+02  0.00000000000E+00 0. -1.
         -5    1    5    5    0  502  0.22260327845E+02  0.88759784423E+02  0.79149107528E+02  0.12108052176E+03  0.47000000000E+01 0.  1.
         13    1    6    6    0    0 -0.10663902658E+02  0.17108421463E+02  0.21159153218E+02  0.29225445587E+02  0.00000000000E+00 0. -1.
        -14    1    6    6    0    0  0.66865661950E+02 -0.49745277393E+02  0.72815543239E+02  0.11066938469E+03  0.00000000000E+00 0.  1.
<mgrwt>
<rscale>  2 0.19889837E+03</rscale>
<asrwt>0</asrwt>
<pdfrwt beam="1">  1       21 0.68590574E-01 0.20011758E+03</pdfrwt>
<pdfrwt beam="2">  1       21 0.13490084E-01 0.20011758E+03</pdfrwt>
<totfact> 0.91849207E+04</totfact>
</mgrwt>
</event>
<event>
12    1  0.1019868E-001  0.1772138E+03  0.7546771E-02  0.1170601E+00
         21   -1    0    0  501  502  0.00000000000E+00  0.00000000000E+00  0.36194158278E+03  0.36194158278E+03  0.00000000000E+00 0. -1.
         21   -1    0    0  502  503 -0.00000000000E+00 -0.00000000000E+00 -0.16624235131E+03  0.16624235131E+03  0.00000000000E+00 0. -1.
         -6    2    1    2    0  503 -0.35054616257E+02 -0.91522860718E+01 -0.84961484405E+02  0.19625750147E+03  0.17316455351E+03 0.  0.
        -24    2    3    3    0    0 -0.82434200636E+02  0.13120434499E+02 -0.84539538500E+02  0.14369166527E+03  0.80825848970E+02 0.  0.
          6    2    1    2  501    0  0.35054616257E+02  0.91522860718E+01  0.28066071588E+03  0.33192643262E+03  0.17347082975E+03 0.  0.
         24    2    5    5    0    0  0.61693721106E+02 -0.84581507374E+01  0.28316676714E+03  0.29955144714E+03  0.75299375381E+02 0.  0.
          5    1    5    5  501    0 -0.26639104849E+02  0.17610436809E+02 -0.25060512651E+01  0.32374985478E+02  0.47000000000E+01 0. -1.
        -13    1    6    6    0    0 -0.16854123204E+02 -0.88767291624E+01  0.61214144221E+02  0.64109509765E+02  0.00000000000E+00 0.  1.
         14    1    6    6    0    0  0.78547844310E+02  0.41857842497E+00  0.22195262292E+03  0.23544193738E+03  0.00000000000E+00 0. -1.
         -5    1    3    3    0  503  0.47379584379E+02 -0.22272720571E+02 -0.42194590490E+00  0.52565836205E+02  0.47000000000E+01 0.  1.
         11    1    4    4    0    0 -0.41432086402E+02 -0.53841835641E+01 -0.89166803289E+02  0.98469924470E+02  0.00000000000E+00 0. -1.
        -12    1    4    4    0    0 -0.41002114234E+02  0.18504618063E+02  0.46272647899E+01  0.45221740797E+02  0.00000000000E+00 0.  1.
<mgrwt>
<rscale>  2 0.17713877E+03</rscale>
<asrwt>0</asrwt>
<pdfrwt beam="1">  1       21 0.55683320E-01 0.17721377E+03</pdfrwt>
<pdfrwt beam="2">  1       21 0.25575746E-01 0.17721377E+03</pdfrwt>
<totfact> 0.44401702E+04</totfact>
</mgrwt>
</event>
<event>
12    1  0.1019868E-001  0.1812634E+03  0.7546771E-02  0.1166764E+00
         21   -1    0    0  503  502  0.00000000000E+00  0.00000000000E+00  0.58969501466E+03  0.58969501466E+03  0.00000000000E+00 0.  1.
         21   -1    0    0  501  503 -0.00000000000E+00 -0.00000000000E+00 -0.59730251383E+02  0.59730251383E+02  0.00000000000E+00 0.  1.
          6    2    1    2  501    0 -0.10076567763E+02  0.53178499892E+02  0.17896737310E+03  0.25472680676E+03  0.17299403278E+03 0.  0.
         24    2    3    3    0    0  0.45949605869E+01  0.99868320115E+02  0.14916905923E+03  0.19723574166E+03  0.81582685245E+02 0.  0.
         -6    2    1    2    0  502  0.10076567763E+02 -0.53178499892E+02  0.35099739018E+03  0.39469845929E+03  0.17221560842E+03 0.  0.
        -24    2    5    5    0    0 -0.29281034997E+02 -0.83340565671E+02  0.17416739772E+03  0.21098752510E+03  0.79865038799E+02 0.  0.
          5    1    3    3  501    0 -0.14671528350E+02 -0.46689820223E+02  0.29798313871E+02  0.57491065098E+02  0.47000000000E+01 0. -1.
        -13    1    4    4    0    0 -0.29397930258E+02  0.83981273498E+02  0.85897624425E+02  0.12367495496E+03  0.00000000000E+00 0.  1.
         14    1    4    4    0    0  0.33992890845E+02  0.15887046616E+02  0.63271434807E+02  0.73560786706E+02  0.00000000000E+00 0. -1.
         -5    1    5    5    0  502  0.39357602760E+02  0.30162065779E+02  0.17682999246E+03  0.18371093418E+03  0.47000000000E+01 0.  1.
         13    1    6    6    0    0 -0.53210646375E+02 -0.37969544964E+02  0.11818774617E+03  0.13506073663E+03  0.00000000000E+00 0. -1.
        -14    1    6    6    0    0  0.23929611378E+02 -0.45371020708E+02  0.55979651548E+02  0.75926788475E+02  0.00000000000E+00 0.  1.
<mgrwt>
<rscale>  2 0.18107744E+03</rscale>
<asrwt>0</asrwt>
<pdfrwt beam="1">  1       21 0.90722306E-01 0.18126341E+03</pdfrwt>
<pdfrwt beam="2">  1       21 0.91892698E-02 0.18126341E+03</pdfrwt>
<totfact> 0.97575615E+04</totfact>
</mgrwt>
</event>
<event>
12    1  0.1019868E-001  0.2002401E+03  0.7546771E-02  0.1149670E+00
         21   -1    0    0  501  502  0.00000000000E+00  0.00000000000E+00  0.18928196919E+04  0.18928196919E+04  0.00000000000E+00 0.  1.
         21   -1    0    0  502  503 -0.00000000000E+00 -0.00000000000E+00 -0.21516129456E+02  0.21516129456E+02  0.00000000000E+00 0. -1.
         -6    2    1    2    0  503  0.48222840220E+02 -0.88721915132E+02  0.80661075273E+03  0.83109385201E+03  0.17291345782E+03 0.  0.
        -24    2    3    3    0    0  0.96772586179E+02 -0.54123953446E+02  0.52279868952E+03  0.54104993463E+03  0.84393283100E+02 0.  0.
          6    2    1    2  501    0 -0.48222840220E+02  0.88721915132E+02  0.10646928097E+04  0.10832419694E+04  0.17217829289E+03 0.  0.
         24    2    5    5    0    0 -0.37266967804E+02  0.12722393375E+03  0.93895435308E+03  0.95120149807E+03  0.74660943914E+02 0.  0.
          5    1    5    5  501    0 -0.10955872416E+02 -0.38502018620E+02  0.12573845666E+03  0.13204047130E+03  0.47000000000E+01 0. -1.
        -13    1    6    6    0    0 -0.59208038087E+02  0.82437571808E+02  0.58273223981E+03  0.59150520567E+03  0.00000000000E+00 0.  1.
         14    1    6    6    0    0  0.21941070283E+02  0.44786361944E+02  0.35622211328E+03  0.35969629240E+03  0.00000000000E+00 0. -1.
         -5    1    3    3    0  503 -0.48549745960E+02 -0.34597961686E+02  0.28381206321E+03  0.29004391738E+03  0.47000000000E+01 0.  1.
         13    1    4    4    0    0  0.38193858199E+02 -0.56061659694E+02  0.39052015710E+03  0.39636810365E+03  0.00000000000E+00 0. -1.
        -14    1    4    4    0    0  0.58578727980E+02  0.19377062486E+01  0.13227853242E+03  0.14468183098E+03  0.00000000000E+00 0.  1.
<mgrwt>
<rscale>  2 0.20008125E+03</rscale>
<asrwt>0</asrwt>
<pdfrwt beam="1">  1       21 0.29120290E+00 0.20024007E+03</pdfrwt>
<pdfrwt beam="2">  1       21 0.33101753E-02 0.20024007E+03</pdfrwt>
<totfact> 0.20465246E+04</totfact>
</mgrwt>
</event>
<event>
12    1  0.1019868E-001  0.1740164E+03  0.7546771E-02  0.1173976E+00
         21   -1    0    0  503  502  0.00000000000E+00  0.00000000000E+00  0.19003625715E+03  0.19003625715E+03  0.00000000000E+00 0.  1.
         21   -1    0    0  501  503 -0.00000000000E+00 -0.00000000000E+00 -0.30965375918E+03  0.30965375918E+03  0.00000000000E+00 0.  1.
          6    2    1    2  501    0  0.77466697222E+01  0.11497967050E+02 -0.23431728546E+03  0.29127273262E+03  0.17246159098E+03 0.  0.
         24    2    3    3    0    0 -0.22321459916E+02  0.20289185561E+02 -0.24367836446E+03  0.25824096393E+03  0.79995946891E+02 0.  0.
         -6    2    1    2    0  502 -0.77466697222E+01 -0.11497967050E+02  0.11469978342E+03  0.20841728371E+03  0.17346328053E+03 0.  0.
        -24    2    5    5    0    0 -0.25944976219E+02  0.86996189238E+01 -0.59516045577E+01  0.84651503865E+02  0.79885107182E+02 0.  0.
          5    1    3    3  501    0  0.30068129638E+02 -0.87912185108E+01  0.93610790041E+01  0.33031768693E+02  0.47000000000E+01 0. -1.
        -11    1    4    4    0    0  0.23724056394E+02 -0.14451132635E+02 -0.75809650207E+02  0.80738894906E+02  0.00000000000E+00 0.  1.
         12    1    4    4    0    0 -0.46045516310E+02  0.34740318195E+02 -0.16786871426E+03  0.17750206902E+03  0.00000000000E+00 0. -1.
         -5    1    5    5    0  502  0.18198306497E+02 -0.20197585974E+02  0.12065138798E+03  0.12376577984E+03  0.47000000000E+01 0.  1.
         13    1    6    6    0    0 -0.50584723076E+02 -0.68025116664E+01  0.91548185504E+01  0.51854595518E+02  0.00000000000E+00 0. -1.
        -14    1    6    6    0    0  0.24639746857E+02  0.15502130590E+02 -0.15106423108E+02  0.32796908347E+02  0.00000000000E+00 0.  1.
<mgrwt>
<rscale>  2 0.17376629E+03</rscale>
<asrwt>0</asrwt>
<pdfrwt beam="1">  1       21 0.29236348E-01 0.17401645E+03</pdfrwt>
<pdfrwt beam="2">  1       21 0.47639039E-01 0.17401645E+03</pdfrwt>
<totfact> 0.47635418E+04</totfact>
</mgrwt>
</event>
<event>
12    1  0.1019868E-001  0.1889149E+03  0.7546771E-02  0.1160057E+00
         21   -1    0    0  503  502  0.00000000000E+00  0.00000000000E+00  0.42234941661E+03  0.42234941661E+03  0.00000000000E+00 0.  1.
         21   -1    0    0  501  503 -0.00000000000E+00 -0.00000000000E+00 -0.90103881967E+02  0.90103881967E+02  0.00000000000E+00 0.  1.
          6    2    1    2  501    0  0.36251011445E+02  0.64459315307E+02  0.94654709974E+02  0.20891045522E+03  0.17092374036E+03 0.  0.
         24    2    3    3    0    0  0.15062736334E+02 -0.22677195036E+02  0.10118992144E+02  0.85581253376E+02  0.80502271563E+02 0.  0.
         -6    2    1    2    0  502 -0.36251011445E+02 -0.64459315307E+02  0.23759082467E+03  0.30354284336E+03  0.17383819669E+03 0.  0.
        -24    2    5    5    0    0 -0.76176572420E+02  0.19286601542E+01  0.12899320460E+03  0.17006270705E+03  0.80470414321E+02 0.  0.
          5    1    3    3  501    0  0.21188275112E+02  0.87136510344E+02  0.84535717830E+02  0.12332920184E+03  0.47000000000E+01 0. -1.
        -13    1    4    4    0    0 -0.92934282353E+01 -0.46901855854E+02 -0.49504670298E+01  0.48069314690E+02  0.00000000000E+00 0.  1.
         14    1    4    4    0    0  0.24356164569E+02  0.24224660818E+02  0.15069459174E+02  0.37511938687E+02  0.00000000000E+00 0. -1.
         -5    1    5    5    0  502  0.39925560974E+02 -0.66387975462E+02  0.10859762007E+03  0.13348013631E+03  0.47000000000E+01 0.  1.
         11    1    6    6    0    0 -0.53527668538E+02 -0.24106258020E+02  0.31457455626E+02  0.66602511134E+02  0.00000000000E+00 0. -1.
        -12    1    6    6    0    0 -0.22648903881E+02  0.26034918174E+02  0.97535748973E+02  0.10346019592E+03  0.00000000000E+00 0.  1.
<mgrwt>
<rscale>  2 0.18824177E+03</rscale>
<asrwt>0</asrwt>
<pdfrwt beam="1">  1       21 0.64976832E-01 0.18891495E+03</pdfrwt>
<pdfrwt beam="2">  1       21 0.13862136E-01 0.18891495E+03</pdfrwt>
<totfact> 0.98881409E+04</totfact>
</mgrwt>
</event>
<event>
12    1  0.1019868E-001  0.2339053E+03  0.7546771E-02  0.1124311E+00
         21   -1    0    0  501  502  0.00000000000E+00  0.00000000000E+00  0.10593202562E+04  0.10593202562E+04  0.00000000000E+00 0.  1.
         21   -1    0    0  502  503 -0.00000000000E+00 -0.00000000000E+00 -0.54002899551E+02  0.54002899551E+02  0.00000000000E+00 0. -1.
         -6    2    1    2    0  503 -0.15279962688E+03 -0.18075695682E+02  0.37243064087E+03  0.43859558177E+03  0.17316767984E+03 0.  0.
        -24    2    3    3    0    0 -0.17968454470E+03 -0.28863621143E+02  0.34441097995E+03  0.39802010223E+03  0.81740041828E+02 0.  0.
          6    2    1    2  501    0  0.15279962688E+03  0.18075695682E+02  0.63288671574E+03  0.67472757394E+03  0.17617391217E+03 0.  0.
         24    2    5    5    0    0  0.13913806196E+03  0.69540808487E+02  0.54444779334E+03  0.57138915327E+03  0.76595303171E+02 0.  0.
          5    1    5    5  501    0  0.13661564915E+02 -0.51465112805E+02  0.88438922404E+02  0.10333842068E+03  0.47000000000E+01 0. -1.
        -13    1    6    6    0    0  0.15001326071E+01  0.26238155558E+02  0.12751207196E+03  0.13019224132E+03  0.00000000000E+00 0.  1.
         14    1    6    6    0    0  0.13763792936E+03  0.43302652929E+02  0.41693572138E+03  0.44119691194E+03  0.00000000000E+00 0. -1.
         -5    1    3    3    0  503  0.26884917822E+02  0.10787925462E+02  0.28019660918E+02  0.40575479542E+02  0.47000000000E+01 0.  1.
         13    1    4    4    0    0 -0.82991497869E+02  0.17481251740E+02  0.20716608885E+03  0.22385479948E+03  0.00000000000E+00 0. -1.
        -14    1    4    4    0    0 -0.96693046830E+02 -0.46344872883E+02  0.13724489110E+03  0.17416530274E+03  0.00000000000E+00 0.  1.
<mgrwt>
<rscale>  2 0.23333933E+03</rscale>
<asrwt>0</asrwt>
<pdfrwt beam="1">  1       21 0.16297233E+00 0.23390533E+03</pdfrwt>
<pdfrwt beam="2">  1       21 0.83081392E-02 0.23390533E+03</pdfrwt>
<totfact> 0.26221088E+04</totfact>
</mgrwt>
</event>
<event>
12    1  0.1019868E-001  0.2297816E+03  0.7546771E-02  0.1127155E+00
         21   -1    0    0  503  502  0.00000000000E+00  0.00000000000E+00  0.70249514668E+02  0.70249514668E+02  0.00000000000E+00 0.  1.
         21   -1    0    0  501  503 -0.00000000000E+00 -0.00000000000E+00 -0.84127919742E+03  0.84127919742E+03  0.00000000000E+00 0.  1.
          6    2    1    2  501    0 -0.14213413771E+03 -0.40773974147E+02 -0.54126860902E+03  0.58802320608E+03  0.17588335255E+03 0.  0.
         24    2    3    3    0    0 -0.16828606874E+02 -0.41396212331E+02 -0.31726951316E+03  0.33131413303E+03  0.84334230058E+02 0.  0.
         -6    2    1    2    0  502  0.14213413771E+03  0.40773974147E+02 -0.22976107373E+03  0.32350550601E+03  0.17320805797E+03 0.  0.
        -24    2    5    5    0    0  0.25392733097E+02  0.46371015069E+02 -0.16208453111E+03  0.18836821716E+03  0.80100737050E+02 0.  0.
          5    1    3    3  501    0 -0.12530553083E+03  0.62223818401E+00 -0.22399909586E+03  0.25670907304E+03  0.47000000000E+01 0. -1.
        -11    1    4    4    0    0 -0.44874296787E+02 -0.43576913435E+00 -0.12783213152E+03  0.13548042758E+03  0.00000000000E+00 0.  1.
         12    1    4    4    0    0  0.28045689912E+02 -0.40960443197E+02 -0.18943738164E+03  0.19583370546E+03  0.00000000000E+00 0. -1.
         -5    1    5    5    0  502  0.11674140461E+03 -0.55970409224E+01 -0.67676542617E+02  0.13513728885E+03  0.47000000000E+01 0.  1.
         13    1    6    6    0    0 -0.15073199090E+02  0.66093927468E+01  0.19316188960E+00  0.16459730095E+02  0.00000000000E+00 0. -1.
        -14    1    6    6    0    0  0.40465932187E+02  0.39761622323E+02 -0.16227769300E+03  0.17190848706E+03  0.00000000000E+00 0.  1.
<mgrwt>
<rscale>  2 0.22926958E+03</rscale>
<asrwt>0</asrwt>
<pdfrwt beam="1">  1       21 0.10807617E-01 0.22978160E+03</pdfrwt>
<pdfrwt beam="2">  1       21 0.12942757E+00 0.22978160E+03</pdfrwt>
<totfact> 0.30261275E+04</totfact>
</mgrwt>
</event>
<event>
12    1  0.1019868E-001  0.3511638E+03  0.7546771E-02  0.1062322E+00
         21   -1    0    0  501  502  0.00000000000E+00  0.00000000000E+00  0.51409859353E+03  0.51409859353E+03  0.00000000000E+00 0.  1.
         21   -1    0    0  502  503 -0.00000000000E+00 -0.00000000000E+00 -0.39733820325E+03  0.39733820325E+03  0.00000000000E+00 0. -1.
         -6    2    1    2    0  503 -0.84280630933E+02 -0.29198804323E+03 -0.22953208721E+03  0.41952469820E+03  0.17594246560E+03 0.  0.
        -24    2    3    3    0    0  0.71182934454E+01 -0.21862777501E+03 -0.13330661678E+03  0.26781140449E+03  0.78125029189E+02 0.  0.
          6    2    1    2  501    0  0.84280630933E+02  0.29198804323E+03  0.34629247749E+03  0.49191209859E+03  0.17233337062E+03 0.  0.
         24    2    5    5    0    0 -0.22349263747E+02  0.13662292259E+03  0.15843510689E+03  0.22579044062E+03  0.81940999575E+02 0.  0.
          5    1    5    5  501    0  0.10662989468E+03  0.15536512064E+03  0.18785737060E+03  0.26612165797E+03  0.47000000000E+01 0. -1.
        -13    1    6    6    0    0  0.29779373718E+02  0.53911012569E+02  0.76626356877E+02  0.98309749992E+02  0.00000000000E+00 0.  1.
         14    1    6    6    0    0 -0.52128637466E+02  0.82711910023E+02  0.81808750013E+02  0.12748069063E+03  0.00000000000E+00 0. -1.
         -5    1    3    3    0  503 -0.91398924378E+02 -0.73360268217E+02 -0.96225470430E+02  0.15171329371E+03  0.47000000000E+01 0.  1.
         13    1    4    4    0    0 -0.13527620115E+02 -0.60811540168E+02 -0.76861191932E+02  0.98937772103E+02  0.00000000000E+00 0. -1.
        -14    1    4    4    0    0  0.20645913560E+02 -0.15781623485E+03 -0.56445424852E+02  0.16887363238E+03  0.00000000000E+00 0.  1.
<mgrwt>
<rscale>  2 0.35071434E+03</rscale>
<asrwt>0</asrwt>
<pdfrwt beam="1">  1       21 0.79092092E-01 0.35116377E+03</pdfrwt>
<pdfrwt beam="2">  1       21 0.61128954E-01 0.35116377E+03</pdfrwt>
<totfact> 0.31841927E+03</totfact>
</mgrwt>
</event>
<event>
12    1  0.1019868E-001  0.2253552E+03  0.7546771E-02  0.1130016E+00
         21   -1    0    0  501  502  0.00000000000E+00  0.00000000000E+00  0.17010869483E+03  0.17010869483E+03  0.00000000000E+00 0.  1.
         21   -1    0    0  502  503 -0.00000000000E+00 -0.00000000000E+00 -0.51740160477E+03  0.51740160477E+03  0.00000000000E+00 0.  1.
         -6    2    1    2    0  503 -0.13290727499E+03  0.58218500754E+02 -0.39737834111E+03  0.45665644466E+03  0.17196460360E+03 0.  0.
        -24    2    3    3    0    0 -0.74966538771E+02  0.10126668097E+03 -0.22413345663E+03  0.26891685179E+03  0.78775276477E+02 0.  0.
          6    2    1    2  501    0  0.13290727499E+03 -0.58218500754E+02  0.50085431177E+02  0.23085385494E+03  0.17242741763E+03 0.  0.
         24    2    5    5    0    0  0.79333595259E+02 -0.94069015725E+02  0.70170174886E+02  0.16317161566E+03  0.80983477688E+02 0.  0.
          5    1    5    5  501    0  0.53573679730E+02  0.35850514971E+02 -0.20084743710E+02  0.67682239276E+02  0.47000000000E+01 0. -1.
        -11    1    6    6    0    0 -0.11990813636E+02  0.34212828939E+01  0.12548782384E+02  0.17690583021E+02  0.00000000000E+00 0.  1.
         12    1    6    6    0    0  0.91324408895E+02 -0.97490298619E+02  0.57621392502E+02  0.14548103264E+03  0.00000000000E+00 0. -1.
         -5    1    3    3    0  503 -0.57940736218E+02 -0.43048180221E+02 -0.17324488448E+03  0.18773959287E+03  0.47000000000E+01 0.  1.
         11    1    4    4    0    0 -0.67155785410E+02  0.38572141893E+02 -0.79003035703E+02  0.11063086954E+03  0.00000000000E+00 0. -1.
        -12    1    4    4    0    0 -0.78107533611E+01  0.62694539082E+02 -0.14513042093E+03  0.15828598225E+03  0.00000000000E+00 0.  1.
<mgrwt>
<rscale>  2 0.22526664E+03</rscale>
<asrwt>0</asrwt>
<pdfrwt beam="1">  1       21 0.26170568E-01 0.22535517E+03</pdfrwt>
<pdfrwt beam="2">  1       21 0.79600247E-01 0.22535517E+03</pdfrwt>
<totfact> 0.18933871E+04</totfact>
</mgrwt>
</event>
<event>
12    1  0.1019868E-001  0.1773241E+03  0.7546771E-02  0.1170628E+00
         21   -1    0    0  501  502  0.00000000000E+00  0.00000000000E+00  0.70382422560E+02  0.70382422560E+02  0.00000000000E+00 0. -1.
         21   -1    0    0  502  503 -0.00000000000E+00 -0.00000000000E+00 -0.61367338261E+03  0.61367338261E+03  0.00000000000E+00 0. -1.
         -6    2    1    2    0  503 -0.34926089681E+02  0.16220315300E+02 -0.45068819776E+03  0.48400799878E+03  0.17222357829E+03 0.  0.
        -24    2    3    3    0    0  0.10195754279E+02  0.49350426912E+02 -0.38887919536E+03  0.40048537984E+03  0.81376242466E+02 0.  0.
          6    2    1    2  501    0  0.34926089681E+02 -0.16220315300E+02 -0.92602762292E+02  0.20004780639E+03  0.17309223809E+03 0.  0.
         24    2    5    5    0    0  0.47990482164E+02  0.50813173272E+02 -0.76538569359E+02  0.12973198146E+03  0.78020314388E+02 0.  0.
          5    1    5    5  501    0 -0.13064392484E+02 -0.67033488572E+02 -0.16064192933E+02  0.70315824930E+02  0.47000000000E+01 0. -1.
        -11    1    6    6    0    0  0.32669327344E+02  0.37375318879E+02  0.90798740228E+00  0.49649006552E+02  0.00000000000E+00 0.  1.
         12    1    6    6    0    0  0.15321154820E+02  0.13437854393E+02 -0.77446556762E+02  0.80082974907E+02  0.00000000000E+00 0. -1.
         -5    1    3    3    0  503 -0.45121843959E+02 -0.33130111613E+02 -0.61809002395E+02  0.83522618941E+02  0.47000000000E+01 0.  1.
         13    1    4    4    0    0 -0.24487140749E+02  0.55336130615E+02 -0.24334902300E+03  0.25075975437E+03  0.00000000000E+00 0. -1.
        -14    1    4    4    0    0  0.34682895027E+02 -0.59857037030E+01 -0.14553017236E+03  0.14972562547E+03  0.00000000000E+00 0.  1.
<mgrwt>
<rscale>  2 0.17711181E+03</rscale>
<asrwt>0</asrwt>
<pdfrwt beam="1">  1       21 0.10828065E-01 0.17732415E+03</pdfrwt>
<pdfrwt beam="2">  1       21 0.94411291E-01 0.17732415E+03</pdfrwt>
<totfact> 0.66713171E+04</totfact>
</mgrwt>
</event>
<event>
12    1  0.1019868E-001  0.1912928E+03  0.7546771E-02  0.1157670E+00
         21   -1    0    0  503  502  0.00000000000E+00  0.00000000000E+00  0.30910365832E+03  0.30910365832E+03  0.00000000000E+00 0. -1.
         21   -1    0    0  501  503 -0.00000000000E+00 -0.00000000000E+00 -0.11910747316E+03  0.11910747316E+03  0.00000000000E+00 0. -1.
          6    2    1    2  501    0  0.65914270142E+02  0.43089097654E+02  0.69522438733E+02  0.20353449848E+03  0.17433175626E+03 0.  0.
         24    2    3    3    0    0  0.15533042817E+02  0.28172002685E+02  0.10449636459E+03  0.14024110800E+03  0.87824489776E+02 0.  0.
         -6    2    1    2    0  502 -0.65914270142E+02 -0.43089097654E+02  0.12047374642E+03  0.22467663300E+03  0.17252334478E+03 0.  0.
        -24    2    5    5    0    0 -0.14188338763E+02 -0.51465509357E+02  0.14396251702E+03  0.16706110910E+03  0.65834643280E+02 0.  0.
          5    1    3    3  501    0  0.50381227325E+02  0.14917094969E+02 -0.34973925860E+02  0.63293390486E+02  0.47000000000E+01 0. -1.
        -13    1    4    4    0    0 -0.36408162017E+02  0.17698347516E+02  0.47809139422E+02  0.62645826505E+02  0.00000000000E+00 0.  1.
         14    1    4    4    0    0  0.51941204833E+02  0.10473655169E+02  0.56687225172E+02  0.77595281492E+02  0.00000000000E+00 0. -1.
         -5    1    5    5    0  502 -0.51725931379E+02  0.83764117034E+01 -0.23488770597E+02  0.57615523899E+02  0.47000000000E+01 0.  1.
         13    1    6    6    0    0 -0.17802021113E+02 -0.40760348348E+02  0.14840010824E+03  0.15492227109E+03  0.00000000000E+00 0. -1.
        -14    1    6    6    0    0  0.36136823504E+01 -0.10705161009E+02 -0.44375912210E+01  0.12138838009E+02  0.00000000000E+00 0.  1.
<mgrwt>
<rscale>  2 0.19087978E+03</rscale>
<asrwt>0</asrwt>
<pdfrwt beam="1">  1       21 0.47554409E-01 0.19129277E+03</pdfrwt>
<pdfrwt beam="2">  1       21 0.18324227E-01 0.19129277E+03</pdfrwt>
<totfact> 0.11493017E+05</totfact>
</mgrwt>
</event>
<event>
12    1  0.1019868E-001  0.2017596E+03  0.7546771E-02  0.1151162E+00
         21   -1    0    0  501  502  0.00000000000E+00  0.00000000000E+00  0.10007281302E+04  0.10007281302E+04  0.00000000000E+00 0.  1.
         21   -1    0    0  502  503 -0.00000000000E+00 -0.00000000000E+00 -0.73889776405E+02  0.73889776405E+02  0.00000000000E+00 0. -1.
         -6    2    1    2    0  503  0.18729716894E+02  0.70900566443E+02  0.97360299684E+02  0.22402219745E+03  0.18796069903E+03 0.  0.
        -24    2    3    3    0    0 -0.21415709915E+02  0.83554133588E+02  0.12914476822E+01  0.11903132937E+03  0.82017459512E+02 0.  0.
          6    2    1    2  501    0 -0.18729716894E+02 -0.70900566443E+02  0.82947805416E+03  0.85059570920E+03  0.17349791226E+03 0.  0.
         24    2    5    5    0    0 -0.19813338094E+02 -0.10129269222E+03  0.78894993981E+03  0.79970883862E+03  0.80246128756E+02 0.  0.
          5    1    5    5  501    0  0.10836211995E+01  0.30392125780E+02  0.40528114347E+02  0.50886870575E+02  0.47000000000E+01 0. -1.
        -11    1    6    6    0    0 -0.17332283084E+02 -0.47731435546E+02  0.62826700154E+03  0.63031589159E+03  0.00000000000E+00 0.  1.
         12    1    6    6    0    0 -0.24810550100E+01 -0.53561256676E+02  0.16068293827E+03  0.16939294703E+03  0.00000000000E+00 0. -1.
         -5    1    3    3    0  503  0.40145426809E+02 -0.12653567145E+02  0.96068852001E+02  0.10499086808E+03  0.47000000000E+01 0.  1.
         11    1    4    4    0    0 -0.20349548572E+02  0.34914348628E+02  0.39999364841E+02  0.56860047968E+02  0.00000000000E+00 0. -1.
        -12    1    4    4    0    0 -0.10661613426E+01  0.48639784960E+02 -0.38707917159E+02  0.62171281407E+02  0.00000000000E+00 0.  1.
<mgrwt>
<rscale>  2 0.19832266E+03</rscale>
<asrwt>0</asrwt>
<pdfrwt beam="1">  1       21 0.15395816E+00 0.20175955E+03</pdfrwt>
<pdfrwt beam="2">  1       21 0.11367659E-01 0.20175955E+03</pdfrwt>
<totfact> 0.17922102E+04</totfact>
</mgrwt>
</event>
<event>
12    1  0.1019868E-001  0.2091454E+03  0.7546771E-02  0.1142361E+00
         21   -1    0    0  501  502  0.00000000000E+00  0.00000000000E+00  0.87836661862E+03  0.87836661862E+03  0.00000000000E+00 0. -1.
         21   -1    0    0  502  503 -0.00000000000E+00 -0.00000000000E+00 -0.61000636171E+02  0.61000636171E+02  0.00000000000E+00 0. -1.
         -6    2    1    2    0  503  0.84606953789E+02  0.80645382376E+02  0.20663134283E+03  0.29400396237E+03  0.17343530125E+03 0.  0.
        -24    2    3    3    0    0  0.77577218834E+02  0.19511124003E+01  0.58365007607E+02  0.12593492459E+03  0.80194135671E+02 0.  0.
          6    2    1    2  501    0 -0.84606953789E+02 -0.80645382376E+02  0.61073463962E+03  0.64536329243E+03  0.17272800829E+03 0.  0.
         24    2    5    5    0    0 -0.11329532148E+03 -0.19834686368E+02  0.46939759977E+03  0.48877717547E+03  0.73073770509E+02 0.  0.
          5    1    5    5  501    0  0.28688367687E+02 -0.60810696008E+02  0.14133703986E+03  0.15658611696E+03  0.47000000000E+01 0. -1.
        -13    1    6    6    0    0 -0.55951928518E+02  0.26750651025E+02  0.19641786408E+03  0.20597619514E+03  0.00000000000E+00 0.  1.
         14    1    6    6    0    0 -0.57343392958E+02 -0.46585337394E+02  0.27297973569E+03  0.28280098032E+03  0.00000000000E+00 0. -1.
         -5    1    3    3    0  503  0.70297349549E+01  0.78694269976E+02  0.14826633522E+03  0.16806903778E+03  0.47000000000E+01 0.  1.
         13    1    4    4    0    0 -0.23414867917E+01  0.26465103204E+02  0.23102055482E+02  0.35207800492E+02  0.00000000000E+00 0. -1.
        -14    1    4    4    0    0  0.79918705626E+02 -0.24513990803E+02  0.35262952125E+02  0.90727124095E+02  0.00000000000E+00 0.  1.
<mgrwt>
<rscale>  2 0.20899875E+03</rscale>
<asrwt>0</asrwt>
<pdfrwt beam="1">  1       21 0.13513332E+00 0.20914545E+03</pdfrwt>
<pdfrwt beam="2">  1       21 0.93847139E-02 0.20914545E+03</pdfrwt>
<totfact> 0.35222859E+04</totfact>
</mgrwt>
</event>
<event>
12    1  0.1019868E-001  0.2053320E+03  0.7546771E-02  0.1145475E+00
         21   -1    0    0  501  502  0.00000000000E+00  0.00000000000E+00  0.11672251959E+04  0.11672251959E+04  0.00000000000E+00 0.  1.
         21   -1    0    0  502  503 -0.00000000000E+00 -0.00000000000E+00 -0.50884678959E+02  0.50884678959E+02  0.00000000000E+00 0.  1.
         -6    2    1    2    0  503 -0.10811561077E+03  0.16312464975E+02  0.88699770046E+03  0.91027978828E+03  0.17288519462E+03 0.  0.
        -24    2    3    3    0    0 -0.11896039155E+03  0.30089422806E+02  0.87719197226E+03  0.88964835249E+03  0.83375576554E+02 0.  0.
          6    2    1    2  501    0  0.10811561077E+03 -0.16312464975E+02  0.22934281648E+03  0.30783008658E+03  0.17379917413E+03 0.  0.
         24    2    5    5    0    0  0.15948333106E+02  0.53855566896E+02  0.12490113702E+03  0.15178998219E+03  0.65460929194E+02 0.  0.
          5    1    5    5  501    0  0.92167277664E+02 -0.70168031871E+02  0.10444167946E+03  0.15604010439E+03  0.47000000000E+01 0. -1.
        -13    1    6    6    0    0  0.39265664529E+02  0.48259088708E+02  0.87574983184E+02  0.10742490276E+03  0.00000000000E+00 0.  1.
         14    1    6    6    0    0 -0.23317331422E+02  0.55964781881E+01  0.37326153836E+02  0.44365079432E+02  0.00000000000E+00 0. -1.
         -5    1    3    3    0  503  0.10844780781E+02 -0.13776957831E+02  0.98057282034E+01  0.20631435792E+02  0.47000000000E+01 0.  1.
         11    1    4    4    0    0 -0.37122623824E-01  0.29317695617E+02  0.18745056879E+03  0.18972939781E+03  0.00000000000E+00 0. -1.
        -12    1    4    4    0    0 -0.11892326893E+03  0.77172718897E+00  0.68974140347E+03  0.69991895468E+03  0.00000000000E+00 0.  1.
<mgrwt>
<rscale>  2 0.20513848E+03</rscale>
<asrwt>0</asrwt>
<pdfrwt beam="1">  1       21 0.17957309E+00 0.20533201E+03</pdfrwt>
<pdfrwt beam="2">  1       21 0.78284130E-02 0.20533201E+03</pdfrwt>
<totfact> 0.22624746E+04</totfact>
</mgrwt>
</event>
<event>
12    1  0.1019868E-001  0.2335235E+03  0.7546771E-02  0.1124502E+00
         21   -1    0    0  501  502  0.00000000000E+00  0.00000000000E+00  0.79463618115E+02  0.79463618115E+02  0.00000000000E+00 0.  1.
         21   -1    0    0  502  503 -0.00000000000E+00 -0.00000000000E+00 -0.70330697677E+03  0.70330697677E+03  0.00000000000E+00 0. -1.
         -6    2    1    2    0  503 -0.78681062623E+01  0.15423506459E+03 -0.38061939441E+03  0.44558942302E+03  0.17270914353E+03 0.  0.
        -24    2    3    3    0    0 -0.45701810432E+02  0.87076684604E+02 -0.32980146993E+03  0.35314382484E+03  0.79186785375E+02 0.  0.
          6    2    1    2  501    0  0.78681062623E+01 -0.15423506459E+03 -0.24322396425E+03  0.33718117187E+03  0.17516530373E+03 0.  0.
         24    2    5    5    0    0 -0.19368022858E+01 -0.50741097666E+02 -0.20604360252E+03  0.22667503303E+03  0.79681831473E+02 0.  0.
          5    1    5    5  501    0  0.98049085481E+01 -0.10349396693E+03 -0.37180361729E+02  0.11050613883E+03  0.47000000000E+01 0. -1.
        -11    1    6    6    0    0 -0.18883510544E+02  0.12495159937E+02 -0.22998269299E+02  0.32274392064E+02  0.00000000000E+00 0.  1.
         12    1    6    6    0    0  0.16946708259E+02 -0.63236257603E+02 -0.18304533322E+03  0.19440064097E+03  0.00000000000E+00 0. -1.
         -5    1    3    3    0  503  0.37833704170E+02  0.67158379988E+02 -0.50817924481E+02  0.92445598177E+02  0.47000000000E+01 0.  1.
         11    1    4    4    0    0 -0.71492644704E+01 -0.87485531504E+01 -0.10665008178E+03  0.10724686060E+03  0.00000000000E+00 0. -1.
        -12    1    4    4    0    0 -0.38552545962E+02  0.95825237755E+02 -0.22315138815E+03  0.24589696424E+03  0.00000000000E+00 0.  1.
<mgrwt>
<rscale>  2 0.23306302E+03</rscale>
<asrwt>0</asrwt>
<pdfrwt beam="1">  1       21 0.12225173E-01 0.23352354E+03</pdfrwt>
<pdfrwt beam="2">  1       21 0.10820107E+00 0.23352354E+03</pdfrwt>
<totfact> 0.37763209E+04</totfact>
</mgrwt>
</event>
<event>
12    1  0.1019868E-001  0.2304882E+03  0.7546771E-02  0.1126329E+00
         21   -1    0    0  501  502  0.00000000000E+00  0.00000000000E+00  0.15233541860E+04  0.15233541860E+04  0.00000000000E+00 0. -1.
         21   -1    0    0  502  503 -0.00000000000E+00 -0.00000000000E+00 -0.42446343784E+02  0.42446343784E+02  0.00000000000E+00 0.  1.
         -6    2    1    2    0  503  0.97410059723E+02 -0.11671948909E+03  0.40940128993E+03  0.46982361006E+03  0.17324159289E+03 0.  0.
        -24    2    3    3    0    0  0.10525134960E+03 -0.22615237848E+02  0.24540444495E+03  0.28052450523E+03  0.82953968291E+02 0.  0.
          6    2    1    2  501    0 -0.97410059723E+02  0.11671948909E+03  0.10715065523E+04  0.10959769197E+04  0.17299409846E+03 0.  0.
         24    2    5    5    0    0 -0.37708555439E+02  0.14017012282E+03  0.78711464510E+03  0.80440351779E+03  0.80286713916E+02 0.  0.
          5    1    5    5  501    0 -0.59701504283E+02 -0.23450633730E+02  0.28439190716E+03  0.29157340189E+03  0.47000000000E+01 0. -1.
        -13    1    6    6    0    0  0.18716556188E+02  0.97141025042E+01  0.61953437736E+02  0.65443882146E+02  0.00000000000E+00 0.  1.
         14    1    6    6    0    0 -0.56425111627E+02  0.13045602031E+03  0.72516120736E+03  0.73895963565E+03  0.00000000000E+00 0. -1.
         -5    1    3    3    0  503 -0.78412898763E+01 -0.94104251240E+02  0.16399684497E+03  0.18929910483E+03  0.47000000000E+01 0.  1.
         13    1    4    4    0    0  0.14531214114E+02  0.27833360937E+02  0.45597511238E+02  0.55362308440E+02  0.00000000000E+00 0. -1.
        -14    1    4    4    0    0  0.90720135485E+02 -0.50448598785E+02  0.19980693372E+03  0.22516219679E+03  0.00000000000E+00 0.  1.
<mgrwt>
<rscale>  2 0.23044169E+03</rscale>
<asrwt>0</asrwt>
<pdfrwt beam="1">  1       21 0.23436214E+00 0.23048820E+03</pdfrwt>
<pdfrwt beam="2">  1       21 0.65302079E-02 0.23048820E+03</pdfrwt>
<totfact> 0.13604648E+04</totfact>
</mgrwt>
</event>
<event>
12    1  0.1019868E-001  0.2015432E+03  0.7546771E-02  0.1148736E+00
         21   -1    0    0  501  502  0.00000000000E+00  0.00000000000E+00  0.54157712131E+02  0.54157712131E+02  0.00000000000E+00 0. -1.
         21   -1    0    0  502  503 -0.00000000000E+00 -0.00000000000E+00 -0.12513233847E+04  0.12513233847E+04  0.00000000000E+00 0. -1.
         -6    2    1    2    0  503  0.43899031203E+01  0.10080432919E+03 -0.10150996165E+04  0.10349139461E+04  0.17446736175E+03 0.  0.
        -24    2    3    3    0    0 -0.68320998626E+02  0.58921498239E+02 -0.61620142310E+03  0.62725857022E+03  0.74897384973E+02 0.  0.
          6    2    1    2  501    0 -0.43899031203E+01 -0.10080432919E+03 -0.18206605602E+03  0.27056715071E+03  0.17285181589E+03 0.  0.
         24    2    5    5    0    0 -0.71045320941E+02 -0.43738268172E+02 -0.80917890582E+02  0.13658013113E+03  0.71735301443E+02 0.  0.
          5    1    5    5  501    0  0.66655417821E+02 -0.57066061020E+02 -0.10114816544E+03  0.13398701958E+03  0.47000000000E+01 0. -1.
        -11    1    6    6    0    0 -0.59113894951E+02 -0.22030273223E+02 -0.90247272206E+02  0.11011065187E+03  0.00000000000E+00 0.  1.
         12    1    6    6    0    0 -0.11931425990E+02 -0.21707994949E+02  0.93293816238E+01  0.26469479261E+02  0.00000000000E+00 0. -1.
         -5    1    3    3    0  503  0.72710901746E+02  0.41882830954E+02 -0.39889819341E+03  0.40765537586E+03  0.47000000000E+01 0.  1.
         11    1    4    4    0    0 -0.52406149301E+02  0.20549874547E+02 -0.51195053648E+03  0.51503597314E+03  0.00000000000E+00 0. -1.
        -12    1    4    4    0    0 -0.15914849325E+02  0.38371623692E+02 -0.10425088662E+03  0.11222259708E+03  0.00000000000E+00 0.  1.
<mgrwt>
<rscale>  2 0.20119303E+03</rscale>
<asrwt>0</asrwt>
<pdfrwt beam="1">  1       21 0.83319565E-02 0.20154316E+03</pdfrwt>
<pdfrwt beam="2">  1       21 0.19251127E+00 0.20154316E+03</pdfrwt>
<totfact> 0.16672852E+04</totfact>
</mgrwt>
</event>
<event>
12    1  0.1019868E-001  0.2059782E+03  0.7546771E-02  0.1145100E+00
         21   -1    0    0  503  502  0.00000000000E+00  0.00000000000E+00  0.96815491110E+03  0.96815491110E+03  0.00000000000E+00 0. -1.
         21   -1    0    0  501  503 -0.00000000000E+00 -0.00000000000E+00 -0.13102043064E+03  0.13102043064E+03  0.00000000000E+00 0. -1.
          6    2    1    2  501    0  0.16911251461E+02 -0.10761260930E+03 -0.31124417386E+02  0.20681860867E+03  0.17302815790E+03 0.  0.
         24    2    3    3    0    0  0.47732118623E+02 -0.21714801705E+02  0.25710677622E+02  0.99205053632E+02  0.80191744968E+02 0.  0.
         -6    2    1    2    0  502 -0.16911251461E+02  0.10761260930E+03  0.86825889785E+03  0.89235673307E+03  0.17481579237E+03 0.  0.
        -24    2    5    5    0    0 -0.56312541815E+02  0.11279516181E+02  0.43965157785E+03  0.45126847516E+03  0.83972596225E+02 0.  0.
          5    1    3    3  501    0 -0.30820867162E+02 -0.85897807600E+02 -0.56835095008E+02  0.10761355504E+03  0.47000000000E+01 0. -1.
        -13    1    4    4    0    0 -0.24159105455E+01 -0.39313126130E+01  0.43009051594E+02  0.43255870834E+02  0.00000000000E+00 0.  1.
         14    1    4    4    0    0  0.50148029168E+02 -0.17783489092E+02 -0.17298373971E+02  0.55949182798E+02  0.00000000000E+00 0. -1.
         -5    1    5    5    0  502  0.39401290355E+02  0.96333093124E+02  0.42860732000E+03  0.44108825791E+03  0.47000000000E+01 0.  1.
         13    1    6    6    0    0 -0.23033487118E+01 -0.31329060475E+02  0.10404682058E+03  0.10868558469E+03  0.00000000000E+00 0. -1.
        -14    1    6    6    0    0 -0.54009193104E+02  0.42608576656E+02  0.33560475727E+03  0.34258289047E+03  0.00000000000E+00 0.  1.
<mgrwt>
<rscale>  2 0.20559842E+03</rscale>
<asrwt>0</asrwt>
<pdfrwt beam="1">  1       21 0.14894690E+00 0.20597822E+03</pdfrwt>
<pdfrwt beam="2">  1       21 0.20156990E-01 0.20597822E+03</pdfrwt>
<totfact> 0.68536758E+03</totfact>
</mgrwt>
</event>
<event>
12    1  0.1019868E-001  0.2921944E+03  0.7546771E-02  0.1089380E+00
         21   -1    0    0  503  502  0.00000000000E+00  0.00000000000E+00  0.10022653099E+03  0.10022653099E+03  0.00000000000E+00 0. -1.
         21   -1    0    0  501  503 -0.00000000000E+00 -0.00000000000E+00 -0.11620726044E+04  0.11620726044E+04  0.00000000000E+00 0. -1.
          6    2    1    2  501    0  0.22847623207E+03  0.48574134616E+02 -0.85992500765E+03  0.90821174859E+03  0.17554693484E+03 0.  0.
         24    2    3    3    0    0  0.18896244325E+03  0.10010166423E+03 -0.69808039685E+03  0.73376349306E+03  0.73249403685E+02 0.  0.
         -6    2    1    2    0  502 -0.22847623207E+03 -0.48574134616E+02 -0.20192106577E+03  0.35408738681E+03  0.17333472105E+03 0.  0.
        -24    2    5    5    0    0 -0.19774614833E+03 -0.12801646728E+02 -0.89441800111E+02  0.23203131716E+03  0.81063402310E+02 0.  0.
          5    1    3    3  501    0  0.39513788817E+02 -0.51527529614E+02 -0.16184461080E+03  0.17444825554E+03  0.47000000000E+01 0. -1.
        -11    1    4    4    0    0  0.18389584500E+02  0.81694820440E+01 -0.17125704690E+03  0.17243518599E+03  0.00000000000E+00 0.  1.
         12    1    4    4    0    0  0.17057285875E+03  0.91932182185E+02 -0.52682334995E+03  0.56132830706E+03  0.00000000000E+00 0. -1.
         -5    1    5    5    0  502 -0.30730083732E+02 -0.35772487888E+02 -0.11247926566E+03  0.12205606965E+03  0.47000000000E+01 0.  1.
         13    1    6    6    0    0 -0.12666377442E+03 -0.40195231005E+02 -0.80402314912E+02  0.15531870650E+03  0.00000000000E+00 0. -1.
        -14    1    6    6    0    0 -0.71082373918E+02  0.27393584277E+02 -0.90394851993E+01  0.76712610658E+02  0.00000000000E+00 0.  1.
<mgrwt>
<rscale>  2 0.29186290E+03</rscale>
<asrwt>0</asrwt>
<pdfrwt beam="1">  1       21 0.15419465E-01 0.29219439E+03</pdfrwt>
<pdfrwt beam="2">  1       21 0.17878041E+00 0.29219439E+03</pdfrwt>
<totfact> 0.64508463E+03</totfact>
</mgrwt>
</event>
<event>
12    1  0.1019868E-001  0.1986993E+03  0.7546771E-02  0.1151392E+00
         21   -1    0    0  501  502  0.00000000000E+00  0.00000000000E+00  0.45773922094E+02  0.45773922094E+02  0.00000000000E+00 0. -1.
         21   -1    0    0  502  503 -0.00000000000E+00 -0.00000000000E+00 -0.16156761963E+04  0.16156761963E+04  0.00000000000E+00 0. -1.
         -6    2    1    2    0  503 -0.10085413143E+03  0.62089321516E+01 -0.13589976062E+04  0.13734467211E+04  0.17108856080E+03 0.  0.
        -24    2    3    3    0    0 -0.12898408109E+03 -0.20620984884E+02 -0.92674752174E+03  0.93942671701E+03  0.81237118307E+02 0.  0.
          6    2    1    2  501    0  0.10085413143E+03 -0.62089321516E+01 -0.21090466804E+03  0.28800339723E+03  0.16809244823E+03 0.  0.
         24    2    5    5    0    0  0.78092863148E+02 -0.53197150673E+02 -0.19903502381E+03  0.23425447661E+03  0.79572526633E+02 0.  0.
          5    1    5    5  501    0  0.22761268283E+02  0.46988218522E+02 -0.11869644226E+02  0.53748920619E+02  0.47000000000E+01 0. -1.
        -13    1    6    6    0    0  0.54518874725E+02 -0.73569698488E+02 -0.15952189026E+03  0.18393488443E+03  0.00000000000E+00 0.  1.
         14    1    6    6    0    0  0.23573988423E+02  0.20372547815E+02 -0.39513133551E+02  0.50319592185E+02  0.00000000000E+00 0. -1.
         -5    1    3    3    0  503  0.28129949658E+02  0.26829917035E+02 -0.43225008442E+03  0.43402000414E+03  0.47000000000E+01 0.  1.
         13    1    4    4    0    0 -0.94132375948E+02  0.16680791780E+02 -0.72701739617E+03  0.73327583306E+03  0.00000000000E+00 0. -1.
        -14    1    4    4    0    0 -0.34851705141E+02 -0.37301776664E+02 -0.19973012556E+03  0.20615088394E+03  0.00000000000E+00 0.  1.
<mgrwt>
<rscale>  2 0.19805266E+03</rscale>
<asrwt>0</asrwt>
<pdfrwt beam="1">  1       21 0.70421410E-02 0.19869928E+03</pdfrwt>
<pdfrwt beam="2">  1       21 0.24856560E+00 0.19869928E+03</pdfrwt>
<totfact> 0.10092117E+04</totfact>
</mgrwt>
</event>
<event>
12    1  0.1019868E-001  0.1964551E+03  0.7546771E-02  0.1152820E+00
         21   -1    0    0  503  502  0.00000000000E+00  0.00000000000E+00  0.43390707382E+02  0.43390707382E+02  0.00000000000E+00 0.  1.
         21   -1    0    0  501  503 -0.00000000000E+00 -0.00000000000E+00 -0.89661999302E+03  0.89661999302E+03  0.00000000000E+00 0.  1.
          6    2    1    2  501    0  0.78920432756E+02 -0.48327479185E+02 -0.47215962424E+03  0.51139936969E+03  0.17329346384E+03 0.  0.
         24    2    3    3    0    0  0.51289544043E+02 -0.93877347119E+02 -0.25765162881E+03  0.29032466154E+03  0.80377071617E+02 0.  0.
         -6    2    1    2    0  502 -0.78920432756E+02  0.48327479185E+02 -0.38106966140E+03  0.42861133071E+03  0.17300175150E+03 0.  0.
        -24    2    5    5    0    0 -0.12214195341E+03  0.39762132015E+02 -0.29491612371E+03  0.33173002665E+03  0.81053109957E+02 0.  0.
          5    1    3    3  501    0  0.27630888714E+02  0.45549867934E+02 -0.21450799543E+03  0.22107470815E+03  0.47000000000E+01 0. -1.
        -13    1    4    4    0    0  0.78655541752E+01 -0.79692194920E+02 -0.20785943559E+03  0.22275156079E+03  0.00000000000E+00 0.  1.
         14    1    4    4    0    0  0.43423989868E+02 -0.14185152199E+02 -0.49792193222E+02  0.67573100749E+02  0.00000000000E+00 0. -1.
         -5    1    5    5    0  502  0.43221520652E+02  0.85653471694E+01 -0.86153537689E+02  0.96881304058E+02  0.47000000000E+01 0.  1.
         11    1    6    6    0    0 -0.18122996885E+02 -0.45291595908E+01 -0.33053771163E+01  0.18970551404E+02  0.00000000000E+00 0. -1.
        -12    1    6    6    0    0 -0.10401895652E+03  0.44291291606E+02 -0.29161074659E+03  0.31275947525E+03  0.00000000000E+00 0.  1.
<mgrwt>
<rscale>  2 0.19639075E+03</rscale>
<asrwt>0</asrwt>
<pdfrwt beam="1">  1       21 0.66754933E-02 0.19645510E+03</pdfrwt>
<pdfrwt beam="2">  1       21 0.13794154E+00 0.19645510E+03</pdfrwt>
<totfact> 0.60911388E+04</totfact>
</mgrwt>
</event>
<event>
12    1  0.1019868E-001  0.1787172E+03  0.7546771E-02  0.1169188E+00
         21   -1    0    0  501  502  0.00000000000E+00  0.00000000000E+00  0.32282837371E+03  0.32282837371E+03  0.00000000000E+00 0.  1.
         21   -1    0    0  502  503 -0.00000000000E+00 -0.00000000000E+00 -0.16749335139E+03  0.16749335139E+03  0.00000000000E+00 0.  1.
         -6    2    1    2    0  503  0.75402238948E+01  0.42646558628E+02 -0.79462965192E+02  0.19558679967E+03  0.17339045368E+03 0.  0.
        -24    2    3    3    0    0  0.28801117031E+02  0.30612511516E+02 -0.11905943203E+03  0.14882341600E+03  0.78782171780E+02 0.  0.
          6    2    1    2  501    0 -0.75402238948E+01 -0.42646558628E+02  0.23479798750E+03  0.29473492543E+03  0.17280913573E+03 0.  0.
         24    2    5    5    0    0 -0.33715391154E+02 -0.89386969666E+02  0.16760272251E+03  0.20867042030E+03  0.79535613216E+02 0.  0.
          5    1    5    5  501    0  0.26175167260E+02  0.46740411038E+02  0.67195264995E+02  0.86064505127E+02  0.47000000000E+01 0. -1.
        -11    1    6    6    0    0  0.13658419434E+02 -0.61599987355E+02  0.12173321659E+03  0.13711340884E+03  0.00000000000E+00 0.  1.
         12    1    6    6    0    0 -0.47373810588E+02 -0.27786982311E+02  0.45869505923E+02  0.71557011461E+02  0.00000000000E+00 0. -1.
         -5    1    3    3    0  503 -0.21260893137E+02  0.12034047112E+02  0.39596466834E+02  0.46763383674E+02  0.47000000000E+01 0.  1.
         13    1    4    4    0    0  0.95730438491E+01 -0.89385654887E+01  0.73247930638E+01  0.15006455776E+02  0.00000000000E+00 0. -1.
        -14    1    4    4    0    0  0.19228073182E+02  0.39551077005E+02 -0.12638422509E+03  0.13381696022E+03  0.00000000000E+00 0.  1.
<mgrwt>
<rscale>  2 0.17857604E+03</rscale>
<asrwt>0</asrwt>
<pdfrwt beam="1">  1       21 0.49665904E-01 0.17871719E+03</pdfrwt>
<pdfrwt beam="2">  1       21 0.25768208E-01 0.17871719E+03</pdfrwt>
<totfact> 0.55590465E+04</totfact>
</mgrwt>
</event>
<event>
12    1  0.1019868E-001  0.1758715E+03  0.7546771E-02  0.1172323E+00
         21   -1    0    0  503  502  0.00000000000E+00  0.00000000000E+00  0.19809457556E+02  0.19809457556E+02  0.00000000000E+00 0.  1.
         21   -1    0    0  501  503 -0.00000000000E+00 -0.00000000000E+00 -0.15535458017E+04  0.15535458017E+04  0.00000000000E+00 0.  1.
          6    2    1    2  501    0 -0.90826715899E+00 -0.29467571073E+02 -0.82098243538E+03  0.83922384297E+03  0.17150899891E+03 0.  0.
         24    2    3    3    0    0  0.46566810405E+02 -0.53632862460E+02 -0.68099875098E+03  0.68937269617E+03  0.80190171625E+02 0.  0.
         -6    2    1    2    0  502  0.90826715899E+00  0.29467571073E+02 -0.71275390878E+03  0.73413141630E+03  0.17338292658E+03 0.  0.
        -24    2    5    5    0    0 -0.31712541176E+02 -0.20185085566E+02 -0.23488847317E+03  0.25256421643E+03  0.84870287166E+02 0.  0.
          5    1    3    3  501    0 -0.47475077564E+02  0.24165291386E+02 -0.13998368440E+03  0.14985114679E+03  0.47000000000E+01 0. -1.
        -13    1    4    4    0    0 -0.58981725002E+01 -0.53050862579E+02 -0.29028581060E+03  0.29515256105E+03  0.00000000000E+00 0.  1.
         14    1    4    4    0    0  0.52464982905E+02 -0.58199988067E+00 -0.39071294038E+03  0.39422013512E+03  0.00000000000E+00 0. -1.
         -5    1    5    5    0  502  0.32620808335E+02  0.49652656639E+02 -0.47786543561E+03  0.48156719987E+03  0.47000000000E+01 0.  1.
         13    1    6    6    0    0  0.10685311615E+02 -0.36957218239E+01  0.18830341247E+01  0.11462114186E+02  0.00000000000E+00 0. -1.
        -14    1    6    6    0    0 -0.42397852790E+02 -0.16489363742E+02 -0.23677150730E+03  0.24110210224E+03  0.00000000000E+00 0.  1.
<mgrwt>
<rscale>  2 0.17540794E+03</rscale>
<asrwt>0</asrwt>
<pdfrwt beam="1">  1       21 0.30476084E-02 0.17587155E+03</pdfrwt>
<pdfrwt beam="2">  1       21 0.23900708E+00 0.17587155E+03</pdfrwt>
<totfact> 0.48226542E+04</totfact>
</mgrwt>
</event>
<event>
12    1  0.1019868E-001  0.1902203E+03  0.7546771E-02  0.1158287E+00
         21   -1    0    0  501  502  0.00000000000E+00  0.00000000000E+00  0.11132676620E+03  0.11132676620E+03  0.00000000000E+00 0.  1.
         21   -1    0    0  502  503 -0.00000000000E+00 -0.00000000000E+00 -0.48670323156E+03  0.48670323156E+03  0.00000000000E+00 0.  1.
         -6    2    1    2    0  503  0.76788288953E+02  0.11738928255E+02 -0.36016215815E+03  0.40730890987E+03  0.17363618326E+03 0.  0.
        -24    2    3    3    0    0 -0.13935471174E+02  0.45526071720E+02 -0.17625155016E+03  0.19942054212E+03  0.80231684020E+02 0.  0.
          6    2    1    2  501    0 -0.76788288953E+02 -0.11738928255E+02 -0.15214307213E+02  0.19072108790E+03  0.17351891674E+03 0.  0.
         24    2    5    5    0    0 -0.79933272527E+01 -0.54534023577E+02  0.24269127485E+02  0.10047033414E+03  0.80420423305E+02 0.  0.
          5    1    5    5  501    0 -0.68794961701E+02  0.42795095322E+02 -0.39483434698E+02  0.90250753762E+02  0.47000000000E+01 0. -1.
        -11    1    6    6    0    0 -0.44370608666E+02 -0.29247818048E+02  0.14831390717E+02  0.55173869944E+02  0.00000000000E+00 0.  1.
         12    1    6    6    0    0  0.36377281413E+02 -0.25286205529E+02  0.94377367676E+01  0.45296464193E+02  0.00000000000E+00 0. -1.
         -5    1    3    3    0  503  0.90723760128E+02 -0.33787143466E+02 -0.18391060799E+03  0.20788836775E+03  0.47000000000E+01 0.  1.
         11    1    4    4    0    0 -0.46131390957E+02  0.15620667281E+02 -0.80872144383E+02  0.94405583601E+02  0.00000000000E+00 0. -1.
        -12    1    4    4    0    0  0.32195919783E+02  0.29905404440E+02 -0.95379405782E+02  0.10501495852E+03  0.00000000000E+00 0.  1.
<mgrwt>
<rscale>  2 0.19019355E+03</rscale>
<asrwt>0</asrwt>
<pdfrwt beam="1">  1       21 0.17127195E-01 0.19022031E+03</pdfrwt>
<pdfrwt beam="2">  1       21 0.74877420E-01 0.19022031E+03</pdfrwt>
<totfact> 0.49162709E+04</totfact>
</mgrwt>
</event>
<event>
12    1  0.1019868E-001  0.1828185E+03  0.7546771E-02  0.1165118E+00
         21   -1    0    0  501  502  0.00000000000E+00  0.00000000000E+00  0.76629364079E+02  0.76629364079E+02  0.00000000000E+00 0. -1.
         21   -1    0    0  502  503 -0.00000000000E+00 -0.00000000000E+00 -0.57977848865E+03  0.57977848865E+03  0.00000000000E+00 0. -1.
         -6    2    1    2    0  503  0.24054917414E+02  0.52080259417E+02 -0.41497824324E+03  0.45343812478E+03  0.17351714087E+03 0.  0.
        -24    2    3    3    0    0  0.70564836766E+02  0.62019303319E+02 -0.35908236660E+03  0.37989632567E+03  0.80964696522E+02 0.  0.
          6    2    1    2  501    0 -0.24054917414E+02 -0.52080259417E+02 -0.88170881333E+02  0.20296972794E+03  0.17358460091E+03 0.  0.
         24    2    5    5    0    0  0.16124178209E+02 -0.21228581251E+02 -0.11691902261E+03  0.14453402484E+03  0.80680757940E+02 0.  0.
          5    1    5    5  501    0 -0.40179095623E+02 -0.30851678166E+02  0.28748141279E+02  0.58435703108E+02  0.47000000000E+01 0. -1.
        -13    1    6    6    0    0 -0.90343627475E+01 -0.64305935702E+01 -0.11472945142E+03  0.11526412828E+03  0.00000000000E+00 0.  1.
         14    1    6    6    0    0  0.25158540956E+02 -0.14797987681E+02 -0.21895711890E+01  0.29269896557E+02  0.00000000000E+00 0. -1.
         -5    1    3    3    0  503 -0.46509919352E+02 -0.99390439016E+01 -0.55895876635E+02  0.73541799112E+02  0.47000000000E+01 0.  1.
         13    1    4    4    0    0  0.64909716814E+02  0.75301796891E+02 -0.23761779903E+03  0.25757688244E+03  0.00000000000E+00 0. -1.
        -14    1    4    4    0    0  0.56551199521E+01 -0.13282493572E+02 -0.12146456757E+03  0.12231944323E+03  0.00000000000E+00 0.  1.
<mgrwt>
<rscale>  2 0.18280249E+03</rscale>
<asrwt>0</asrwt>
<pdfrwt beam="1">  1       21 0.11789133E-01 0.18281851E+03</pdfrwt>
<pdfrwt beam="2">  1       21 0.89196692E-01 0.18281851E+03</pdfrwt>
<totfact> 0.65259584E+04</totfact>
</mgrwt>
</event>
<event>
12    1  0.1019868E-001  0.1800101E+03  0.7546771E-02  0.1168487E+00
         21   -1    0    0  503  502  0.00000000000E+00  0.00000000000E+00  0.70214722014E+03  0.70214722014E+03  0.00000000000E+00 0. -1.
         21   -1    0    0  501  503 -0.00000000000E+00 -0.00000000000E+00 -0.48458085580E+02  0.48458085580E+02  0.00000000000E+00 0. -1.
          6    2    1    2  501    0  0.38070755355E+02  0.34102521010E+02  0.23536743881E+03  0.29631313064E+03  0.17260149416E+03 0.  0.
         24    2    3    3    0    0  0.85404615714E+01 -0.18011642496E+02  0.21796401708E+03  0.23376000620E+03  0.82085741808E+02 0.  0.
         -6    2    1    2    0  502 -0.38070755355E+02 -0.34102521010E+02  0.41832169575E+03  0.45429217508E+03  0.16963482794E+03 0.  0.
        -24    2    5    5    0    0 -0.51005137215E+02 -0.78991258329E+02  0.24090635106E+03  0.27076944760E+03  0.80243883594E+02 0.  0.
          5    1    3    3  501    0  0.29530293784E+02  0.52114163507E+02  0.17403421726E+02  0.62553124436E+02  0.47000000000E+01 0. -1.
        -13    1    4    4    0    0 -0.34111789363E+02 -0.20680670866E+02  0.81113624397E+02  0.90392059296E+02  0.00000000000E+00 0.  1.
         14    1    4    4    0    0  0.42652250934E+02  0.26690283691E+01  0.13685039268E+03  0.14336794690E+03  0.00000000000E+00 0. -1.
         -5    1    5    5    0  502  0.12934381860E+02  0.44888737319E+02  0.17741534469E+03  0.18352272749E+03  0.47000000000E+01 0.  1.
         13    1    6    6    0    0 -0.36968039110E+02 -0.56153967128E+02  0.23346083027E+03  0.24294827270E+03  0.00000000000E+00 0. -1.
        -14    1    6    6    0    0 -0.14037098105E+02 -0.22837291201E+02  0.74455207968E+01  0.27821174895E+02  0.00000000000E+00 0.  1.
<mgrwt>
<rscale>  2 0.17929522E+03</rscale>
<asrwt>0</asrwt>
<pdfrwt beam="1">  1       21 0.10802264E+00 0.18001011E+03</pdfrwt>
<pdfrwt beam="2">  1       21 0.74550906E-02 0.18001011E+03</pdfrwt>
<totfact> 0.93064053E+04</totfact>
</mgrwt>
</event>
<event>
12    1  0.1019868E-001  0.2859701E+03  0.7546771E-02  0.1092760E+00
         21   -1    0    0  503  502  0.00000000000E+00  0.00000000000E+00  0.29893598471E+03  0.29893598471E+03  0.00000000000E+00 0.  1.
         21   -1    0    0  501  503 -0.00000000000E+00 -0.00000000000E+00 -0.64536822981E+03  0.64536822981E+03  0.00000000000E+00 0. -1.
          6    2    1    2  501    0  0.24343319961E+02 -0.22558086198E+03 -0.53230143052E+03  0.60323784029E+03  0.17050441786E+03 0.  0.
         24    2    3    3    0    0  0.39174182375E+02 -0.56669841224E+02 -0.13746467787E+03  0.17350648392E+03  0.80385787485E+02 0.  0.
         -6    2    1    2    0  502 -0.24343319961E+02  0.22558086198E+03  0.18586918542E+03  0.34106637423E+03  0.17406778859E+03 0.  0.
        -24    2    5    5    0    0 -0.26105485732E+02  0.71675245177E+02  0.16109306094E+02  0.11187093200E+03  0.80229411861E+02 0.  0.
          5    1    3    3  501    0 -0.14830862413E+02 -0.16891102076E+03 -0.39483675264E+03  0.42973135637E+03  0.47000000000E+01 0. -1.
        -11    1    4    4    0    0  0.57034546329E+02 -0.48899793755E+02 -0.13414280353E+03  0.15374791394E+03  0.00000000000E+00 0.  1.
         12    1    4    4    0    0 -0.17860363955E+02 -0.77700474689E+01 -0.33218743486E+01  0.19758569975E+02  0.00000000000E+00 0. -1.
         -5    1    5    5    0  502  0.17621657704E+01  0.15390561680E+03  0.16975987932E+03  0.22919544223E+03  0.47000000000E+01 0.  1.
         13    1    6    6    0    0 -0.50912561034E+02  0.25119303142E+02  0.20341432885E+00  0.56772437316E+02  0.00000000000E+00 0. -1.
        -14    1    6    6    0    0  0.24807075302E+02  0.46555942035E+02  0.15905891765E+02  0.55098494686E+02  0.00000000000E+00 0.  1.
<mgrwt>
<rscale>  2 0.28542988E+03</rscale>
<asrwt>0</asrwt>
<pdfrwt beam="1">  1       21 0.45990152E-01 0.28597013E+03</pdfrwt>
<pdfrwt beam="2">  1       21 0.99287419E-01 0.28597013E+03</pdfrwt>
<totfact> 0.35453739E+03</totfact>
</mgrwt>
</event>
<event>
12    1  0.1019868E-001  0.2499010E+03  0.7546771E-02  0.1113526E+00
         21   -1    0    0  501  502  0.00000000000E+00  0.00000000000E+00  0.38237745109E+03  0.38237745109E+03  0.00000000000E+00 0.  1.
         21   -1    0    0  502  503 -0.00000000000E+00 -0.00000000000E+00 -0.16745142382E+03  0.16745142382E+03  0.00000000000E+00 0. -1.
         -6    2    1    2    0  503  0.97683853591E+02  0.14966377914E+03  0.60778211776E+02  0.25620994487E+03  0.17322864308E+03 0.  0.
        -24    2    3    3    0    0  0.99831075030E+02  0.56525245573E+02 -0.75849626184E+01  0.14055956394E+03  0.80858595262E+02 0.  0.
          6    2    1    2  501    0 -0.97683853591E+02 -0.14966377914E+03  0.15414781549E+03  0.29361893004E+03  0.17466867211E+03 0.  0.
         24    2    5    5    0    0 -0.12089820062E+03 -0.16626597540E+03  0.12932864178E+03  0.25550567498E+03  0.79350506441E+02 0.  0.
          5    1    5    5  501    0  0.23214347026E+02  0.16602196252E+02  0.24819173707E+02  0.38113255066E+02  0.47000000000E+01 0. -1.
        -11    1    6    6    0    0  0.10067098540E+02 -0.15596508673E+02  0.22221994944E+02  0.28955390087E+02  0.00000000000E+00 0.  1.
         12    1    6    6    0    0 -0.13096529916E+03 -0.15066946672E+03  0.10710664684E+03  0.22655028489E+03  0.00000000000E+00 0. -1.
         -5    1    3    3    0  503 -0.21472214393E+01  0.93138533571E+02  0.68363174394E+02  0.11565038093E+03  0.47000000000E+01 0.  1.
         11    1    4    4    0    0  0.31434577346E+02 -0.16096817758E+01 -0.34641566195E+02  0.46805574847E+02  0.00000000000E+00 0. -1.
        -12    1    4    4    0    0  0.68396497684E+02  0.58134927349E+02  0.27056603577E+02  0.93753989090E+02  0.00000000000E+00 0.  1.
<mgrwt>
<rscale>  2 0.24964956E+03</rscale>
<asrwt>0</asrwt>
<pdfrwt beam="1">  1       21 0.58827300E-01 0.24990103E+03</pdfrwt>
<pdfrwt beam="2">  1       21 0.25761758E-01 0.24990103E+03</pdfrwt>
<totfact> 0.37618228E+04</totfact>
</mgrwt>
</event>
<event>
12    1  0.1019868E-001  0.2066316E+03  0.7546771E-02  0.1144352E+00
         21   -1    0    0  501  502  0.00000000000E+00  0.00000000000E+00  0.14496056938E+04  0.14496056938E+04  0.00000000000E+00 0. -1.
         21   -1    0    0  502  503 -0.00000000000E+00 -0.00000000000E+00 -0.59373062210E+02  0.59373062210E+02  0.00000000000E+00 0. -1.
         -6    2    1    2    0  503  0.11322977109E+03 -0.17351188206E+02  0.15858731162E+03  0.26012054668E+03  0.17143721477E+03 0.  0.
        -24    2    3    3    0    0  0.12911876944E+03  0.23643404797E+02  0.14957955000E+03  0.21499575645E+03  0.81353956881E+02 0.  0.
          6    2    1    2  501    0 -0.11322977109E+03  0.17351188206E+02  0.12316453200E+04  0.12488582093E+04  0.17197263739E+03 0.  0.
         24    2    5    5    0    0 -0.75941485430E+02 -0.49745377540E+02  0.89676880222E+03  0.90526435385E+03  0.84068745208E+02 0.  0.
          5    1    5    5  501    0 -0.37288285656E+02  0.67096565746E+02  0.33487651774E+03  0.34359385547E+03  0.47000000000E+01 0. -1.
        -11    1    6    6    0    0 -0.16523802416E+01 -0.46448373239E+02  0.25493025484E+03  0.25913243056E+03  0.00000000000E+00 0.  1.
         12    1    6    6    0    0 -0.74289105188E+02 -0.32970043006E+01  0.64183854738E+03  0.64613192329E+03  0.00000000000E+00 0. -1.
         -5    1    3    3    0  503 -0.15888998359E+02 -0.40994593003E+02  0.90077616251E+01  0.45124790235E+02  0.47000000000E+01 0.  1.
         13    1    4    4    0    0  0.10365825447E+03 -0.18162155928E+02  0.96359366017E+02  0.14268855962E+03  0.00000000000E+00 0. -1.
        -14    1    4    4    0    0  0.25460514978E+02  0.41805560724E+02  0.53220183979E+02  0.72307196828E+02  0.00000000000E+00 0.  1.
<mgrwt>
<rscale>  2 0.20652020E+03</rscale>
<asrwt>0</asrwt>
<pdfrwt beam="1">  1       21 0.22301624E+00 0.20663164E+03</pdfrwt>
<pdfrwt beam="2">  1       21 0.91343183E-02 0.20663164E+03</pdfrwt>
<totfact> 0.90629181E+03</totfact>
</mgrwt>
</event>
<event>
12    1  0.1019868E-001  0.2338995E+03  0.7546771E-02  0.1123996E+00
         21   -1    0    0  503  502  0.00000000000E+00  0.00000000000E+00  0.33649794670E+03  0.33649794670E+03  0.00000000000E+00 0. -1.
         21   -1    0    0  501  503 -0.00000000000E+00 -0.00000000000E+00 -0.42771174916E+03  0.42771174916E+03  0.00000000000E+00 0. -1.
          6    2    1    2  501    0  0.13058038785E+03 -0.86083254874E+02 -0.34662569386E+03  0.41816067956E+03  0.17391784791E+03 0.  0.
         24    2    3    3    0    0  0.75710264912E+02 -0.12136740968E+03 -0.20587669553E+03  0.26295735323E+03  0.79367899748E+02 0.  0.
         -6    2    1    2    0  502 -0.13058038785E+03  0.86083254874E+02  0.25541189140E+03  0.34604901631E+03  0.17335836571E+03 0.  0.
        -24    2    5    5    0    0 -0.87328621313E+02  0.10960143260E+03  0.24637919714E+03  0.29577477283E+03  0.84505889307E+02 0.  0.
          5    1    3    3  501    0  0.54870122938E+02  0.35284154803E+02 -0.14074899833E+03  0.15520332632E+03  0.47000000000E+01 0. -1.
        -11    1    4    4    0    0  0.17696223409E+02 -0.23471624849E+01  0.38418218985E+00  0.17855337874E+02  0.00000000000E+00 0.  1.
         12    1    4    4    0    0  0.58014041503E+02 -0.11902024719E+03 -0.20626087772E+03  0.24510201536E+03  0.00000000000E+00 0. -1.
         -5    1    5    5    0  502 -0.43251766536E+02 -0.23518177731E+02  0.90326942587E+01  0.50274243484E+02  0.47000000000E+01 0.  1.
         13    1    6    6    0    0 -0.83226458149E+02  0.67009247381E+02  0.22237229364E+03  0.24671100411E+03  0.00000000000E+00 0. -1.
        -14    1    6    6    0    0 -0.41021631639E+01  0.42592185224E+02  0.24006903496E+02  0.49063768712E+02  0.00000000000E+00 0.  1.
<mgrwt>
<rscale>  2 0.23379552E+03</rscale>
<asrwt>0</asrwt>
<pdfrwt beam="1">  1       21 0.51768915E-01 0.23389951E+03</pdfrwt>
<pdfrwt beam="2">  1       21 0.65801808E-01 0.23389951E+03</pdfrwt>
<totfact> 0.73097288E+03</totfact>
</mgrwt>
</event>
<event>
12    1  0.1019868E-001  0.2152768E+03  0.7546771E-02  0.1137529E+00
         21   -1    0    0  501  502  0.00000000000E+00  0.00000000000E+00  0.15775869936E+03  0.15775869936E+03  0.00000000000E+00 0.  1.
         21   -1    0    0  502  503 -0.00000000000E+00 -0.00000000000E+00 -0.37131569866E+03  0.37131569866E+03  0.00000000000E+00 0. -1.
         -6    2    1    2    0  503 -0.27859094422E+02 -0.12460567299E+03 -0.22800999884E+03  0.31331294997E+03  0.17284022148E+03 0.  0.
        -24    2    3    3    0    0  0.48348887271E+01 -0.13105690999E+03 -0.23331089042E+03  0.27924383720E+03  0.79648347272E+02 0.  0.
          6    2    1    2  501    0  0.27859094422E+02  0.12460567299E+03  0.14452999534E+02  0.21576144805E+03  0.17332458102E+03 0.  0.
         24    2    5    5    0    0  0.84284222080E+02  0.68311378064E+02  0.12318591165E+02  0.13588974861E+03  0.80895003702E+02 0.  0.
          5    1    5    5  501    0 -0.56425127657E+02  0.56294294931E+02  0.21344083690E+01  0.79871699443E+02  0.47000000000E+01 0. -1.
        -11    1    6    6    0    0  0.82523370915E+01  0.53859216284E+02  0.20165795170E+02  0.58099703450E+02  0.00000000000E+00 0.  1.
         12    1    6    6    0    0  0.76031884988E+02  0.14452161780E+02 -0.78472040050E+01  0.77790045158E+02  0.00000000000E+00 0. -1.
         -5    1    3    3    0  503 -0.32693983149E+02  0.64512369961E+01  0.53008915794E+01  0.34069112763E+02  0.47000000000E+01 0.  1.
         11    1    4    4    0    0  0.23951409268E+02 -0.67451923989E+02 -0.59172203122E+02  0.92869702691E+02  0.00000000000E+00 0. -1.
        -12    1    4    4    0    0 -0.19116520541E+02 -0.63604986002E+02 -0.17413868730E+03  0.18637413451E+03  0.00000000000E+00 0.  1.
<mgrwt>
<rscale>  2 0.21517932E+03</rscale>
<asrwt>0</asrwt>
<pdfrwt beam="1">  1       21 0.24270570E-01 0.21527683E+03</pdfrwt>
<pdfrwt beam="2">  1       21 0.57125491E-01 0.21527683E+03</pdfrwt>
<totfact> 0.45614504E+04</totfact>
</mgrwt>
</event>
<event>
12    1  0.1019868E-001  0.1824493E+03  0.7546771E-02  0.1166177E+00
         21   -1    0    0  503  502  0.00000000000E+00  0.00000000000E+00  0.84549080660E+03  0.84549080660E+03  0.00000000000E+00 0. -1.
         21   -1    0    0  501  503 -0.00000000000E+00 -0.00000000000E+00 -0.83007084329E+02  0.83007084329E+02  0.00000000000E+00 0. -1.
          6    2    1    2  501    0 -0.53548757092E+02 -0.10243541953E+02  0.40673184703E+02  0.18398584181E+03  0.17095052645E+03 0.  0.
         24    2    3    3    0    0 -0.39481055040E+02 -0.43966594678E+02  0.86743380647E+02  0.12499688114E+03  0.67882185106E+02 0.  0.
         -6    2    1    2    0  502  0.53548757092E+02  0.10243541953E+02  0.72181053757E+03  0.74451204912E+03  0.17411300813E+03 0.  0.
        -24    2    5    5    0    0 -0.31638805627E+02  0.33594144739E+02  0.36635067920E+03  0.37821166364E+03  0.81863678021E+02 0.  0.
          5    1    3    3  501    0 -0.14067702051E+02  0.33723052726E+02 -0.46070195944E+02  0.58988960666E+02  0.47000000000E+01 0. -1.
        -11    1    4    4    0    0 -0.21179720646E+00  0.12987241115E+02  0.38566035993E+02  0.40694623995E+02  0.00000000000E+00 0.  1.
         12    1    4    4    0    0 -0.39269257834E+02 -0.56953835794E+02  0.48177344654E+02  0.84302257149E+02  0.00000000000E+00 0. -1.
         -5    1    5    5    0  502  0.85187562719E+02 -0.23350602786E+02  0.35545985836E+03  0.36630038547E+03  0.47000000000E+01 0.  1.
         11    1    6    6    0    0 -0.26604178192E+02  0.26111018753E+02  0.53360452159E+02  0.65091515977E+02  0.00000000000E+00 0. -1.
        -12    1    6    6    0    0 -0.50346274356E+01  0.74831259862E+01  0.31299022704E+03  0.31312014766E+03  0.00000000000E+00 0.  1.
<mgrwt>
<rscale>  2 0.18169069E+03</rscale>
<asrwt>0</asrwt>
<pdfrwt beam="1">  1       21 0.13007550E+00 0.18244928E+03</pdfrwt>
<pdfrwt beam="2">  1       21 0.12770321E-01 0.18244928E+03</pdfrwt>
<totfact> 0.22800648E+04</totfact>
</mgrwt>
</event>
<event>
12    1  0.1019868E-001  0.2780577E+03  0.7546771E-02  0.1097149E+00
         21   -1    0    0  503  502  0.00000000000E+00  0.00000000000E+00  0.63836716813E+03  0.63836716813E+03  0.00000000000E+00 0.  1.
         21   -1    0    0  501  503 -0.00000000000E+00 -0.00000000000E+00 -0.12415812477E+03  0.12415812477E+03  0.00000000000E+00 0.  1.
          6    2    1    2  501    0  0.60161977912E+02  0.20684344244E+03  0.18759864926E+03  0.33542408702E+03  0.17581920169E+03 0.  0.
         24    2    3    3    0    0  0.63320549230E+02  0.21585933376E+03  0.20516475839E+03  0.31488336992E+03  0.80338126953E+02 0.  0.
         -6    2    1    2    0  502 -0.60161977912E+02 -0.20684344244E+03  0.32661039410E+03  0.42710120588E+03  0.17128168980E+03 0.  0.
        -24    2    5    5    0    0 -0.19374782498E+02 -0.31660429974E+02  0.63242963301E+02  0.10813854854E+03  0.79476463504E+02 0.  0.
          5    1    3    3  501    0 -0.31585713178E+01 -0.90158913199E+01 -0.17566109128E+02  0.20540717099E+02  0.47000000000E+01 0. -1.
        -11    1    4    4    0    0  0.66883490622E+02  0.11872047737E+03  0.86132653404E+02  0.16120417813E+03  0.00000000000E+00 0.  1.
         12    1    4    4    0    0 -0.35629413918E+01  0.97138856389E+02  0.11903210498E+03  0.15367919179E+03  0.00000000000E+00 0. -1.
         -5    1    5    5    0  502 -0.40787195414E+02 -0.17518301247E+03  0.26336743080E+03  0.31896265733E+03  0.47000000000E+01 0.  1.
         13    1    6    6    0    0 -0.33683986728E+02  0.13247368482E+02  0.44633718088E+02  0.57465402843E+02  0.00000000000E+00 0. -1.
        -14    1    6    6    0    0  0.14309204229E+02 -0.44907798456E+02  0.18609245214E+02  0.50673145701E+02  0.00000000000E+00 0.  1.
<mgrwt>
<rscale>  2 0.27734325E+03</rscale>
<asrwt>0</asrwt>
<pdfrwt beam="1">  1       21 0.98210331E-01 0.27805766E+03</pdfrwt>
<pdfrwt beam="2">  1       21 0.19101250E-01 0.27805766E+03</pdfrwt>
<totfact> 0.20595568E+04</totfact>
</mgrwt>
</event>
<event>
12    1  0.1019868E-001  0.1734130E+03  0.7546771E-02  0.1174491E+00
         21   -1    0    0  501  502  0.00000000000E+00  0.00000000000E+00  0.20480786784E+03  0.20480786784E+03  0.00000000000E+00 0. -1.
         21   -1    0    0  502  503 -0.00000000000E+00 -0.00000000000E+00 -0.14997572461E+03  0.14997572461E+03  0.00000000000E+00 0. -1.
         -6    2    1    2    0  503 -0.67396320290E+01 -0.14291094420E+01 -0.26362382541E+00  0.17341324093E+03  0.17327613119E+03 0.  0.
        -24    2    3    3    0    0 -0.51713885462E+02 -0.31727362737E+02  0.38655411367E+02  0.10649949851E+03  0.78529936071E+02 0.  0.
          6    2    1    2  501    0  0.67396320290E+01  0.14291094420E+01  0.55095767055E+02  0.18137035152E+03  0.17266208579E+03 0.  0.
         24    2    5    5    0    0 -0.25930683193E+02 -0.14824410142E+02 -0.26661190084E+02  0.91716481352E+02  0.82516243419E+02 0.  0.
          5    1    5    5  501    0  0.32670315222E+02  0.16253519584E+02  0.81756957139E+02  0.89653870168E+02  0.47000000000E+01 0. -1.
        -11    1    6    6    0    0 -0.15404382356E+02  0.33580230567E+02 -0.19153841035E+02  0.41614859211E+02  0.00000000000E+00 0.  1.
         12    1    6    6    0    0 -0.10526300836E+02 -0.48404640709E+02 -0.75073490493E+01  0.50101622142E+02  0.00000000000E+00 0. -1.
         -5    1    3    3    0  503  0.44974253433E+02  0.30298253295E+02 -0.38919035192E+02  0.66913742422E+02  0.47000000000E+01 0.  1.
         13    1    4    4    0    0 -0.34428061738E+01  0.11082120847E+02 -0.17477729969E+02  0.20979450939E+02  0.00000000000E+00 0. -1.
        -14    1    4    4    0    0 -0.48271079289E+02 -0.42809483584E+02  0.56133141336E+02  0.85520047572E+02  0.00000000000E+00 0.  1.
<mgrwt>
<rscale>  2 0.17325945E+03</rscale>
<asrwt>0</asrwt>
<pdfrwt beam="1">  1       21 0.31508903E-01 0.17341304E+03</pdfrwt>
<pdfrwt beam="2">  1       21 0.23073188E-01 0.17341304E+03</pdfrwt>
<totfact> 0.17181319E+05</totfact>
</mgrwt>
</event>
<event>
12    1  0.1019868E-001  0.2078999E+03  0.7546771E-02  0.1148248E+00
         21   -1    0    0  501  502  0.00000000000E+00  0.00000000000E+00  0.39444455777E+03  0.39444455777E+03  0.00000000000E+00 0. -1.
         21   -1    0    0  502  503 -0.00000000000E+00 -0.00000000000E+00 -0.23273220737E+03  0.23273220737E+03  0.00000000000E+00 0. -1.
         -6    2    1    2    0  503  0.54038279955E+02 -0.54221757092E+02 -0.15591338512E+03  0.25986793374E+03  0.19329310563E+03 0.  0.
        -24    2    3    3    0    0 -0.43384015306E+01 -0.92600829677E+02 -0.87934235604E+02  0.16227672039E+03  0.10003783687E+03 0.  0.
          6    2    1    2  501    0 -0.54038279955E+02  0.54221757092E+02  0.31762573552E+03  0.36730883140E+03  0.16783782387E+03 0.  0.
         24    2    5    5    0    0 -0.84683428878E+02  0.52539819200E+02  0.15284523043E+03  0.19962860322E+03  0.80982708207E+02 0.  0.
          5    1    5    5  501    0  0.30645148923E+02  0.16819378920E+01  0.16478050509E+03  0.16768022819E+03  0.47000000000E+01 0. -1.
        -13    1    6    6    0    0 -0.17203181090E+02 -0.12101124619E+02  0.65892357973E+00  0.21043308603E+02  0.00000000000E+00 0.  1.
         14    1    6    6    0    0 -0.67480247788E+02  0.64640943818E+02  0.15218630685E+03  0.17858529461E+03  0.00000000000E+00 0. -1.
         -5    1    3    3    0  503  0.58376681486E+02  0.38379072586E+02 -0.67979149514E+02  0.97591213347E+02  0.47000000000E+01 0.  1.
         13    1    4    4    0    0  0.29512640210E+02 -0.94582229608E+02 -0.48642094449E+02  0.11037593688E+03  0.00000000000E+00 0. -1.
        -14    1    4    4    0    0 -0.33851041741E+02  0.19813999305E+01 -0.39292141156E+02  0.51900783513E+02  0.00000000000E+00 0.  1.
<mgrwt>
<rscale>  2 0.20177757E+03</rscale>
<asrwt>0</asrwt>
<pdfrwt beam="1">  1       21 0.60683778E-01 0.20789988E+03</pdfrwt>
<pdfrwt beam="2">  1       21 0.35804955E-01 0.20789988E+03</pdfrwt>
<totfact> 0.18846357E+04</totfact>
</mgrwt>
</event>
<event>
12    1  0.1019868E-001  0.2331361E+03  0.7546771E-02  0.1124496E+00
         21   -1    0    0  501  502  0.00000000000E+00  0.00000000000E+00  0.48688839960E+03  0.48688839960E+03  0.00000000000E+00 0. -1.
         21   -1    0    0  502  503 -0.00000000000E+00 -0.00000000000E+00 -0.11159393906E+03  0.11159393906E+03  0.00000000000E+00 0. -1.
         -6    2    1    2    0  503  0.64759780648E+02 -0.14159393046E+03  0.17931907548E+03  0.29391903438E+03  0.17317735881E+03 0.  0.
        -24    2    3    3    0    0  0.55701458311E+02 -0.16878468220E+03  0.11331298518E+03  0.22180603873E+03  0.69044658037E+02 0.  0.
          6    2    1    2  501    0 -0.64759780648E+02  0.14159393046E+03  0.19597538505E+03  0.30456330428E+03  0.17352171171E+03 0.  0.
         24    2    5    5    0    0 -0.10928893184E+03  0.12763937782E+03  0.16179175896E+03  0.24652723671E+03  0.79769817487E+02 0.  0.
          5    1    5    5  501    0  0.44529151196E+02  0.13954552646E+02  0.34183626094E+02  0.58036067568E+02  0.47000000000E+01 0. -1.
        -11    1    6    6    0    0 -0.78812959155E+02  0.47715835351E+02  0.12010748467E+03  0.15137401147E+03  0.00000000000E+00 0.  1.
         12    1    6    6    0    0 -0.30475972689E+02  0.79923542465E+02  0.41684274285E+02  0.95153225243E+02  0.00000000000E+00 0. -1.
         -5    1    3    3    0  503  0.90583223367E+01  0.27190751742E+02  0.66006090307E+02  0.72112995649E+02  0.47000000000E+01 0.  1.
         11    1    4    4    0    0  0.45403573867E+02 -0.11643014451E+03  0.11294669778E+03  0.16844708252E+03  0.00000000000E+00 0. -1.
        -12    1    4    4    0    0  0.10297884445E+02 -0.52354537693E+02  0.36628739304E+00  0.53358956207E+02  0.00000000000E+00 0.  1.
<mgrwt>
<rscale>  2 0.23307206E+03</rscale>
<asrwt>0</asrwt>
<pdfrwt beam="1">  1       21 0.74905907E-01 0.23313613E+03</pdfrwt>
<pdfrwt beam="2">  1       21 0.17168298E-01 0.23313613E+03</pdfrwt>
<totfact> 0.47916640E+04</totfact>
</mgrwt>
</event>
<event>
12    1  0.1019868E-001  0.1769765E+03  0.7546771E-02  0.1171705E+00
         21   -1    0    0  501  502  0.00000000000E+00  0.00000000000E+00  0.16384945930E+03  0.16384945930E+03  0.00000000000E+00 0.  1.
         21   -1    0    0  502  503 -0.00000000000E+00 -0.00000000000E+00 -0.18789763773E+03  0.18789763773E+03  0.00000000000E+00 0.  1.
         -6    2    1    2    0  503  0.29876647498E+02 -0.70629598435E+01 -0.23586429008E+02  0.17854128457E+03  0.17429334811E+03 0.  0.
        -24    2    3    3    0    0 -0.53207347268E+01 -0.66024005550E+02 -0.50585636588E+01  0.10726272944E+03  0.84215346195E+02 0.  0.
          6    2    1    2  501    0 -0.29876647498E+02  0.70629598435E+01 -0.46174941883E+00  0.17320581246E+03  0.17046272551E+03 0.  0.
         24    2    5    5    0    0  0.40475857984E+02 -0.66193907063E+01  0.30271349973E+02  0.95082223557E+02  0.80263087372E+02 0.  0.
          5    1    5    5  501    0 -0.70352505483E+02  0.13682350550E+02 -0.30733099392E+02  0.78123588899E+02  0.47000000000E+01 0. -1.
        -11    1    6    6    0    0  0.64630747986E+01  0.18784227693E+00  0.53141909979E+02  0.53533813770E+02  0.00000000000E+00 0.  1.
         12    1    6    6    0    0  0.34012783186E+02 -0.68072329832E+01 -0.22870560005E+02  0.41548409788E+02  0.00000000000E+00 0. -1.
         -5    1    3    3    0  503  0.35197382225E+02  0.58961045706E+02 -0.18527865349E+02  0.71278555125E+02  0.47000000000E+01 0.  1.
         13    1    4    4    0    0  0.38655104174E+02 -0.21061076537E+02 -0.55421034069E+01  0.44367791626E+02  0.00000000000E+00 0. -1.
        -14    1    4    4    0    0 -0.43975838901E+02 -0.44962929012E+02  0.48353974807E+00  0.62894937818E+02  0.00000000000E+00 0.  1.
<mgrwt>
<rscale>  2 0.17602602E+03</rscale>
<asrwt>0</asrwt>
<pdfrwt beam="1">  1       21 0.25207609E-01 0.17697647E+03</pdfrwt>
<pdfrwt beam="2">  1       21 0.28907329E-01 0.17697647E+03</pdfrwt>
<totfact> 0.17158129E+05</totfact>
</mgrwt>
</event>
<event>
12    1  0.1019868E-001  0.1833772E+03  0.7546771E-02  0.1164604E+00
         21   -1    0    0  503  502  0.00000000000E+00  0.00000000000E+00  0.53292288214E+03  0.53292288214E+03  0.00000000000E+00 0. -1.
         21   -1    0    0  501  503 -0.00000000000E+00 -0.00000000000E+00 -0.13054331019E+04  0.13054331019E+04  0.00000000000E+00 0. -1.
          6    2    1    2  501    0 -0.58765032454E+02 -0.84176376850E+01 -0.12829523928E+04  0.12959738344E+04  0.17336998486E+03 0.  0.
         24    2    3    3    0    0 -0.72552077663E+02 -0.62540056402E+02 -0.78254432937E+03  0.79243670693E+03  0.80032770924E+02 0.  0.
         -6    2    1    2    0  502  0.58765032454E+02  0.84176376850E+01  0.51044217308E+03  0.54238214958E+03  0.17350215694E+03 0.  0.
        -24    2    5    5    0    0  0.85721186071E+02 -0.82229891936E+01  0.49137585388E+03  0.50511072342E+03  0.79188849194E+02 0.  0.
          5    1    3    3  501    0  0.13787045209E+02  0.54122418717E+02 -0.50040806342E+03  0.50353712749E+03  0.47000000000E+01 0. -1.
        -11    1    4    4    0    0  0.27356255799E+01 -0.48037187906E+02 -0.29274713485E+03  0.29667480519E+03  0.00000000000E+00 0.  1.
         12    1    4    4    0    0 -0.75287703243E+02 -0.14502868496E+02 -0.48979719452E+03  0.49576190174E+03  0.00000000000E+00 0. -1.
         -5    1    5    5    0  502 -0.26956153617E+02  0.16640626879E+02  0.19066319196E+02  0.37271426166E+02  0.47000000000E+01 0.  1.
         13    1    6    6    0    0  0.90531494564E+02 -0.19587443157E+02  0.31585280908E+03  0.32915439605E+03  0.00000000000E+00 0. -1.
        -14    1    6    6    0    0 -0.48103084929E+01  0.11364453963E+02  0.17552304480E+03  0.17595632736E+03  0.00000000000E+00 0.  1.
<mgrwt>
<rscale>  2 0.18334589E+03</rscale>
<asrwt>0</asrwt>
<pdfrwt beam="1">  1       21 0.81988136E-01 0.18337716E+03</pdfrwt>
<pdfrwt beam="2">  1       21 0.20083586E+00 0.18337716E+03</pdfrwt>
<totfact> 0.17479864E+02</totfact>
</mgrwt>
</event>
<event>
12    1  0.1019868E-001  0.2084924E+03  0.7546771E-02  0.1143538E+00
         21   -1    0    0  501  502  0.00000000000E+00  0.00000000000E+00  0.71066672820E+02  0.71066672820E+02  0.00000000000E+00 0.  1.
         21   -1    0    0  502  503 -0.00000000000E+00 -0.00000000000E+00 -0.60132058335E+03  0.60132058335E+03  0.00000000000E+00 0.  1.
         -6    2    1    2    0  503 -0.61921746831E+02 -0.88473101177E+02 -0.28010616538E+03  0.34918267045E+03  0.17834595902E+03 0.  0.
        -24    2    3    3    0    0 -0.30421751327E+02 -0.63249105605E+00 -0.22508092177E+03  0.24074794384E+03  0.79826487556E+02 0.  0.
          6    2    1    2  501    0  0.61921746831E+02  0.88473101177E+02 -0.25014774515E+03  0.32320458571E+03  0.17385487471E+03 0.  0.
         24    2    5    5    0    0  0.42560471543E+02  0.17563615880E+01 -0.20181155936E+03  0.22194685138E+03  0.81963533365E+02 0.  0.
          5    1    5    5  501    0  0.19361275287E+02  0.86716739589E+02 -0.48336185785E+02  0.10125773433E+03  0.47000000000E+01 0. -1.
        -13    1    6    6    0    0  0.62999955042E+02 -0.16323123423E+02 -0.14302880215E+03  0.15713903696E+03  0.00000000000E+00 0.  1.
         14    1    6    6    0    0 -0.20439483499E+02  0.18079485011E+02 -0.58782757218E+02  0.64807814422E+02  0.00000000000E+00 0. -1.
         -5    1    3    3    0  503 -0.31499995504E+02 -0.87840610121E+02 -0.55025243603E+02  0.10843472662E+03  0.47000000000E+01 0.  1.
         13    1    4    4    0    0  0.56586370527E+01  0.65141515139E+01  0.34376157795E+01  0.92882477081E+01  0.00000000000E+00 0. -1.
        -14    1    4    4    0    0 -0.36080388379E+02 -0.71466425699E+01 -0.22851853755E+03  0.23145969613E+03  0.00000000000E+00 0.  1.
<mgrwt>
<rscale>  2 0.20752860E+03</rscale>
<asrwt>0</asrwt>
<pdfrwt beam="1">  1       21 0.10933334E-01 0.20849238E+03</pdfrwt>
<pdfrwt beam="2">  1       21 0.92510860E-01 0.20849238E+03</pdfrwt>
<totfact> 0.67773730E+04</totfact>
</mgrwt>
</event>
<event>
12    1  0.1019868E-001  0.2344078E+03  0.7546771E-02  0.1124232E+00
         21   -1    0    0  501  502  0.00000000000E+00  0.00000000000E+00  0.32704076990E+03  0.32704076990E+03  0.00000000000E+00 0. -1.
         21   -1    0    0  502  503 -0.00000000000E+00 -0.00000000000E+00 -0.26652563749E+03  0.26652563749E+03  0.00000000000E+00 0.  1.
         -6    2    1    2    0  503 -0.33485085995E+02  0.14860931018E+03 -0.15248190234E+03  0.27963859298E+03  0.17816013608E+03 0.  0.
        -24    2    3    3    0    0  0.42732449228E+02  0.35523605476E+02 -0.58910275257E+02  0.11418398084E+03  0.80495789869E+02 0.  0.
          6    2    1    2  501    0  0.33485085995E+02 -0.14860931018E+03  0.21299703475E+03  0.31392781441E+03  0.17313855084E+03 0.  0.
         24    2    5    5    0    0 -0.16897335298E+02 -0.12951829421E+02  0.96129591479E+02  0.12785946740E+03  0.81571289188E+02 0.  0.
          5    1    5    5  501    0  0.50382421293E+02 -0.13565748076E+03  0.11686744328E+03  0.18606834701E+03  0.47000000000E+01 0. -1.
        -11    1    6    6    0    0  0.18500653713E+02 -0.19141070662E+02  0.15299214234E+01  0.26664497623E+02  0.00000000000E+00 0.  1.
         12    1    6    6    0    0 -0.35397989011E+02  0.61892412409E+01  0.94599670056E+02  0.10119496978E+03  0.00000000000E+00 0. -1.
         -5    1    3    3    0  503 -0.76217535223E+02  0.11308570471E+03 -0.93571627084E+02  0.16545461214E+03  0.47000000000E+01 0.  1.
         13    1    4    4    0    0  0.16814775603E+02  0.28063037291E+02  0.14642573886E+02  0.35842373115E+02  0.00000000000E+00 0. -1.
        -14    1    4    4    0    0  0.25917673625E+02  0.74605681854E+01 -0.73552849143E+02  0.78341607725E+02  0.00000000000E+00 0.  1.
<mgrwt>
<rscale>  2 0.23345360E+03</rscale>
<asrwt>0</asrwt>
<pdfrwt beam="1">  1       21 0.50313965E-01 0.23440779E+03</pdfrwt>
<pdfrwt beam="2">  1       21 0.41003944E-01 0.23440779E+03</pdfrwt>
<totfact> 0.21048970E+04</totfact>
</mgrwt>
</event>
<event>
12    1  0.1019868E-001  0.3563183E+03  0.7546771E-02  0.1060699E+00
         21   -1    0    0  501  502  0.00000000000E+00  0.00000000000E+00  0.84091342069E+03  0.84091342069E+03  0.00000000000E+00 0. -1.
         21   -1    0    0  502  503 -0.00000000000E+00 -0.00000000000E+00 -0.26158614868E+03  0.26158614868E+03  0.00000000000E+00 0. -1.
         -6    2    1    2    0  503  0.30715659589E+03  0.50674435393E+02 -0.74611464353E+02  0.35778578835E+03  0.15978337501E+03 0.  0.
        -24    2    3    3    0    0  0.12821121585E+03  0.27040423947E+02  0.18999505721E+02  0.15440162168E+03  0.79432859460E+02 0.  0.
          6    2    1    2  501    0 -0.30715659589E+03 -0.50674435393E+02  0.65393873637E+03  0.74471378101E+03  0.17334841190E+03 0.  0.
         24    2    5    5    0    0 -0.28321199529E+03 -0.84381327606E+02  0.50863317392E+03  0.59356718013E+03  0.79278300893E+02 0.  0.
          5    1    5    5  501    0 -0.23944600607E+02  0.33706892213E+02  0.14530556245E+03  0.15114660088E+03  0.47000000000E+01 0. -1.
        -13    1    6    6    0    0 -0.94469159209E+02 -0.67607083495E+02  0.18048624190E+03  0.21464021827E+03  0.00000000000E+00 0.  1.
         14    1    6    6    0    0 -0.18874283608E+03 -0.16774244110E+02  0.32814693202E+03  0.37892696187E+03  0.00000000000E+00 0. -1.
         -5    1    3    3    0  503  0.17894538004E+03  0.23634011446E+02 -0.93610970075E+02  0.20338416667E+03  0.47000000000E+01 0.  1.
         11    1    4    4    0    0  0.82530338586E+01  0.13927009637E+02 -0.21679409091E+02  0.27056809565E+02  0.00000000000E+00 0. -1.
        -12    1    4    4    0    0  0.11995818200E+03  0.13113414310E+02  0.40678914812E+02  0.12734481212E+03  0.00000000000E+00 0.  1.
<mgrwt>
<rscale>  2 0.35470778E+03</rscale>
<asrwt>0</asrwt>
<pdfrwt beam="1">  1       21 0.12937129E+00 0.35631832E+03</pdfrwt>
<pdfrwt beam="2">  1       21 0.40244023E-01 0.35631832E+03</pdfrwt>
<totfact> 0.23347441E+03</totfact>
</mgrwt>
</event>
<event>
12    1  0.1019868E-001  0.2391114E+03  0.7546771E-02  0.1120409E+00
         21   -1    0    0  503  502  0.00000000000E+00  0.00000000000E+00  0.35692836651E+03  0.35692836651E+03  0.00000000000E+00 0. -1.
         21   -1    0    0  501  503 -0.00000000000E+00 -0.00000000000E+00 -0.46102515368E+03  0.46102515368E+03  0.00000000000E+00 0. -1.
          6    2    1    2  501    0 -0.31668221638E+02  0.16176158229E+03 -0.38247664857E+03  0.45106832827E+03  0.17321825626E+03 0.  0.
         24    2    3    3    0    0  0.37892513317E+02  0.86525222302E+02 -0.15361936888E+03  0.20027568448E+03  0.87114767060E+02 0.  0.
         -6    2    1    2    0  502  0.31668221638E+02 -0.16176158229E+03  0.27837986140E+03  0.36688519192E+03  0.17303095403E+03 0.  0.
        -24    2    5    5    0    0  0.34374064911E+02 -0.17047355759E+03  0.29243005736E+03  0.34948639576E+03  0.79891127130E+02 0.  0.
          5    1    3    3  501    0 -0.69560734954E+02  0.75236359991E+02 -0.22885727969E+03  0.25079264379E+03  0.47000000000E+01 0. -1.
        -13    1    4    4    0    0  0.49760336936E+02  0.91486272162E+02 -0.97361740066E+02  0.14256625672E+03  0.00000000000E+00 0.  1.
         14    1    4    4    0    0 -0.11867823619E+02 -0.49610498599E+01 -0.56257628810E+02  0.57709427761E+02  0.00000000000E+00 0. -1.
         -5    1    5    5    0  502 -0.27058432732E+01  0.87119752993E+01 -0.14050195963E+02  0.17398796166E+02  0.47000000000E+01 0.  1.
         11    1    6    6    0    0  0.43109070072E+02 -0.61580990983E+02  0.16709747661E+03  0.18322711879E+03  0.00000000000E+00 0. -1.
        -12    1    6    6    0    0 -0.87350051613E+01 -0.10889256661E+03  0.12533258076E+03  0.16625927697E+03  0.00000000000E+00 0.  1.
<mgrwt>
<rscale>  2 0.23907746E+03</rscale>
<asrwt>0</asrwt>
<pdfrwt beam="1">  1       21 0.54912057E-01 0.23911138E+03</pdfrwt>
<pdfrwt beam="2">  1       21 0.70926946E-01 0.23911138E+03</pdfrwt>
<totfact> 0.54502455E+03</totfact>
</mgrwt>
</event>
<event>
12    1  0.1019868E-001  0.1898172E+03  0.7546771E-02  0.1159635E+00
         21   -1    0    0  503  502  0.00000000000E+00  0.00000000000E+00  0.24323105330E+04  0.24323105330E+04  0.00000000000E+00 0. -1.
         21   -1    0    0  501  503 -0.00000000000E+00 -0.00000000000E+00 -0.14641234196E+02  0.14641234196E+02  0.00000000000E+00 0. -1.
          6    2    1    2  501    0 -0.80223300866E+02  0.46934701450E+01  0.10628541232E+04  0.10789039835E+04  0.16708414547E+03 0.  0.
         24    2    3    3    0    0 -0.92153656185E+02 -0.44342202164E+02  0.86353613940E+03  0.87324266186E+03  0.79997219989E+02 0.  0.
         -6    2    1    2    0  502  0.80223300866E+02 -0.46934701450E+01  0.13548151755E+04  0.13680477837E+04  0.17196735697E+03 0.  0.
        -24    2    5    5    0    0  0.50727298720E+02  0.27526932678E+02  0.12585977350E+04  0.12622741841E+04  0.77051063901E+02 0.  0.
          5    1    3    3  501    0  0.11930355319E+02  0.49035672309E+02  0.19931798382E+03  0.20566132163E+03  0.47000000000E+01 0. -1.
        -13    1    4    4    0    0  0.54523348336E+00 -0.71454913389E+01  0.45937094724E+01  0.85121967049E+01  0.00000000000E+00 0.  1.
         14    1    4    4    0    0 -0.92698889668E+02 -0.37196710825E+02  0.85894242993E+03  0.86473046516E+03  0.00000000000E+00 0. -1.
         -5    1    5    5    0  502  0.29496002146E+02 -0.32220402823E+02  0.96217440523E+02  0.10577359955E+03  0.47000000000E+01 0.  1.
         11    1    6    6    0    0  0.26053405481E+02  0.32829413639E+02  0.25989734974E+03  0.26325497667E+03  0.00000000000E+00 0. -1.
        -12    1    6    6    0    0  0.24673893238E+02 -0.53024809605E+01  0.99870038528E+03  0.99901920746E+03  0.00000000000E+00 0.  1.
<mgrwt>
<rscale>  2 0.18870435E+03</rscale>
<asrwt>0</asrwt>
<pdfrwt beam="1">  1       21 0.37420130E+00 0.18981722E+03</pdfrwt>
<pdfrwt beam="2">  1       21 0.22524995E-02 0.18981722E+03</pdfrwt>
<totfact> 0.12756047E+04</totfact>
</mgrwt>
</event>
<event>
12    1  0.1019868E-001  0.1760382E+03  0.7546771E-02  0.1172287E+00
         21   -1    0    0  501  502  0.00000000000E+00  0.00000000000E+00  0.38195876343E+02  0.38195876343E+02  0.00000000000E+00 0. -1.
         21   -1    0    0  502  503 -0.00000000000E+00 -0.00000000000E+00 -0.85833296103E+03  0.85833296103E+03  0.00000000000E+00 0. -1.
         -6    2    1    2    0  503 -0.10305404744E+02 -0.14038383217E+02 -0.52904210821E+03  0.55756164283E+03  0.17517464349E+03 0.  0.
        -24    2    3    3    0    0  0.59485472465E+02 -0.40454220139E+02 -0.23791537209E+03  0.25698647841E+03  0.65293647821E+02 0.  0.
          6    2    1    2  501    0  0.10305404744E+02  0.14038383217E+02 -0.29109497648E+03  0.33896719455E+03  0.17279813679E+03 0.  0.
         24    2    5    5    0    0  0.67426662336E+02  0.30661375692E+02 -0.12744851196E+03  0.16477931525E+03  0.73638473490E+02 0.  0.
          5    1    5    5  501    0 -0.57121257592E+02 -0.16622992475E+02 -0.16364646451E+03  0.17418787930E+03  0.47000000000E+01 0. -1.
        -13    1    6    6    0    0  0.46784302200E+02 -0.18479469736E+02 -0.51457613256E+02  0.71959347524E+02  0.00000000000E+00 0.  1.
         14    1    6    6    0    0  0.20642360136E+02  0.49140845428E+02 -0.75990898709E+02  0.92819967722E+02  0.00000000000E+00 0. -1.
         -5    1    3    3    0  503 -0.69790877209E+02  0.26415836922E+02 -0.29112673612E+03  0.30057516442E+03  0.47000000000E+01 0.  1.
         13    1    4    4    0    0  0.31044437672E+02 -0.43635486805E+02 -0.21103513622E+03  0.21772377348E+03  0.00000000000E+00 0. -1.
        -14    1    4    4    0    0  0.28441034793E+02  0.31812666662E+01 -0.26880235870E+02  0.39262704926E+02  0.00000000000E+00 0.  1.
<mgrwt>
<rscale>  2 0.17544398E+03</rscale>
<asrwt>0</asrwt>
<pdfrwt beam="1">  1       21 0.58762888E-02 0.17603816E+03</pdfrwt>
<pdfrwt beam="2">  1       21 0.13205122E+00 0.17603816E+03</pdfrwt>
<totfact> 0.85564860E+04</totfact>
</mgrwt>
</event>
<event>
12    1  0.1019868E-001  0.3088240E+03  0.7546771E-02  0.1081226E+00
         21   -1    0    0  503  502  0.00000000000E+00  0.00000000000E+00  0.25975199186E+03  0.25975199186E+03  0.00000000000E+00 0.  1.
         21   -1    0    0  501  503 -0.00000000000E+00 -0.00000000000E+00 -0.36514650035E+03  0.36514650035E+03  0.00000000000E+00 0. -1.
          6    2    1    2  501    0  0.11009656707E+03 -0.22987302951E+03 -0.36020459687E+02  0.31091756416E+03  0.17438289597E+03 0.  0.
         24    2    3    3    0    0  0.67508894318E+02 -0.13036143219E+03  0.47620837538E+02  0.17404454098E+03  0.80450010953E+02 0.  0.
         -6    2    1    2    0  502 -0.11009656707E+03  0.22987302951E+03 -0.69374048800E+02  0.31398092805E+03  0.16973037664E+03 0.  0.
        -24    2    5    5    0    0 -0.10531220208E+03  0.11080659695E+03  0.39213976751E+01  0.17400229402E+03  0.83022040025E+02 0.  0.
          5    1    3    3  501    0  0.42587672755E+02 -0.99511597327E+02 -0.83641297225E+02  0.13687302318E+03  0.47000000000E+01 0. -1.
        -11    1    4    4    0    0  0.41222699536E+00 -0.42812188399E+02  0.47220665687E+02  0.63740447712E+02  0.00000000000E+00 0.  1.
         12    1    4    4    0    0  0.67096667323E+02 -0.87549243786E+02  0.40017185164E+00  0.11030409326E+03  0.00000000000E+00 0. -1.
         -5    1    5    5    0  502 -0.47843649919E+01  0.11906643256E+03 -0.73295446475E+02  0.13997863403E+03  0.47000000000E+01 0.  1.
         11    1    6    6    0    0 -0.55023029025E+02  0.20096299735E+02 -0.28760074783E+02  0.65257466145E+02  0.00000000000E+00 0. -1.
        -12    1    6    6    0    0 -0.50289173056E+02  0.90710297219E+02  0.32681472458E+02  0.10874482788E+03  0.00000000000E+00 0.  1.
<mgrwt>
<rscale>  2 0.30817116E+03</rscale>
<asrwt>0</asrwt>
<pdfrwt beam="1">  1       21 0.39961845E-01 0.30882399E+03</pdfrwt>
<pdfrwt beam="2">  1       21 0.56176385E-01 0.30882399E+03</pdfrwt>
<totfact> 0.16981796E+04</totfact>
</mgrwt>
</event>
<event>
12    1  0.1019868E-001  0.2506387E+03  0.7546771E-02  0.1113345E+00
         21   -1    0    0  501  502  0.00000000000E+00  0.00000000000E+00  0.16316717862E+04  0.16316717862E+04  0.00000000000E+00 0.  1.
         21   -1    0    0  502  503 -0.00000000000E+00 -0.00000000000E+00 -0.11806180723E+03  0.11806180723E+03  0.00000000000E+00 0. -1.
         -6    2    1    2    0  503  0.25045732587E+02 -0.17690610732E+03  0.35318337397E+02  0.25034507157E+03  0.17176207490E+03 0.  0.
        -24    2    3    3    0    0 -0.30875690764E+02 -0.31412146717E+02  0.10289100679E+02  0.92407581240E+02  0.80580793222E+02 0.  0.
          6    2    1    2  501    0 -0.25045732587E+02  0.17690610732E+03  0.14782916416E+04  0.14993885219E+04  0.17577457842E+03 0.  0.
         24    2    5    5    0    0  0.10986177149E+02  0.11855879779E+03  0.13007378343E+04  0.13089937963E+04  0.85842649801E+02 0.  0.
          5    1    5    5  501    0 -0.36031909736E+02  0.58347309529E+02  0.17755380729E+03  0.19039472558E+03  0.47000000000E+01 0. -1.
        -13    1    6    6    0    0 -0.13035670561E+02  0.74115748908E+02  0.41166146682E+03  0.41848325678E+03  0.00000000000E+00 0.  1.
         14    1    6    6    0    0  0.24021847710E+02  0.44443048877E+02  0.88907636752E+03  0.89051053954E+03  0.00000000000E+00 0. -1.
         -5    1    3    3    0  503  0.55921423352E+02 -0.14549396060E+03  0.25029236718E+02  0.15793749033E+03  0.47000000000E+01 0.  1.
         13    1    4    4    0    0 -0.30818325648E+02 -0.56473910857E+02 -0.22686224057E+01  0.64375604470E+02  0.00000000000E+00 0. -1.
        -14    1    4    4    0    0 -0.57365116107E-01  0.25061764140E+02  0.12557723085E+02  0.28031976770E+02  0.00000000000E+00 0.  1.
<mgrwt>
<rscale>  2 0.24993639E+03</rscale>
<asrwt>0</asrwt>
<pdfrwt beam="1">  1       21 0.25102641E+00 0.25063871E+03</pdfrwt>
<pdfrwt beam="2">  1       21 0.18163356E-01 0.25063871E+03</pdfrwt>
<totfact> 0.17052047E+03</totfact>
</mgrwt>
</event>
<event>
12    1  0.1019868E-001  0.1751264E+03  0.7546771E-02  0.1172680E+00
         21   -1    0    0  503  502  0.00000000000E+00  0.00000000000E+00  0.40631754654E+03  0.40631754654E+03  0.00000000000E+00 0. -1.
         21   -1    0    0  501  503 -0.00000000000E+00 -0.00000000000E+00 -0.14523149762E+03  0.14523149762E+03  0.00000000000E+00 0. -1.
          6    2    1    2  501    0 -0.27340239989E+02  0.93756574067E+01 -0.60691957642E+02  0.18534499053E+03  0.17272481037E+03 0.  0.
         24    2    3    3    0    0 -0.31256656474E+02  0.69922140111E+02 -0.51592182149E+02  0.12381360992E+03  0.82474071630E+02 0.  0.
         -6    2    1    2    0  502  0.27340239989E+02 -0.93756574067E+01  0.32177800657E+03  0.36620405363E+03  0.17242079836E+03 0.  0.
        -24    2    5    5    0    0 -0.31769679820E+02  0.30112097638E+02  0.98237495846E+02  0.13158582042E+03  0.75816697146E+02 0.  0.
          5    1    3    3  501    0  0.39164164850E+01 -0.60546482705E+02 -0.90997754936E+01  0.61531380612E+02  0.47000000000E+01 0. -1.
        -13    1    4    4    0    0  0.73561670970E+01 -0.40048612896E+01  0.14937541747E+02  0.17125485738E+02  0.00000000000E+00 0.  1.
         14    1    4    4    0    0 -0.38612823571E+02  0.73927001401E+02 -0.66529723896E+02  0.10668812418E+03  0.00000000000E+00 0. -1.
         -5    1    5    5    0  502  0.59109919810E+02 -0.39487755045E+02  0.22354051072E+03  0.23461823321E+03  0.47000000000E+01 0.  1.
         11    1    6    6    0    0 -0.39355778940E+01 -0.14204050334E+02  0.71146539148E+02  0.72657235373E+02  0.00000000000E+00 0. -1.
        -12    1    6    6    0    0 -0.27834101926E+02  0.44316147972E+02  0.27090956698E+02  0.58928585050E+02  0.00000000000E+00 0.  1.
<mgrwt>
<rscale>  2 0.17505138E+03</rscale>
<asrwt>0</asrwt>
<pdfrwt beam="1">  1       21 0.62510391E-01 0.17512639E+03</pdfrwt>
<pdfrwt beam="2">  1       21 0.22343307E-01 0.17512639E+03</pdfrwt>
<totfact> 0.44859722E+04</totfact>
</mgrwt>
</event>
<event>
12    1  0.1019868E-001  0.2576871E+03  0.7546771E-02  0.1108685E+00
         21   -1    0    0  503  502  0.00000000000E+00  0.00000000000E+00  0.10361523266E+03  0.10361523266E+03  0.00000000000E+00 0.  1.
         21   -1    0    0  501  503 -0.00000000000E+00 -0.00000000000E+00 -0.72722803200E+03  0.72722803200E+03  0.00000000000E+00 0. -1.
          6    2    1    2  501    0 -0.76589349579E+02  0.17532833566E+03 -0.45741739896E+03  0.52500789814E+03  0.17261709787E+03 0.  0.
         24    2    3    3    0    0 -0.90496250941E+02  0.12295217216E+03 -0.20971361152E+03  0.27140206082E+03  0.79827762621E+02 0.  0.
         -6    2    1    2    0  502  0.76589349579E+02 -0.17532833566E+03 -0.16619540037E+03  0.30583536652E+03  0.17119698174E+03 0.  0.
        -24    2    5    5    0    0  0.11373566505E+03 -0.17265288248E+03 -0.13163052866E+03  0.25480765680E+03  0.69681608449E+02 0.  0.
          5    1    3    3  501    0  0.13906901362E+02  0.52376163497E+02 -0.24770378745E+03  0.25360583732E+03  0.47000000000E+01 0. -1.
        -11    1    4    4    0    0 -0.10938567227E+02 -0.97891733030E+01 -0.67177985421E+01  0.16143388250E+02  0.00000000000E+00 0.  1.
         12    1    4    4    0    0 -0.79557683714E+02  0.13274134547E+03 -0.20299581298E+03  0.25525867257E+03  0.00000000000E+00 0. -1.
         -5    1    5    5    0  502 -0.37146315476E+02 -0.26754531864E+01 -0.34564871713E+02  0.51027709724E+02  0.47000000000E+01 0.  1.
         13    1    6    6    0    0  0.19757796689E+02 -0.18989598139E+02 -0.50072002115E+02  0.57080476200E+02  0.00000000000E+00 0. -1.
        -14    1    6    6    0    0  0.93977868366E+02 -0.15366328434E+03 -0.81558526547E+02  0.19772718060E+03  0.00000000000E+00 0.  1.
<mgrwt>
<rscale>  2 0.25744944E+03</rscale>
<asrwt>0</asrwt>
<pdfrwt beam="1">  1       21 0.15940805E-01 0.25768705E+03</pdfrwt>
<pdfrwt beam="2">  1       21 0.11188123E+00 0.25768705E+03</pdfrwt>
<totfact> 0.21221436E+04</totfact>
</mgrwt>
</event>
<event>
12    1  0.1019868E-001  0.3394931E+03  0.7546771E-02  0.1067067E+00
         21   -1    0    0  503  502  0.00000000000E+00  0.00000000000E+00  0.91778904537E+03  0.91778904537E+03  0.00000000000E+00 0. -1.
         21   -1    0    0  501  503 -0.00000000000E+00 -0.00000000000E+00 -0.12565523024E+03  0.12565523024E+03  0.00000000000E+00 0.  1.
          6    2    1    2  501    0 -0.21350401589E+03 -0.19869613327E+03  0.37173494659E+03  0.50308259820E+03  0.17274580143E+03 0.  0.
         24    2    3    3    0    0 -0.60812682249E+02 -0.13483282025E+03  0.14046885560E+03  0.21865464430E+03  0.78741871569E+02 0.  0.
         -6    2    1    2    0  502  0.21350401589E+03  0.19869613327E+03  0.42039886854E+03  0.54036167742E+03  0.17375677132E+03 0.  0.
        -24    2    5    5    0    0  0.14732339136E+03  0.92168198887E+02  0.34264777439E+03  0.39272903026E+03  0.81421344768E+02 0.  0.
          5    1    3    3  501    0 -0.15269133364E+03 -0.63863313021E+02  0.23126609099E+03  0.28442795390E+03  0.47000000000E+01 0. -1.
        -13    1    4    4    0    0 -0.49822482469E+02 -0.30218359894E+02  0.27959866125E+02  0.64631131413E+02  0.00000000000E+00 0.  1.
         14    1    4    4    0    0 -0.10990199780E+02 -0.10461446036E+03  0.11250898948E+03  0.15402351288E+03  0.00000000000E+00 0. -1.
         -5    1    5    5    0  502  0.66180624535E+02  0.10652793438E+03  0.77751094146E+02  0.14763264716E+03  0.47000000000E+01 0.  1.
         13    1    6    6    0    0  0.25076949486E+01  0.40610928526E+00  0.73969058189E+02  0.74012668024E+02  0.00000000000E+00 0. -1.
        -14    1    6    6    0    0  0.14481569641E+03  0.91762089602E+02  0.26867871620E+03  0.31871636223E+03  0.00000000000E+00 0.  1.
<mgrwt>
<rscale>  2 0.33936390E+03</rscale>
<asrwt>0</asrwt>
<pdfrwt beam="1">  1       21 0.14119831E+00 0.33949305E+03</pdfrwt>
<pdfrwt beam="2">  1       21 0.19331575E-01 0.33949305E+03</pdfrwt>
<totfact> 0.78972978E+03</totfact>
</mgrwt>
</event>
<event>
12    1  0.1019868E-001  0.1938272E+03  0.7546771E-02  0.1160072E+00
         21   -1    0    0  503  502  0.00000000000E+00  0.00000000000E+00  0.25280937045E+03  0.25280937045E+03  0.00000000000E+00 0.  1.
         21   -1    0    0  501  503 -0.00000000000E+00 -0.00000000000E+00 -0.17558447270E+03  0.17558447270E+03  0.00000000000E+00 0.  1.
          6    2    1    2  501    0 -0.40790197611E+00 -0.10353703836E+02 -0.68924331811E+02  0.18564177619E+03  0.17206086128E+03 0.  0.
         24    2    3    3    0    0 -0.39073816687E+02 -0.20062153068E+02  0.11534468530E+02  0.95725061954E+02  0.84267374384E+02 0.  0.
         -6    2    1    2    0  502  0.40790197611E+00  0.10353703836E+02  0.14614922956E+03  0.24275206696E+03  0.19355000167E+03 0.  0.
        -24    2    5    5    0    0 -0.22873284964E+02 -0.22444914652E+02 -0.26872550561E+01  0.88505017741E+02  0.82455778856E+02 0.  0.
          5    1    3    3  501    0  0.38665914711E+02  0.97084492318E+01 -0.80458800341E+02  0.89916714237E+02  0.47000000000E+01 0. -1.
        -11    1    4    4    0    0  0.24978756096E+02 -0.13570416255E+02 -0.58841766689E+01  0.29029605380E+02  0.00000000000E+00 0.  1.
         12    1    4    4    0    0 -0.64052572783E+02 -0.64917368128E+01  0.17418645198E+02  0.66695456573E+02  0.00000000000E+00 0. -1.
         -5    1    5    5    0  502  0.23281186941E+02  0.32798618489E+02  0.14883648462E+03  0.15424704922E+03  0.47000000000E+01 0.  1.
         13    1    6    6    0    0 -0.14091337593E+02 -0.53676026913E+02  0.29647941284E+01  0.55574019690E+02  0.00000000000E+00 0. -1.
        -14    1    6    6    0    0 -0.87819473718E+01  0.31231112260E+02 -0.56520491846E+01  0.32930998051E+02  0.00000000000E+00 0.  1.
<mgrwt>
<rscale>  2 0.18822531E+03</rscale>
<asrwt>0</asrwt>
<pdfrwt beam="1">  1       21 0.38893750E-01 0.19382716E+03</pdfrwt>
<pdfrwt beam="2">  1       21 0.27012996E-01 0.19382716E+03</pdfrwt>
<totfact> 0.83189639E+04</totfact>
</mgrwt>
</event>
<event>
12    1  0.1019868E-001  0.1806204E+03  0.7546771E-02  0.1167297E+00
         21   -1    0    0  501  502  0.00000000000E+00  0.00000000000E+00  0.10697322454E+04  0.10697322454E+04  0.00000000000E+00 0. -1.
         21   -1    0    0  502  503 -0.00000000000E+00 -0.00000000000E+00 -0.30900914330E+02  0.30900914330E+02  0.00000000000E+00 0. -1.
         -6    2    1    2    0  503  0.47340274473E+02  0.22034277496E+02  0.58665280487E+03  0.61371515923E+03  0.17250557157E+03 0.  0.
        -24    2    3    3    0    0 -0.15112126416E+01  0.72766435568E+02  0.38426697028E+03  0.39937352608E+03  0.80875651307E+02 0.  0.
          6    2    1    2  501    0 -0.47340274473E+02 -0.22034277496E+02  0.45217852620E+03  0.48691800051E+03  0.17290780402E+03 0.  0.
         24    2    5    5    0    0 -0.84714327651E+01 -0.23276273997E+02  0.43650205061E+03  0.44472592426E+03  0.81446653837E+02 0.  0.
          5    1    5    5  501    0 -0.38868841708E+02  0.12419965013E+01  0.15676475592E+02  0.42192076247E+02  0.47000000000E+01 0. -1.
        -11    1    6    6    0    0  0.28573002692E+02  0.13187610614E+02  0.20937639159E+03  0.21172813443E+03  0.00000000000E+00 0.  1.
         12    1    6    6    0    0 -0.37044435457E+02 -0.36463884611E+02  0.22712565902E+03  0.23299778983E+03  0.00000000000E+00 0. -1.
         -5    1    3    3    0  503  0.48851487115E+02 -0.50732158072E+02  0.20238583460E+03  0.21434163315E+03  0.47000000000E+01 0.  1.
         11    1    4    4    0    0  0.20355903131E+02  0.66213509671E+02  0.16541313282E+03  0.17933236229E+03  0.00000000000E+00 0. -1.
        -12    1    4    4    0    0 -0.21867115772E+02  0.65529258972E+01  0.21885383746E+03  0.22004116378E+03  0.00000000000E+00 0.  1.
<mgrwt>
<rscale>  2 0.18052404E+03</rscale>
<asrwt>0</asrwt>
<pdfrwt beam="1">  1       21 0.16457416E+00 0.18062037E+03</pdfrwt>
<pdfrwt beam="2">  1       21 0.47539876E-02 0.18062037E+03</pdfrwt>
<totfact> 0.68771151E+04</totfact>
</mgrwt>
</event>
<event>
12    1  0.1019868E-001  0.2243707E+03  0.7546771E-02  0.1130810E+00
         21   -1    0    0  501  502  0.00000000000E+00  0.00000000000E+00  0.62893275138E+02  0.62893275138E+02  0.00000000000E+00 0. -1.
         21   -1    0    0  502  503 -0.00000000000E+00 -0.00000000000E+00 -0.81630929848E+03  0.81630929848E+03  0.00000000000E+00 0. -1.
         -6    2    1    2    0  503 -0.97427258473E+02 -0.10447616622E+03 -0.44386445982E+03  0.49735085367E+03  0.17301697302E+03 0.  0.
        -24    2    3    3    0    0 -0.91535544214E+02 -0.61839199607E+01 -0.19837798994E+03  0.23281016707E+03  0.80185723655E+02 0.  0.
          6    2    1    2  501    0  0.97427258473E+02  0.10447616622E+03 -0.30955156352E+03  0.38185171995E+03  0.17199193454E+03 0.  0.
         24    2    5    5    0    0  0.70800808588E+02  0.10430013965E+02 -0.23146349177E+03  0.25665793601E+03  0.84713684866E+02 0.  0.
          5    1    5    5  501    0  0.26626449885E+02  0.94046152260E+02 -0.78088071751E+02  0.12519378394E+03  0.47000000000E+01 0. -1.
        -13    1    6    6    0    0 -0.74643736299E+01 -0.24178991833E+02 -0.51049950599E+02  0.56977521672E+02  0.00000000000E+00 0.  1.
         14    1    6    6    0    0  0.78265182218E+02  0.34609005798E+02 -0.18041354117E+03  0.19968041433E+03  0.00000000000E+00 0. -1.
         -5    1    3    3    0  503 -0.58917142587E+01 -0.98292246264E+02 -0.24548646989E+03  0.26454068661E+03  0.47000000000E+01 0.  1.
         11    1    4    4    0    0 -0.14852840860E+02 -0.28097927078E+02 -0.10652689462E+03  0.11116690004E+03  0.00000000000E+00 0. -1.
        -12    1    4    4    0    0 -0.76682703354E+02  0.21914007118E+02 -0.91851095317E+02  0.12164326702E+03  0.00000000000E+00 0.  1.
<mgrwt>
<rscale>  2 0.22417307E+03</rscale>
<asrwt>0</asrwt>
<pdfrwt beam="1">  1       21 0.96758885E-02 0.22437070E+03</pdfrwt>
<pdfrwt beam="2">  1       21 0.12558605E+00 0.22437070E+03</pdfrwt>
<totfact> 0.39856218E+04</totfact>
</mgrwt>
</event>
<event>
12    1  0.1019868E-001  0.2127054E+03  0.7546771E-02  0.1139605E+00
         21   -1    0    0  501  502  0.00000000000E+00  0.00000000000E+00  0.52919030508E+02  0.52919030508E+02  0.00000000000E+00 0.  1.
         21   -1    0    0  502  503 -0.00000000000E+00 -0.00000000000E+00 -0.92863729709E+03  0.92863729709E+03  0.00000000000E+00 0. -1.
         -6    2    1    2    0  503 -0.10305168208E+03 -0.67779296405E+02 -0.58000982798E+03  0.61778232670E+03  0.17329143207E+03 0.  0.
        -24    2    3    3    0    0 -0.13452436783E+03 -0.22680561411E+02 -0.43367782083E+03  0.46138676358E+03  0.78677060959E+02 0.  0.
          6    2    1    2  501    0  0.10305168208E+03  0.67779296405E+02 -0.29570843861E+03  0.36377400091E+03  0.17226247668E+03 0.  0.
         24    2    5    5    0    0  0.10390765662E+01 -0.12048997796E+02 -0.95515610369E+02  0.12528210017E+03  0.80163051159E+02 0.  0.
          5    1    5    5  501    0  0.10201260551E+03  0.79828294200E+02 -0.20019282824E+03  0.23849190073E+03  0.47000000000E+01 0. -1.
        -11    1    6    6    0    0 -0.24126383351E+02 -0.14534077899E+02 -0.18097450177E+01  0.28224049514E+02  0.00000000000E+00 0.  1.
         12    1    6    6    0    0  0.25165459917E+02  0.24850801034E+01 -0.93705865351E+02  0.97058050656E+02  0.00000000000E+00 0. -1.
         -5    1    3    3    0  503  0.31472685754E+02 -0.45098734993E+02 -0.14633200715E+03  0.15639556311E+03  0.47000000000E+01 0.  1.
         13    1    4    4    0    0 -0.18567085214E+02  0.24294785750E+02 -0.60375668627E+02  0.67677135209E+02  0.00000000000E+00 0. -1.
        -14    1    4    4    0    0 -0.11595728262E+03 -0.46975347161E+02 -0.37330215220E+03  0.39370962837E+03  0.00000000000E+00 0.  1.
<mgrwt>
<rscale>  2 0.21249576E+03</rscale>
<asrwt>0</asrwt>
<pdfrwt beam="1">  1       21 0.81413900E-02 0.21270544E+03</pdfrwt>
<pdfrwt beam="2">  1       21 0.14286726E+00 0.21270544E+03</pdfrwt>
<totfact> 0.39063171E+04</totfact>
</mgrwt>
</event>
<event>
12    1  0.1019868E-001  0.2000752E+03  0.7546771E-02  0.1149716E+00
         21   -1    0    0  501  502  0.00000000000E+00  0.00000000000E+00  0.41983139936E+02  0.41983139936E+02  0.00000000000E+00 0. -1.
         21   -1    0    0  502  503 -0.00000000000E+00 -0.00000000000E+00 -0.22193145862E+04  0.22193145862E+04  0.00000000000E+00 0. -1.
         -6    2    1    2    0  503  0.99723636535E+02  0.67066358414E+01 -0.19430914083E+04  0.19533648676E+04  0.17332138503E+03 0.  0.
        -24    2    3    3    0    0  0.99749894773E+02 -0.33511027890E+02 -0.92010632502E+03  0.92957874165E+03  0.80299172454E+02 0.  0.
          6    2    1    2  501    0 -0.99723636535E+02 -0.67066358414E+01 -0.23424003800E+03  0.30793285852E+03  0.17310247632E+03 0.  0.
         24    2    5    5    0    0 -0.51276836588E+02 -0.10818909118E+02 -0.24054248282E+03  0.25868030501E+03  0.79425760268E+02 0.  0.
          5    1    5    5  501    0 -0.48446799947E+02  0.41122732767E+01  0.63024448209E+01  0.49252553511E+02  0.47000000000E+01 0. -1.
        -13    1    6    6    0    0 -0.59072923831E+02 -0.35496896078E+02 -0.18447320786E+03  0.19692639330E+03  0.00000000000E+00 0.  1.
         14    1    6    6    0    0  0.77960872432E+01  0.24677986960E+02 -0.56069274964E+02  0.61753911711E+02  0.00000000000E+00 0. -1.
         -5    1    3    3    0  503 -0.26258238166E-01  0.40217663731E+02 -0.10229850832E+04  0.10237861260E+04  0.47000000000E+01 0.  1.
         13    1    4    4    0    0  0.59033672792E+02 -0.35213915756E+02 -0.79579464158E+03  0.79875785189E+03  0.00000000000E+00 0. -1.
        -14    1    4    4    0    0  0.40716221981E+02  0.17028878665E+01 -0.12431168344E+03  0.13082088977E+03  0.00000000000E+00 0.  1.
<mgrwt>
<rscale>  2 0.20002778E+03</rscale>
<asrwt>0</asrwt>
<pdfrwt beam="1">  1       21 0.64589449E-02 0.20007520E+03</pdfrwt>
<pdfrwt beam="2">  1       21 0.34143300E+00 0.20007520E+03</pdfrwt>
<totfact> 0.33801295E+03</totfact>
</mgrwt>
</event>
<event>
12    1  0.1019868E-001  0.2167511E+03  0.7546771E-02  0.1136331E+00
         21   -1    0    0  501  502  0.00000000000E+00  0.00000000000E+00  0.88090939445E+03  0.88090939445E+03  0.00000000000E+00 0.  1.
         21   -1    0    0  502  503 -0.00000000000E+00 -0.00000000000E+00 -0.55616888587E+02  0.55616888587E+02  0.00000000000E+00 0. -1.
         -6    2    1    2    0  503 -0.90491379428E+02  0.95640742999E+02  0.31770158975E+03  0.38459760528E+03  0.17217774647E+03 0.  0.
        -24    2    3    3    0    0 -0.63138578063E+02  0.17382380170E+02  0.87726930873E+02  0.14009202084E+03  0.87413572867E+02 0.  0.
          6    2    1    2  501    0  0.90491379428E+02 -0.95640742999E+02  0.50759091611E+03  0.55192867776E+03  0.17216528612E+03 0.  0.
         24    2    5    5    0    0  0.90412888894E+02 -0.11790332966E+03  0.50031328459E+03  0.52803970863E+03  0.80230078711E+02 0.  0.
          5    1    5    5  501    0  0.78490534630E-01  0.22262586660E+02  0.72776315184E+01  0.23888969129E+02  0.47000000000E+01 0. -1.
        -13    1    6    6    0    0  0.38239216844E+02 -0.18357894000E+02  0.25107950762E+03  0.25463732861E+03  0.00000000000E+00 0.  1.
         14    1    6    6    0    0  0.52173672050E+02 -0.99545435659E+02  0.24923377697E+03  0.27340238002E+03  0.00000000000E+00 0. -1.
         -5    1    3    3    0  503 -0.27352801365E+02  0.78258362829E+02  0.22997465888E+03  0.24450558444E+03  0.47000000000E+01 0.  1.
         13    1    4    4    0    0 -0.25610987881E+02  0.46790471132E+02  0.19367423216E+02  0.56748286062E+02  0.00000000000E+00 0. -1.
        -14    1    4    4    0    0 -0.37527590182E+02 -0.29408090962E+02  0.68359507657E+02  0.83343734774E+02  0.00000000000E+00 0.  1.
<mgrwt>
<rscale>  2 0.21674858E+03</rscale>
<asrwt>0</asrwt>
<pdfrwt beam="1">  1       21 0.13552451E+00 0.21675105E+03</pdfrwt>
<pdfrwt beam="2">  1       21 0.85564451E-02 0.21675105E+03</pdfrwt>
<totfact> 0.40956928E+04</totfact>
</mgrwt>
</event>
<event>
12    1  0.1019868E-001  0.1772109E+03  0.7546771E-02  0.1170677E+00
         21   -1    0    0  501  502  0.00000000000E+00  0.00000000000E+00  0.71246687501E+02  0.71246687501E+02  0.00000000000E+00 0.  1.
         21   -1    0    0  502  503 -0.00000000000E+00 -0.00000000000E+00 -0.93352699604E+03  0.93352699604E+03  0.00000000000E+00 0.  1.
         -6    2    1    2    0  503  0.33118713673E+02  0.17127250086E+02 -0.79634214966E+03  0.81569290272E+03  0.17263806167E+03 0.  0.
        -24    2    3    3    0    0 -0.36428300061E+02 -0.26556469334E+02 -0.35175759759E+03  0.36356176201E+03  0.80071719262E+02 0.  0.
          6    2    1    2  501    0 -0.33118713673E+02 -0.17127250086E+02 -0.65938158879E+02  0.18908078082E+03  0.17324407346E+03 0.  0.
         24    2    5    5    0    0  0.25328773839E+01 -0.16068151159E+02 -0.10651818924E+03  0.13484991784E+03  0.81078818161E+02 0.  0.
          5    1    5    5  501    0 -0.35651591057E+02 -0.10590989272E+01  0.40580030356E+02  0.54230862976E+02  0.47000000000E+01 0. -1.
        -13    1    6    6    0    0 -0.18025733906E+02 -0.40731713783E+02 -0.85697240587E+02  0.96581657859E+02  0.00000000000E+00 0.  1.
         14    1    6    6    0    0  0.20558611290E+02  0.24663562624E+02 -0.20820948649E+02  0.38268259983E+02  0.00000000000E+00 0. -1.
         -5    1    3    3    0  503  0.69547013734E+02  0.43683719420E+02 -0.44458455208E+03  0.45213114072E+03  0.47000000000E+01 0.  1.
         11    1    4    4    0    0 -0.59352576115E+01 -0.38244935936E+02 -0.70587182322E+02  0.80501259095E+02  0.00000000000E+00 0. -1.
        -12    1    4    4    0    0 -0.30493042450E+02  0.11688466602E+02 -0.28117041526E+03  0.28306050291E+03  0.00000000000E+00 0.  1.
<mgrwt>
<rscale>  2 0.17706261E+03</rscale>
<asrwt>0</asrwt>
<pdfrwt beam="1">  1       21 0.10961029E-01 0.17721089E+03</pdfrwt>
<pdfrwt beam="2">  1       21 0.14361953E+00 0.17721089E+03</pdfrwt>
<totfact> 0.23331659E+04</totfact>
</mgrwt>
</event>
<event>
12    1  0.1019868E-001  0.1897929E+03  0.7546771E-02  0.1158969E+00
         21   -1    0    0  501  502  0.00000000000E+00  0.00000000000E+00  0.29848146895E+03  0.29848146895E+03  0.00000000000E+00 0.  1.
         21   -1    0    0  502  503 -0.00000000000E+00 -0.00000000000E+00 -0.13109645005E+03  0.13109645005E+03  0.00000000000E+00 0.  1.
         -6    2    1    2    0  503 -0.77758161315E+02  0.22465321004E+01  0.14707028496E+03  0.24010625517E+03  0.17311835979E+03 0.  0.
        -24    2    3    3    0    0 -0.10858242777E+03  0.34930748000E+02  0.12691408974E+03  0.19064156496E+03  0.85010113175E+02 0.  0.
          6    2    1    2  501    0  0.77758161315E+02 -0.22465321004E+01  0.20314733929E+02  0.18947166383E+03  0.17156760889E+03 0.  0.
         24    2    5    5    0    0  0.12011727439E+03  0.13809426060E+02  0.17098352510E+02  0.14381508312E+03  0.75970814260E+02 0.  0.
          5    1    5    5  501    0 -0.42359113071E+02 -0.16055958160E+02  0.32163814185E+01  0.45656580709E+02  0.47000000000E+01 0. -1.
        -11    1    6    6    0    0  0.71798565936E+02 -0.29622569645E+02  0.59598257889E+01  0.77897690764E+02  0.00000000000E+00 0.  1.
         12    1    6    6    0    0  0.48318708450E+02  0.43431995704E+02  0.11138526721E+02  0.65917392353E+02  0.00000000000E+00 0. -1.
         -5    1    3    3    0  503  0.30824266455E+02 -0.32684215900E+02  0.20156195229E+02  0.49464690210E+02  0.47000000000E+01 0.  1.
         13    1    4    4    0    0  0.93772194609E+01  0.37782740056E+01  0.38930892498E+02  0.40222157948E+02  0.00000000000E+00 0. -1.
        -14    1    4    4    0    0 -0.11795964723E+03  0.31152473995E+02  0.87983197237E+02  0.15041940702E+03  0.00000000000E+00 0.  1.
<mgrwt>
<rscale>  2 0.18943855E+03</rscale>
<asrwt>0</asrwt>
<pdfrwt beam="1">  1       21 0.45920226E-01 0.18979290E+03</pdfrwt>
<pdfrwt beam="2">  1       21 0.20168685E-01 0.18979290E+03</pdfrwt>
<totfact> 0.10340111E+05</totfact>
</mgrwt>
</event>
<event>
12    1  0.1019868E-001  0.1885692E+03  0.7546771E-02  0.1159872E+00
         21   -1    0    0  501  502  0.00000000000E+00  0.00000000000E+00  0.72838427076E+02  0.72838427076E+02  0.00000000000E+00 0.  1.
         21   -1    0    0  502  503 -0.00000000000E+00 -0.00000000000E+00 -0.53214505899E+03  0.53214505899E+03  0.00000000000E+00 0.  1.
         -6    2    1    2    0  503  0.59032433973E+02 -0.42627564291E+02 -0.31758620704E+03  0.36909576382E+03  0.17340342116E+03 0.  0.
        -24    2    3    3    0    0 -0.14218703417E+02  0.51872740863E+01 -0.70508692556E+02  0.10694814117E+03  0.78976894310E+02 0.  0.
          6    2    1    2  501    0 -0.59032433973E+02  0.42627564291E+02 -0.14172042487E+03  0.23588772224E+03  0.17394367244E+03 0.  0.
         24    2    5    5    0    0 -0.56907322747E+02 -0.12785918799E+02 -0.18854879508E+02  0.10100554238E+03  0.80278826655E+02 0.  0.
          5    1    5    5  501    0 -0.21251112258E+01  0.55413483090E+02 -0.12286554536E+03  0.13488217986E+03  0.47000000000E+01 0. -1.
        -13    1    6    6    0    0 -0.55412643810E+02  0.14198464879E+02  0.13574276233E+02  0.58791312914E+02  0.00000000000E+00 0.  1.
         14    1    6    6    0    0 -0.14946789371E+01 -0.26984383678E+02 -0.32429155741E+02  0.42214229469E+02  0.00000000000E+00 0. -1.
         -5    1    3    3    0  503  0.73251137389E+02 -0.47814838377E+02 -0.24707751448E+03  0.26214762265E+03  0.47000000000E+01 0.  1.
         11    1    4    4    0    0  0.19582460753E+02  0.20640315717E+02 -0.14078774535E+01  0.28486444512E+02  0.00000000000E+00 0. -1.
        -12    1    4    4    0    0 -0.33801164169E+02 -0.15453041630E+02 -0.69100815102E+02  0.78461696659E+02  0.00000000000E+00 0.  1.
<mgrwt>
<rscale>  2 0.18844451E+03</rscale>
<asrwt>0</asrwt>
<pdfrwt beam="1">  1       21 0.11205911E-01 0.18856919E+03</pdfrwt>
<pdfrwt beam="2">  1       21 0.81868475E-01 0.18856919E+03</pdfrwt>
<totfact> 0.86697805E+04</totfact>
</mgrwt>
</event>
<event>
12    1  0.1019868E-001  0.1809250E+03  0.7546771E-02  0.1167219E+00
         21   -1    0    0  501  502  0.00000000000E+00  0.00000000000E+00  0.53462991708E+03  0.53462991708E+03  0.00000000000E+00 0. -1.
         21   -1    0    0  502  503 -0.00000000000E+00 -0.00000000000E+00 -0.61033108487E+02  0.61033108487E+02  0.00000000000E+00 0. -1.
         -6    2    1    2    0  503 -0.62853457347E+00  0.50826694475E+02  0.21739144847E+03  0.28201509071E+03  0.17230705612E+03 0.  0.
        -24    2    3    3    0    0 -0.59551367133E+02  0.63078241613E+02  0.15263205655E+03  0.19348334811E+03  0.81326695608E+02 0.  0.
          6    2    1    2  501    0  0.62853457347E+00 -0.50826694475E+02  0.25620536012E+03  0.31364793486E+03  0.17363782008E+03 0.  0.
         24    2    5    5    0    0 -0.67557721915E+02 -0.37323541678E+02  0.15645498151E+03  0.19197653829E+03  0.80123264180E+02 0.  0.
          5    1    5    5  501    0  0.68186256489E+02 -0.13503152797E+02  0.99750378617E+02  0.12167139657E+03  0.47000000000E+01 0. -1.
        -13    1    6    6    0    0  0.15740753546E+02 -0.84156932785E+01  0.85666482944E+01  0.19798552436E+02  0.00000000000E+00 0.  1.
         14    1    6    6    0    0 -0.83298475462E+02 -0.28907848399E+02  0.14788833321E+03  0.17217798586E+03  0.00000000000E+00 0. -1.
         -5    1    3    3    0  503  0.58922832560E+02 -0.12251547138E+02  0.64759391922E+02  0.88531742591E+02  0.47000000000E+01 0.  1.
         13    1    4    4    0    0 -0.28059106205E+01  0.47741364860E+02  0.27338584178E+02  0.55086379786E+02  0.00000000000E+00 0. -1.
        -14    1    4    4    0    0 -0.56745456513E+02  0.15336876753E+02  0.12529347237E+03  0.13839696833E+03  0.00000000000E+00 0.  1.
<mgrwt>
<rscale>  2 0.18060492E+03</rscale>
<asrwt>0</asrwt>
<pdfrwt beam="1">  1       21 0.82250753E-01 0.18092496E+03</pdfrwt>
<pdfrwt beam="2">  1       21 0.93897094E-02 0.18092496E+03</pdfrwt>
<totfact> 0.11762199E+05</totfact>
</mgrwt>
</event>
<event>
12    1  0.1019868E-001  0.2390314E+03  0.7546771E-02  0.1120628E+00
         21   -1    0    0  501  502  0.00000000000E+00  0.00000000000E+00  0.31143041307E+03  0.31143041307E+03  0.00000000000E+00 0.  1.
         21   -1    0    0  502  503 -0.00000000000E+00 -0.00000000000E+00 -0.37598831002E+03  0.37598831002E+03  0.00000000000E+00 0.  1.
         -6    2    1    2    0  503  0.78994308841E+02  0.14459428615E+03 -0.27874206946E+03  0.36646566833E+03  0.17161683005E+03 0.  0.
        -24    2    3    3    0    0  0.30392604798E+02  0.11993740352E+02 -0.15945336752E+03  0.18154158987E+03  0.80401568422E+02 0.  0.
          6    2    1    2  501    0 -0.78994308841E+02 -0.14459428615E+03  0.21418417251E+03  0.32095305476E+03  0.17317157732E+03 0.  0.
         24    2    5    5    0    0 -0.11258660405E+03 -0.14163209848E+03  0.20695713817E+03  0.28614591643E+03  0.79453343028E+02 0.  0.
          5    1    5    5  501    0  0.33592295213E+02 -0.29621876746E+01  0.72270343362E+01  0.34807138331E+02  0.47000000000E+01 0. -1.
        -11    1    6    6    0    0 -0.42738390502E+02 -0.91252651577E+01  0.73587401861E+02  0.85585899537E+02  0.00000000000E+00 0.  1.
         12    1    6    6    0    0 -0.69848213552E+02 -0.13250683332E+03  0.13336973631E+03  0.20056001689E+03  0.00000000000E+00 0. -1.
         -5    1    3    3    0  503  0.48601704042E+02  0.13260054580E+03 -0.11928870194E+03  0.18492407846E+03  0.47000000000E+01 0.  1.
         11    1    4    4    0    0 -0.21248282270E+01  0.23228245272E+02 -0.14017997699E+03  0.14210732642E+03  0.00000000000E+00 0. -1.
        -12    1    4    4    0    0  0.32517433025E+02 -0.11234504920E+02 -0.19273390533E+02  0.39434263452E+02  0.00000000000E+00 0.  1.
<mgrwt>
<rscale>  2 0.23874990E+03</rscale>
<asrwt>0</asrwt>
<pdfrwt beam="1">  1       21 0.47912371E-01 0.23903139E+03</pdfrwt>
<pdfrwt beam="2">  1       21 0.57844356E-01 0.23903139E+03</pdfrwt>
<totfact> 0.11335003E+04</totfact>
</mgrwt>
</event>
<event>
12    1  0.1019868E-001  0.1866808E+03  0.7546771E-02  0.1161504E+00
         21   -1    0    0  503  502  0.00000000000E+00  0.00000000000E+00  0.40423367488E+03  0.40423367488E+03  0.00000000000E+00 0.  1.
         21   -1    0    0  501  503 -0.00000000000E+00 -0.00000000000E+00 -0.15212403524E+03  0.15212403524E+03  0.00000000000E+00 0.  1.
          6    2    1    2  501    0 -0.29016470733E+02 -0.64426636345E+02 -0.57105276183E+02  0.19516027580E+03  0.17272456004E+03 0.  0.
         24    2    3    3    0    0 -0.30686537267E+02 -0.89453454759E+02 -0.89346025287E+02  0.15404231544E+03  0.82478715875E+02 0.  0.
         -6    2    1    2    0  502  0.29016470733E+02  0.64426636345E+02  0.30921491582E+03  0.36119743432E+03  0.17279171086E+03 0.  0.
        -24    2    5    5    0    0 -0.11266462744E+02  0.44606237498E+02  0.92487439248E+02  0.13981890771E+03  0.94227124159E+02 0.  0.
          5    1    3    3  501    0  0.16700665341E+01  0.25026818414E+02  0.32240749104E+02  0.41117960369E+02  0.47000000000E+01 0. -1.
        -11    1    4    4    0    0 -0.26953256089E+02 -0.44492044101E+02 -0.95262245443E+02  0.10853992541E+03  0.00000000000E+00 0.  1.
         12    1    4    4    0    0 -0.37332811783E+01 -0.44961410657E+02  0.59162201564E+01  0.45502390021E+02  0.00000000000E+00 0. -1.
         -5    1    5    5    0  502  0.40282933477E+02  0.19820398848E+02  0.21672747658E+03  0.22137852661E+03  0.47000000000E+01 0.  1.
         11    1    6    6    0    0 -0.69694276239E+01 -0.42071111775E+01  0.90406855479E+02  0.90772640280E+02  0.00000000000E+00 0. -1.
        -12    1    6    6    0    0 -0.42970351197E+01  0.48813348675E+02  0.20805837695E+01  0.49046267427E+02  0.00000000000E+00 0.  1.
<mgrwt>
<rscale>  2 0.18666526E+03</rscale>
<asrwt>0</asrwt>
<pdfrwt beam="1">  1       21 0.62189796E-01 0.18668080E+03</pdfrwt>
<pdfrwt beam="2">  1       21 0.23403698E-01 0.18668080E+03</pdfrwt>
<totfact> 0.41314838E+04</totfact>
</mgrwt>
</event>
<event>
12    1  0.1019868E-001  0.2000815E+03  0.7546771E-02  0.1149931E+00
         21   -1    0    0  503  502  0.00000000000E+00  0.00000000000E+00  0.28204633497E+03  0.28204633497E+03  0.00000000000E+00 0.  1.
         21   -1    0    0  501  503 -0.00000000000E+00 -0.00000000000E+00 -0.88452461760E+03  0.88452461760E+03  0.00000000000E+00 0. -1.
          6    2    1    2  501    0  0.21189967643E+02  0.96316152562E+02 -0.83584608568E+03  0.85917358149E+03  0.17266947679E+03 0.  0.
         24    2    3    3    0    0 -0.68973249965E+01  0.33909493718E+00 -0.56718165881E+03  0.57246265413E+03  0.77270746182E+02 0.  0.
         -6    2    1    2    0  502 -0.21189967643E+02 -0.96316152562E+02  0.23336780305E+03  0.30739737109E+03  0.17408847257E+03 0.  0.
        -24    2    5    5    0    0 -0.74619791907E+01 -0.88221449645E+02  0.25407969614E+03  0.28084451064E+03  0.80488768514E+02 0.  0.
          5    1    3    3  501    0  0.28087292640E+02  0.95977057625E+02 -0.26866442687E+03  0.28671092735E+03  0.47000000000E+01 0. -1.
        -11    1    4    4    0    0 -0.39359521784E+02 -0.56054797515E+01 -0.20780660459E+03  0.21157546707E+03  0.00000000000E+00 0.  1.
         12    1    4    4    0    0  0.32462196787E+02  0.59445746887E+01 -0.35937505422E+03  0.36088718706E+03  0.00000000000E+00 0. -1.
         -5    1    5    5    0  502 -0.13727988453E+02 -0.80947029169E+01 -0.20711893094E+02  0.26552860445E+02  0.47000000000E+01 0.  1.
         11    1    6    6    0    0 -0.39828142618E+02 -0.20970125539E+02  0.97199429453E+02  0.10711562069E+03  0.00000000000E+00 0. -1.
        -12    1    6    6    0    0  0.32366163428E+02 -0.67251324106E+02  0.15688026669E+03  0.17372888996E+03  0.00000000000E+00 0.  1.
<mgrwt>
<rscale>  2 0.19977244E+03</rscale>
<asrwt>0</asrwt>
<pdfrwt beam="1">  1       21 0.43391745E-01 0.20008151E+03</pdfrwt>
<pdfrwt beam="2">  1       21 0.13608071E+00 0.20008151E+03</pdfrwt>
<totfact> 0.19515971E+03</totfact>
</mgrwt>
</event>
<event>
12    1  0.1019868E-001  0.1804926E+03  0.7546771E-02  0.1167384E+00
         21   -1    0    0  501  502  0.00000000000E+00  0.00000000000E+00  0.24303654443E+03  0.24303654443E+03  0.00000000000E+00 0.  1.
         21   -1    0    0  502  503 -0.00000000000E+00 -0.00000000000E+00 -0.13387329728E+03  0.13387329728E+03  0.00000000000E+00 0.  1.
         -6    2    1    2    0  503 -0.31678037695E+02  0.31993028915E+02  0.55826792624E+02  0.18892909625E+03  0.17478707236E+03 0.  0.
        -24    2    3    3    0    0  0.40940744052E+02  0.33452796820E+02  0.62903546356E+02  0.11580051888E+03  0.81594545711E+02 0.  0.
          6    2    1    2  501    0  0.31678037695E+02 -0.31993028915E+02  0.53336454529E+02  0.18798074546E+03  0.17454206172E+03 0.  0.
         24    2    5    5    0    0 -0.31648821421E+02 -0.22971471034E+01  0.62302095524E+02  0.11730819633E+03  0.94195207081E+02 0.  0.
          5    1    5    5  501    0  0.63326859116E+02 -0.29695881811E+02 -0.89656409954E+01  0.70672549130E+02  0.47000000000E+01 0. -1.
        -11    1    6    6    0    0  0.43683361884E+01 -0.43417994881E+02  0.36362914358E+02  0.56801990996E+02  0.00000000000E+00 0.  1.
         12    1    6    6    0    0 -0.36017157609E+02  0.41120847777E+02  0.25939181166E+02  0.60506205333E+02  0.00000000000E+00 0. -1.
         -5    1    3    3    0  503 -0.72618781746E+02 -0.14597679056E+01 -0.70767537315E+01  0.73128577369E+02  0.47000000000E+01 0.  1.
         11    1    4    4    0    0  0.43771948840E+02 -0.16735336518E+02  0.27779852562E+02  0.54477290700E+02  0.00000000000E+00 0. -1.
        -12    1    4    4    0    0 -0.28312047883E+01  0.50188133338E+02  0.35123693793E+02  0.61323228178E+02  0.00000000000E+00 0.  1.
<mgrwt>
<rscale>  2 0.18043324E+03</rscale>
<asrwt>0</asrwt>
<pdfrwt beam="1">  1       21 0.37390238E-01 0.18049258E+03</pdfrwt>
<pdfrwt beam="2">  1       21 0.20595892E-01 0.18049258E+03</pdfrwt>
<totfact> 0.15131960E+05</totfact>
</mgrwt>
</event>
<event>
12    1  0.1019868E-001  0.2268155E+03  0.7546771E-02  0.1129089E+00
         21   -1    0    0  501  502  0.00000000000E+00  0.00000000000E+00  0.10257326311E+04  0.10257326311E+04  0.00000000000E+00 0.  1.
         21   -1    0    0  502  503 -0.00000000000E+00 -0.00000000000E+00 -0.51273183646E+02  0.51273183646E+02  0.00000000000E+00 0.  1.
         -6    2    1    2    0  503  0.12372287285E+02 -0.14435456055E+03  0.39879499941E+03  0.45826934407E+03  0.17315319087E+03 0.  0.
        -24    2    3    3    0    0  0.29771211798E+02 -0.75836871914E+02  0.10928180715E+03  0.16021335146E+03  0.84191736055E+02 0.  0.
          6    2    1    2  501    0 -0.12372287285E+02  0.14435456055E+03  0.57566444800E+03  0.61873647064E+03  0.17451060359E+03 0.  0.
         24    2    5    5    0    0 -0.62244645660E+02  0.37440466075E+02  0.29457308203E+03  0.31385563860E+03  0.80348471090E+02 0.  0.
          5    1    5    5  501    0  0.49872358375E+02  0.10691409448E+03  0.28109136597E+03  0.30488083204E+03  0.47000000000E+01 0. -1.
        -13    1    6    6    0    0 -0.36387998023E+02  0.40343433597E+02  0.74263539748E+02  0.92014957319E+02  0.00000000000E+00 0.  1.
         14    1    6    6    0    0 -0.25856647637E+02 -0.29029675219E+01  0.22030954228E+03  0.22184068128E+03  0.00000000000E+00 0. -1.
         -5    1    3    3    0  503 -0.17398924513E+02 -0.68517688636E+02  0.28951319227E+03  0.29805599260E+03  0.47000000000E+01 0.  1.
         13    1    4    4    0    0 -0.48753965774E+01  0.13542439090E+02  0.38356172089E+02  0.40967829886E+02  0.00000000000E+00 0. -1.
        -14    1    4    4    0    0  0.34646608375E+02 -0.89379311004E+02  0.70925635059E+02  0.11924552158E+03  0.00000000000E+00 0.  1.
<mgrwt>
<rscale>  2 0.22655435E+03</rscale>
<asrwt>0</asrwt>
<pdfrwt beam="1">  1       21 0.15780500E+00 0.22681548E+03</pdfrwt>
<pdfrwt beam="2">  1       21 0.78881829E-02 0.22681548E+03</pdfrwt>
<totfact> 0.31467228E+04</totfact>
</mgrwt>
</event>
<event>
12    1  0.1019868E-001  0.1945282E+03  0.7546771E-02  0.1154699E+00
         21   -1    0    0  501  502  0.00000000000E+00  0.00000000000E+00  0.25390694154E+02  0.25390694154E+02  0.00000000000E+00 0. -1.
         21   -1    0    0  502  503 -0.00000000000E+00 -0.00000000000E+00 -0.15494826178E+04  0.15494826178E+04  0.00000000000E+00 0. -1.
         -6    2    1    2    0  503 -0.60581917077E+02  0.64483310501E+02 -0.92945319645E+03  0.94959172886E+03  0.17324243450E+03 0.  0.
        -24    2    3    3    0    0  0.99552172529E+01  0.85650215068E+02 -0.50798126665E+03  0.52170833028E+03  0.81850772289E+02 0.  0.
          6    2    1    2  501    0  0.60581917077E+02 -0.64483310501E+02 -0.59463872721E+03  0.62528158312E+03  0.17191153618E+03 0.  0.
         24    2    5    5    0    0 -0.27049619380E+02 -0.57443387240E+02 -0.25887303430E+03  0.27816555462E+03  0.79557546733E+02 0.  0.
          5    1    5    5  501    0  0.87631536457E+02 -0.70399232610E+01 -0.33576569291E+03  0.34711602850E+03  0.47000000000E+01 0. -1.
        -13    1    6    6    0    0 -0.38748049737E+02 -0.11666284426E+02 -0.19241268777E+03  0.19662186034E+03  0.00000000000E+00 0.  1.
         14    1    6    6    0    0  0.11698430357E+02 -0.45777102815E+02 -0.66460346533E+02  0.81543694276E+02  0.00000000000E+00 0. -1.
         -5    1    3    3    0  503 -0.70537134330E+02 -0.21166904567E+02 -0.42147192980E+03  0.42788339857E+03  0.47000000000E+01 0.  1.
         13    1    4    4    0    0 -0.33749747163E+02  0.58176308029E+02 -0.28423259896E+03  0.29208166420E+03  0.00000000000E+00 0. -1.
        -14    1    4    4    0    0  0.43704964416E+02  0.27473907039E+02 -0.22374866769E+03  0.22962666608E+03  0.00000000000E+00 0.  1.
<mgrwt>
<rscale>  2 0.19423141E+03</rscale>
<asrwt>0</asrwt>
<pdfrwt beam="1">  1       21 0.39062614E-02 0.19452817E+03</pdfrwt>
<pdfrwt beam="2">  1       21 0.23838189E+00 0.19452817E+03</pdfrwt>
<totfact> 0.31713856E+04</totfact>
</mgrwt>
</event>
<event>
12    1  0.1019868E-001  0.1827694E+03  0.7546771E-02  0.1165204E+00
         21   -1    0    0  501  502  0.00000000000E+00  0.00000000000E+00  0.48840228172E+03  0.48840228172E+03  0.00000000000E+00 0. -1.
         21   -1    0    0  502  503 -0.00000000000E+00 -0.00000000000E+00 -0.71288862046E+02  0.71288862046E+02  0.00000000000E+00 0. -1.
         -6    2    1    2    0  503  0.32643305319E+02 -0.47329323682E+02  0.26588404219E+03  0.32264375129E+03  0.17349068013E+03 0.  0.
        -24    2    3    3    0    0 -0.30555250493E+02 -0.62065004354E+02  0.12092601985E+03  0.16375348733E+03  0.86060526588E+02 0.  0.
          6    2    1    2  501    0 -0.32643305319E+02  0.47329323682E+02  0.15122937748E+03  0.23704739248E+03  0.17324979481E+03 0.  0.
         24    2    5    5    0    0  0.72135952237E+01  0.84291812921E+02  0.61988278423E+02  0.13244881747E+03  0.80888793452E+02 0.  0.
          5    1    5    5  501    0 -0.39856900543E+02 -0.36962489239E+02  0.89241099059E+02  0.10459857500E+03  0.47000000000E+01 0. -1.
        -11    1    6    6    0    0 -0.18238820246E+01 -0.51687891622E+01  0.39345878127E+02  0.39725823498E+02  0.00000000000E+00 0.  1.
         12    1    6    6    0    0  0.90374772483E+01  0.89460602083E+02  0.22642400296E+02  0.92722993973E+02  0.00000000000E+00 0. -1.
         -5    1    3    3    0  503  0.63198555812E+02  0.14735680672E+02  0.14495802235E+03  0.15889026397E+03  0.47000000000E+01 0.  1.
         13    1    4    4    0    0 -0.51906675984E+02 -0.94399615646E+01  0.48031069950E+02  0.71347036144E+02  0.00000000000E+00 0. -1.
        -14    1    4    4    0    0  0.21351425491E+02 -0.52625042789E+02  0.72894949899E+02  0.92406451181E+02  0.00000000000E+00 0.  1.
<mgrwt>
<rscale>  2 0.18271225E+03</rscale>
<asrwt>0</asrwt>
<pdfrwt beam="1">  1       21 0.75138811E-01 0.18276943E+03</pdfrwt>
<pdfrwt beam="2">  1       21 0.10967518E-01 0.18276943E+03</pdfrwt>
<totfact> 0.10949398E+05</totfact>
</mgrwt>
</event>
<event>
12    1  0.1019868E-001  0.2149378E+03  0.7546771E-02  0.1138341E+00
         21   -1    0    0  501  502  0.00000000000E+00  0.00000000000E+00  0.33217374876E+03  0.33217374876E+03  0.00000000000E+00 0.  1.
         21   -1    0    0  502  503 -0.00000000000E+00 -0.00000000000E+00 -0.16400004580E+03  0.16400004580E+03  0.00000000000E+00 0.  1.
         -6    2    1    2    0  503  0.82753551300E+02  0.90585380814E+02 -0.17121654258E+02  0.21239108101E+03  0.17251944464E+03 0.  0.
        -24    2    3    3    0    0  0.38721272415E+02  0.60267002345E+02 -0.76821820714E+02  0.13211502274E+03  0.80133255184E+02 0.  0.
          6    2    1    2  501    0 -0.82753551300E+02 -0.90585380814E+02  0.18529535722E+03  0.28378271355E+03  0.17647775392E+03 0.  0.
         24    2    5    5    0    0 -0.60031840891E+02 -0.68190127091E+02  0.21048089602E+03  0.24286542041E+03  0.80172872513E+02 0.  0.
          5    1    5    5  501    0 -0.22721710409E+02 -0.22395253723E+02 -0.25185538798E+02  0.40917293138E+02  0.47000000000E+01 0. -1.
        -11    1    6    6    0    0  0.14335872099E+02 -0.80572137298E+01  0.66981708793E+01  0.17756728726E+02  0.00000000000E+00 0.  1.
         12    1    6    6    0    0 -0.74367712990E+02 -0.60132913361E+02  0.20378272514E+03  0.22510869168E+03  0.00000000000E+00 0. -1.
         -5    1    3    3    0  503  0.44032278885E+02  0.30318378469E+02  0.59700166455E+02  0.80276058271E+02  0.47000000000E+01 0.  1.
         11    1    4    4    0    0  0.34809183919E+02 -0.50370054122E+01 -0.59625309246E+01  0.35673554402E+02  0.00000000000E+00 0. -1.
        -12    1    4    4    0    0  0.39120884960E+01  0.65304007757E+02 -0.70859289789E+02  0.96441468336E+02  0.00000000000E+00 0.  1.
<mgrwt>
<rscale>  2 0.21412370E+03</rscale>
<asrwt>0</asrwt>
<pdfrwt beam="1">  1       21 0.51103654E-01 0.21493780E+03</pdfrwt>
<pdfrwt beam="2">  1       21 0.25230776E-01 0.21493780E+03</pdfrwt>
<totfact> 0.53617292E+04</totfact>
</mgrwt>
</event>
<event>
12    1  0.1019868E-001  0.2388531E+03  0.7546771E-02  0.1120784E+00
         21   -1    0    0  501  502  0.00000000000E+00  0.00000000000E+00  0.16289713587E+04  0.16289713587E+04  0.00000000000E+00 0. -1.
         21   -1    0    0  502  503 -0.00000000000E+00 -0.00000000000E+00 -0.44166150238E+02  0.44166150238E+02  0.00000000000E+00 0.  1.
         -6    2    1    2    0  503  0.27817067366E+02 -0.16163675002E+03  0.40946159158E+03  0.47403542737E+03  0.17363917539E+03 0.  0.
        -24    2    3    3    0    0  0.29764426509E+02 -0.12074766262E+02  0.12569174642E+03  0.15322396527E+03  0.81531879344E+02 0.  0.
          6    2    1    2  501    0 -0.27817067366E+02  0.16163675002E+03  0.11753436168E+04  0.11991020815E+04  0.17179335286E+03 0.  0.
         24    2    5    5    0    0 -0.81972173500E+02  0.12803118301E+03  0.78812120798E+03  0.80664139104E+03  0.80149074992E+02 0.  0.
          5    1    5    5  501    0  0.54155106133E+02  0.33605567010E+02  0.38722240885E+03  0.39246069048E+03  0.47000000000E+01 0. -1.
        -11    1    6    6    0    0 -0.37718211945E+02  0.26035141764E+02  0.40881280587E+03  0.41137379883E+03  0.00000000000E+00 0.  1.
         12    1    6    6    0    0 -0.44253961554E+02  0.10199604124E+03  0.37930840211E+03  0.39526759221E+03  0.00000000000E+00 0. -1.
         -5    1    3    3    0  503 -0.19473591428E+01 -0.14956198375E+03  0.28376984516E+03  0.32081146210E+03  0.47000000000E+01 0.  1.
         13    1    4    4    0    0  0.41859377025E+02 -0.39564333348E+02  0.82562554367E+02  0.10066836296E+03  0.00000000000E+00 0. -1.
        -14    1    4    4    0    0 -0.12094950516E+02  0.27489567087E+02  0.43129192055E+02  0.52555602308E+02  0.00000000000E+00 0.  1.
<mgrwt>
<rscale>  2 0.23851775E+03</rscale>
<asrwt>0</asrwt>
<pdfrwt beam="1">  1       21 0.25061093E+00 0.23885307E+03</pdfrwt>
<pdfrwt beam="2">  1       21 0.67947936E-02 0.23885307E+03</pdfrwt>
<totfact> 0.10084688E+04</totfact>
</mgrwt>
</event>
<event>
12    1  0.1019868E-001  0.1755903E+03  0.7546771E-02  0.1173989E+00
         21   -1    0    0  503  502  0.00000000000E+00  0.00000000000E+00  0.27938203729E+03  0.27938203729E+03  0.00000000000E+00 0.  1.
         21   -1    0    0  501  503 -0.00000000000E+00 -0.00000000000E+00 -0.26313568099E+03  0.26313568099E+03  0.00000000000E+00 0.  1.
          6    2    1    2  501    0 -0.19067289044E+02 -0.19352563131E+02 -0.20164066852E+03  0.26268434909E+03  0.16615060892E+03 0.  0.
         24    2    3    3    0    0 -0.70351140504E+02  0.27683651316E+02 -0.92150088207E+02  0.13286633775E+03  0.58703981389E+02 0.  0.
         -6    2    1    2    0  502  0.19067289044E+02  0.19352563131E+02  0.21788702482E+03  0.27983336919E+03  0.17347586493E+03 0.  0.
        -24    2    5    5    0    0  0.48034814856E+02 -0.41532360100E+02  0.16582597793E+03  0.19451904429E+03  0.79417398996E+02 0.  0.
          5    1    3    3  501    0  0.51283851460E+02 -0.47036214447E+02 -0.10949058031E+03  0.12981801133E+03  0.47000000000E+01 0. -1.
        -13    1    4    4    0    0 -0.21848045075E+02 -0.65813026933E+01 -0.62409441509E+02  0.66449898482E+02  0.00000000000E+00 0.  1.
         14    1    4    4    0    0 -0.48503095428E+02  0.34264954010E+02 -0.29740646698E+02  0.66416439271E+02  0.00000000000E+00 0. -1.
         -5    1    5    5    0  502 -0.28967525813E+02  0.60884923231E+02  0.52061046895E+02  0.85314324895E+02  0.47000000000E+01 0.  1.
         13    1    6    6    0    0  0.37350771756E+02  0.11574418704E+02  0.33342182062E+02  0.51388212887E+02  0.00000000000E+00 0. -1.
        -14    1    6    6    0    0  0.10684043100E+02 -0.53106778805E+02  0.13248379586E+03  0.14313083140E+03  0.00000000000E+00 0.  1.
<mgrwt>
<rscale>  2 0.17375338E+03</rscale>
<asrwt>0</asrwt>
<pdfrwt beam="1">  1       21 0.42981852E-01 0.17559032E+03</pdfrwt>
<pdfrwt beam="2">  1       21 0.40482413E-01 0.17559032E+03</pdfrwt>
<totfact> 0.30887113E+04</totfact>
</mgrwt>
</event>
<event>
12    1  0.1019868E-001  0.2044399E+03  0.7546771E-02  0.1146637E+00
         21   -1    0    0  501  502  0.00000000000E+00  0.00000000000E+00  0.82163129828E+03  0.82163129828E+03  0.00000000000E+00 0.  1.
         21   -1    0    0  502  503 -0.00000000000E+00 -0.00000000000E+00 -0.82523853965E+02  0.82523853965E+02  0.00000000000E+00 0.  1.
         -6    2    1    2    0  503  0.97374548861E+02 -0.38580761773E+02  0.88030849874E+02  0.22258728297E+03  0.17557160950E+03 0.  0.
        -24    2    3    3    0    0  0.19195787575E+02 -0.16877895184E+02 -0.20495404723E+02  0.87003467298E+02  0.80599008063E+02 0.  0.
          6    2    1    2  501    0 -0.97374548861E+02  0.38580761773E+02  0.65107659444E+03  0.68156786928E+03  0.17223167728E+03 0.  0.
         24    2    5    5    0    0  0.57255679558E+01  0.34502211141E+02  0.20216101569E+03  0.22092315205E+03  0.81943749890E+02 0.  0.
          5    1    5    5  501    0 -0.10310011682E+03  0.40785506321E+01  0.44891557875E+03  0.46064471722E+03  0.47000000000E+01 0. -1.
        -11    1    6    6    0    0 -0.37269066050E+02  0.66476477013E+01  0.87455740257E+02  0.95297854163E+02  0.00000000000E+00 0.  1.
         12    1    6    6    0    0  0.42994634006E+02  0.27854563439E+02  0.11470527543E+03  0.12562529789E+03  0.00000000000E+00 0. -1.
         -5    1    3    3    0  503  0.78178761286E+02 -0.21702866588E+02  0.10852625460E+03  0.13558381567E+03  0.47000000000E+01 0.  1.
         13    1    4    4    0    0 -0.23839550315E+02  0.16003786409E+02 -0.15459371160E+02  0.32610389377E+02  0.00000000000E+00 0. -1.
        -14    1    4    4    0    0  0.43035337890E+02 -0.32881681594E+02 -0.50360335626E+01  0.54393077921E+02  0.00000000000E+00 0.  1.
<mgrwt>
<rscale>  2 0.20372084E+03</rscale>
<asrwt>0</asrwt>
<pdfrwt beam="1">  1       21 0.12640481E+00 0.20443989E+03</pdfrwt>
<pdfrwt beam="2">  1       21 0.12695978E-01 0.20443989E+03</pdfrwt>
<totfact> 0.24423881E+04</totfact>
</mgrwt>
</event>
<event>
12    1  0.1019868E-001  0.1789023E+03  0.7546771E-02  0.1170016E+00
         21   -1    0    0  501  502  0.00000000000E+00  0.00000000000E+00  0.57193725346E+02  0.57193725346E+02  0.00000000000E+00 0. -1.
         21   -1    0    0  502  503 -0.00000000000E+00 -0.00000000000E+00 -0.17992632336E+04  0.17992632336E+04  0.00000000000E+00 0. -1.
         -6    2    1    2    0  503 -0.10848323390E+02 -0.21609581338E+02 -0.16494155140E+04  0.16590893800E+04  0.17726074853E+03 0.  0.
        -24    2    3    3    0    0 -0.38620478699E+02 -0.69441706298E+00 -0.15674153755E+04  0.15698994175E+04  0.79380085863E+02 0.  0.
          6    2    1    2  501    0  0.10848323390E+02  0.21609581338E+02 -0.92653994287E+02  0.19736757895E+03  0.17258197599E+03 0.  0.
         24    2    5    5    0    0 -0.39002737845E+02  0.49016836977E+02 -0.94362544594E+02  0.14025982893E+03  0.82732496176E+02 0.  0.
          5    1    5    5  501    0  0.49851061235E+02 -0.27407255640E+02  0.17085503073E+01  0.57107750018E+02  0.47000000000E+01 0. -1.
        -13    1    6    6    0    0  0.67788517912E+01  0.44360544719E+02 -0.12890999208E+02  0.46690348253E+02  0.00000000000E+00 0.  1.
         14    1    6    6    0    0 -0.45781589636E+02  0.46562922580E+01 -0.81471545386E+02  0.93569480681E+02  0.00000000000E+00 0. -1.
         -5    1    3    3    0  503  0.27772155309E+02 -0.20915164275E+02 -0.82000138522E+02  0.89189962578E+02  0.47000000000E+01 0.  1.
         11    1    4    4    0    0 -0.32804871842E+02 -0.29405674718E+02 -0.13232240000E+04  0.13239571774E+04  0.00000000000E+00 0. -1.
        -12    1    4    4    0    0 -0.58156068567E+01  0.28711257655E+02 -0.24419137546E+03  0.24594224006E+03  0.00000000000E+00 0.  1.
<mgrwt>
<rscale>  2 0.17773220E+03</rscale>
<asrwt>0</asrwt>
<pdfrwt beam="1">  1       21 0.87990352E-02 0.17890230E+03</pdfrwt>
<pdfrwt beam="2">  1       21 0.27680971E+00 0.17890230E+03</pdfrwt>
<totfact> 0.47932227E+03</totfact>
</mgrwt>
</event>
<event>
12    1  0.1019868E-001  0.2978305E+03  0.7546771E-02  0.1086389E+00
         21   -1    0    0  501  502  0.00000000000E+00  0.00000000000E+00  0.13847005097E+04  0.13847005097E+04  0.00000000000E+00 0.  1.
         21   -1    0    0  502  503 -0.00000000000E+00 -0.00000000000E+00 -0.67128029069E+02  0.67128029069E+02  0.00000000000E+00 0. -1.
         -6    2    1    2    0  503  0.23141993770E+03  0.72243702507E+02  0.81701546319E+03  0.86960754831E+03  0.17299907769E+03 0.  0.
        -24    2    3    3    0    0  0.76711030557E+02  0.67856801108E+02  0.49954371770E+03  0.51638737614E+03  0.81381009273E+02 0.  0.
          6    2    1    2  501    0 -0.23141993770E+03 -0.72243702507E+02  0.50055701744E+03  0.58222099045E+03  0.17219063243E+03 0.  0.
         24    2    5    5    0    0 -0.58702077209E+02 -0.46516599474E+02  0.26421502342E+03  0.28832820167E+03  0.87828499814E+02 0.  0.
          5    1    5    5  501    0 -0.17271786049E+03 -0.25727103033E+02  0.23634199402E+03  0.29389278878E+03  0.47000000000E+01 0. -1.
        -11    1    6    6    0    0 -0.64216463800E+02  0.20436227824E+01  0.17777449784E+03  0.18902831190E+03  0.00000000000E+00 0.  1.
         12    1    6    6    0    0  0.55143865919E+01 -0.48560222256E+02  0.86440525581E+02  0.99299889767E+02  0.00000000000E+00 0. -1.
         -5    1    3    3    0  503  0.15470890714E+03  0.43869013989E+01  0.31747174548E+03  0.35322017218E+03  0.47000000000E+01 0.  1.
         13    1    4    4    0    0  0.16351432462E+02  0.15467498736E+02  0.19634958444E+02  0.29868787284E+02  0.00000000000E+00 0. -1.
        -14    1    4    4    0    0  0.60359598096E+02  0.52389302372E+02  0.47990875926E+03  0.48651858885E+03  0.00000000000E+00 0.  1.
<mgrwt>
<rscale>  2 0.29771324E+03</rscale>
<asrwt>0</asrwt>
<pdfrwt beam="1">  1       21 0.21303083E+00 0.29783052E+03</pdfrwt>
<pdfrwt beam="2">  1       21 0.10327390E-01 0.29783052E+03</pdfrwt>
<totfact> 0.78873248E+03</totfact>
</mgrwt>
</event>
<event>
12    1  0.1019868E-001  0.1967749E+03  0.7546771E-02  0.1152783E+00
         21   -1    0    0  503  502  0.00000000000E+00  0.00000000000E+00  0.16375660248E+04  0.16375660248E+04  0.00000000000E+00 0.  1.
         21   -1    0    0  501  503 -0.00000000000E+00 -0.00000000000E+00 -0.49265533212E+02  0.49265533212E+02  0.00000000000E+00 0. -1.
          6    2    1    2  501    0 -0.93381142017E+02  0.58493639054E+01  0.18530623597E+03  0.27029383244E+03  0.17310719806E+03 0.  0.
         24    2    3    3    0    0 -0.29728437054E+02  0.65765971943E+02  0.11067666000E+03  0.15525761910E+03  0.81527064128E+02 0.  0.
         -6    2    1    2    0  502  0.93381142017E+02 -0.58493639054E+01  0.14029942556E+04  0.14165377256E+04  0.17155755290E+03 0.  0.
        -24    2    5    5    0    0  0.78352651632E+02  0.12153048333E+02  0.49181024574E+03  0.50503987466E+03  0.83072995519E+02 0.  0.
          5    1    3    3  501    0 -0.63652704963E+02 -0.59916608038E+02  0.74629575977E+02  0.11503621333E+03  0.47000000000E+01 0. -1.
        -11    1    4    4    0    0  0.71472531267E+01  0.49663509418E+02  0.10260748366E+03  0.11421840088E+03  0.00000000000E+00 0.  1.
         12    1    4    4    0    0 -0.36875690181E+02  0.16102462525E+02  0.80691763327E+01  0.41039218223E+02  0.00000000000E+00 0. -1.
         -5    1    5    5    0  502  0.15028490385E+02 -0.18002412238E+02  0.91118400988E+03  0.91149785092E+03  0.47000000000E+01 0.  1.
         13    1    6    6    0    0  0.12138817265E+02 -0.13438877590E+02  0.16631121546E+02  0.24587568390E+02  0.00000000000E+00 0. -1.
        -14    1    6    6    0    0  0.66213834367E+02  0.25591925923E+02  0.47517912419E+03  0.48045230627E+03  0.00000000000E+00 0.  1.
<mgrwt>
<rscale>  2 0.19643353E+03</rscale>
<asrwt>0</asrwt>
<pdfrwt beam="1">  1       21 0.25193319E+00 0.19677488E+03</pdfrwt>
<pdfrwt beam="2">  1       21 0.75793141E-02 0.19677488E+03</pdfrwt>
<totfact> 0.85041987E+03</totfact>
</mgrwt>
</event>
<event>
12    1  0.1019868E-001  0.2029447E+03  0.7546771E-02  0.1147337E+00
         21   -1    0    0  501  502  0.00000000000E+00  0.00000000000E+00  0.77730706196E+03  0.77730706196E+03  0.00000000000E+00 0.  1.
         21   -1    0    0  502  503 -0.00000000000E+00 -0.00000000000E+00 -0.57994506254E+02  0.57994506254E+02  0.00000000000E+00 0.  1.
         -6    2    1    2    0  503  0.79093867971E+02 -0.73127901494E+02  0.48352506677E+03  0.52438825008E+03  0.17199714156E+03 0.  0.
        -24    2    3    3    0    0  0.26747726806E+02 -0.74992073948E+02  0.15669340783E+03  0.19335257691E+03  0.80580040292E+02 0.  0.
          6    2    1    2  501    0 -0.79093867971E+02  0.73127901494E+02  0.23578748894E+03  0.31091331813E+03  0.17166193965E+03 0.  0.
         24    2    5    5    0    0  0.42739433610E+01  0.18371405947E+01  0.47745268610E+02  0.93164538153E+02  0.79864753285E+02 0.  0.
          5    1    5    5  501    0 -0.83367811332E+02  0.71290760899E+02  0.18804222033E+03  0.21774877998E+03  0.47000000000E+01 0. -1.
        -13    1    6    6    0    0 -0.16666303025E+02  0.26800221436E+02 -0.42082053128E+01  0.31839072183E+02  0.00000000000E+00 0.  1.
         14    1    6    6    0    0  0.20940246386E+02 -0.24963080841E+02  0.51953473922E+02  0.61325465970E+02  0.00000000000E+00 0. -1.
         -5    1    3    3    0  503  0.52346141165E+02  0.18641724540E+01  0.32683165893E+03  0.33103567318E+03  0.47000000000E+01 0.  1.
         13    1    4    4    0    0 -0.13912449880E+02 -0.65156806223E+02  0.12199304169E+03  0.13900096359E+03  0.00000000000E+00 0. -1.
        -14    1    4    4    0    0  0.40660176686E+02 -0.98352677245E+01  0.34700366145E+02  0.54351613315E+02  0.00000000000E+00 0.  1.
<mgrwt>
<rscale>  2 0.20287365E+03</rscale>
<asrwt>0</asrwt>
<pdfrwt beam="1">  1       21 0.11958569E+00 0.20294469E+03</pdfrwt>
<pdfrwt beam="2">  1       21 0.89222323E-02 0.20294469E+03</pdfrwt>
<totfact> 0.52543591E+04</totfact>
</mgrwt>
</event>
<event>
12    1  0.1019868E-001  0.2527157E+03  0.7546771E-02  0.1112026E+00
         21   -1    0    0  501  502  0.00000000000E+00  0.00000000000E+00  0.26553859459E+03  0.26553859459E+03  0.00000000000E+00 0. -1.
         21   -1    0    0  502  503 -0.00000000000E+00 -0.00000000000E+00 -0.28958086432E+03  0.28958086432E+03  0.00000000000E+00 0.  1.
         -6    2    1    2    0  503 -0.54030735200E+02  0.17361193536E+03 -0.12918583751E+03  0.28140353033E+03  0.17157663544E+03 0.  0.
        -24    2    3    3    0    0 -0.53615274555E+02  0.29378562577E+02 -0.71990688253E+02  0.12617204664E+03  0.83660196951E+02 0.  0.
          6    2    1    2  501    0  0.54030735200E+02 -0.17361193536E+03  0.10514356778E+03  0.27371592857E+03  0.17551300597E+03 0.  0.
         24    2    5    5    0    0  0.36567110494E+02 -0.20102621384E+03  0.90847493984E+02  0.23789709863E+03  0.81197722598E+02 0.  0.
          5    1    5    5  501    0  0.17463624706E+02  0.27414278477E+02  0.14296073794E+02  0.35818829939E+02  0.47000000000E+01 0. -1.
        -11    1    6    6    0    0  0.29900402856E+02 -0.29577326517E+02 -0.32978486679E+01  0.42186824255E+02  0.00000000000E+00 0.  1.
         12    1    6    6    0    0  0.66667076378E+01 -0.17144888732E+03  0.94145342652E+02  0.19571027438E+03  0.00000000000E+00 0. -1.
         -5    1    3    3    0  503 -0.41546064451E+00  0.14423337278E+03 -0.57195149253E+02  0.15523148369E+03  0.47000000000E+01 0.  1.
         13    1    4    4    0    0 -0.31389037749E+02  0.45420861368E+02 -0.70205281481E+01  0.55656213972E+02  0.00000000000E+00 0. -1.
        -14    1    4    4    0    0 -0.22226236806E+02 -0.16042298791E+02 -0.64970160105E+02  0.70515832670E+02  0.00000000000E+00 0.  1.
<mgrwt>
<rscale>  2 0.25203352E+03</rscale>
<asrwt>0</asrwt>
<pdfrwt beam="1">  1       21 0.40852091E-01 0.25271573E+03</pdfrwt>
<pdfrwt beam="2">  1       21 0.44550902E-01 0.25271573E+03</pdfrwt>
<totfact> 0.27081173E+04</totfact>
</mgrwt>
</event>
<event>
12    1  0.1019868E-001  0.2423218E+03  0.7546771E-02  0.1118339E+00
         21   -1    0    0  503  502  0.00000000000E+00  0.00000000000E+00  0.43185437742E+03  0.43185437742E+03  0.00000000000E+00 0.  1.
         21   -1    0    0  501  503 -0.00000000000E+00 -0.00000000000E+00 -0.20725246828E+03  0.20725246828E+03  0.00000000000E+00 0.  1.
          6    2    1    2  501    0 -0.10697563117E+03  0.13149791508E+03 -0.75552147452E+02  0.25334482544E+03  0.17245285228E+03 0.  0.
         24    2    3    3    0    0 -0.96677020796E+02  0.45460902987E+02 -0.11368625195E+02  0.14540945888E+03  0.97987371853E+02 0.  0.
         -6    2    1    2    0  502  0.10697563117E+03 -0.13149791508E+03  0.30015405659E+03  0.38576202026E+03  0.17316001633E+03 0.  0.
        -24    2    5    5    0    0 -0.40709428471E+01 -0.74481769366E+02  0.89445925488E+02  0.14080857778E+03  0.79135171987E+02 0.  0.
          5    1    3    3  501    0 -0.10298610374E+02  0.86037012092E+02 -0.64183522257E+02  0.10793536656E+03  0.47000000000E+01 0. -1.
        -11    1    4    4    0    0  0.18155395853E+02  0.15116225407E+02  0.82548738818E+01  0.25025219518E+02  0.00000000000E+00 0.  1.
         12    1    4    4    0    0 -0.11483241665E+03  0.30344677581E+02 -0.19623499077E+02  0.12038423936E+03  0.00000000000E+00 0. -1.
         -5    1    5    5    0  502  0.11104657402E+03 -0.57016145713E+02  0.21070813110E+03  0.24495344248E+03  0.47000000000E+01 0.  1.
         13    1    6    6    0    0 -0.37528800712E+02 -0.15450665990E+02  0.28388392692E+02  0.49528121325E+02  0.00000000000E+00 0. -1.
        -14    1    6    6    0    0  0.33457857865E+02 -0.59031103377E+02  0.61057532796E+02  0.91280456451E+02  0.00000000000E+00 0.  1.
<mgrwt>
<rscale>  2 0.24219554E+03</rscale>
<asrwt>0</asrwt>
<pdfrwt beam="1">  1       21 0.66439135E-01 0.24232185E+03</pdfrwt>
<pdfrwt beam="2">  1       21 0.31884995E-01 0.24232185E+03</pdfrwt>
<totfact> 0.19112964E+04</totfact>
</mgrwt>
</event>
<event>
12    1  0.1019868E-001  0.2061766E+03  0.7546771E-02  0.1144662E+00
         21   -1    0    0  503  502  0.00000000000E+00  0.00000000000E+00  0.59686816329E+02  0.59686816329E+02  0.00000000000E+00 0. -1.
         21   -1    0    0  501  503 -0.00000000000E+00 -0.00000000000E+00 -0.79313024987E+03  0.79313024987E+03  0.00000000000E+00 0. -1.
          6    2    1    2  501    0  0.96105911368E+02 -0.57243969923E+02 -0.50352237063E+03  0.54409884233E+03  0.17319224636E+03 0.  0.
         24    2    3    3    0    0  0.15063861448E+02  0.18440482141E+02 -0.13150361204E+03  0.15587726012E+03  0.80234337673E+02 0.  0.
         -6    2    1    2    0  502 -0.96105911368E+02  0.57243969923E+02 -0.22992106291E+03  0.30871822387E+03  0.17300297191E+03 0.  0.
        -24    2    5    5    0    0 -0.11328357468E+03  0.91578907604E+02 -0.17662889851E+03  0.24286911721E+03  0.81041814483E+02 0.  0.
          5    1    3    3  501    0  0.81042049920E+02 -0.75684452065E+02 -0.37201875860E+03  0.38822158220E+03  0.47000000000E+01 0. -1.
        -11    1    4    4    0    0  0.29471424883E+02  0.48059015259E+01 -0.81693873269E+01  0.30958043598E+02  0.00000000000E+00 0.  1.
         12    1    4    4    0    0 -0.14407563435E+02  0.13634580616E+02 -0.12333422471E+03  0.12491921653E+03  0.00000000000E+00 0. -1.
         -5    1    5    5    0  502  0.17177663309E+02 -0.34334937681E+02 -0.53292164397E+02  0.65849106664E+02  0.47000000000E+01 0.  1.
         13    1    6    6    0    0 -0.83766580177E+02  0.19208376177E+02 -0.11370195976E+03  0.14252697051E+03  0.00000000000E+00 0. -1.
        -14    1    6    6    0    0 -0.29516994501E+02  0.72370531427E+02 -0.62926938753E+02  0.10034214670E+03  0.00000000000E+00 0.  1.
<mgrwt>
<rscale>  2 0.20613680E+03</rscale>
<asrwt>0</asrwt>
<pdfrwt beam="1">  1       21 0.91825877E-02 0.20617656E+03</pdfrwt>
<pdfrwt beam="2">  1       21 0.12202003E+00 0.20617656E+03</pdfrwt>
<totfact> 0.47429260E+04</totfact>
</mgrwt>
</event>
<event>
12    1  0.1019868E-001  0.2385728E+03  0.7546771E-02  0.1120884E+00
         21   -1    0    0  503  502  0.00000000000E+00  0.00000000000E+00  0.83846783705E+03  0.83846783705E+03  0.00000000000E+00 0. -1.
         21   -1    0    0  501  503 -0.00000000000E+00 -0.00000000000E+00 -0.81709961349E+02  0.81709961349E+02  0.00000000000E+00 0.  1.
          6    2    1    2  501    0  0.35393520163E+02  0.15837160088E+03  0.56975557183E+03  0.61768792178E+03  0.17487907778E+03 0.  0.
         24    2    3    3    0    0  0.32651922352E+02  0.10709163891E+02  0.20402347019E+03  0.22323415791E+03  0.83827672323E+02 0.  0.
         -6    2    1    2    0  502 -0.35393520163E+02 -0.15837160088E+03  0.18700230388E+03  0.30248987663E+03  0.17376995878E+03 0.  0.
        -24    2    5    5    0    0 -0.37295208916E+02 -0.12334474755E+03  0.48564536896E+02  0.15959970132E+03  0.80676459142E+02 0.  0.
          5    1    3    3  501    0  0.27415978111E+01  0.14766243699E+03  0.36573210164E+03  0.39445376386E+03  0.47000000000E+01 0. -1.
        -13    1    4    4    0    0  0.78701931764E+01  0.32113428922E+02  0.25560244852E+02  0.41791606509E+02  0.00000000000E+00 0.  1.
         14    1    4    4    0    0  0.24781729176E+02 -0.21404265031E+02  0.17846322534E+03  0.18144255140E+03  0.00000000000E+00 0. -1.
         -5    1    5    5    0  502  0.19016887530E+01 -0.35026853326E+02  0.13843776698E+03  0.14289017531E+03  0.47000000000E+01 0.  1.
         11    1    6    6    0    0 -0.44050621849E+02 -0.20702306367E+02  0.21661104246E+02  0.53275193208E+02  0.00000000000E+00 0. -1.
        -12    1    6    6    0    0  0.67554129326E+01 -0.10264244118E+03  0.26903432650E+02  0.10632450811E+03  0.00000000000E+00 0.  1.
<mgrwt>
<rscale>  2 0.23836954E+03</rscale>
<asrwt>0</asrwt>
<pdfrwt beam="1">  1       21 0.12899505E+00 0.23857275E+03</pdfrwt>
<pdfrwt beam="2">  1       21 0.12570764E-01 0.23857275E+03</pdfrwt>
<totfact> 0.23166465E+04</totfact>
</mgrwt>
</event>
<event>
12    1  0.1019868E-001  0.4170579E+03  0.7546771E-02  0.1038051E+00
         21   -1    0    0  501  502  0.00000000000E+00  0.00000000000E+00  0.13046075652E+04  0.13046075652E+04  0.00000000000E+00 0.  1.
         21   -1    0    0  502  503 -0.00000000000E+00 -0.00000000000E+00 -0.20583351457E+03  0.20583351457E+03  0.00000000000E+00 0. -1.
         -6    2    1    2    0  503 -0.14332196603E+02  0.37876232640E+03  0.10074607275E+03  0.42877700614E+03  0.17330215827E+03 0.  0.
        -24    2    3    3    0    0  0.16532557949E+02  0.34562538709E+03  0.46725507525E+02  0.35812998718E+03  0.79646600651E+02 0.  0.
          6    2    1    2  501    0  0.14332196603E+02 -0.37876232640E+03  0.99802797792E+03  0.10816640737E+04  0.17398566544E+03 0.  0.
         24    2    5    5    0    0  0.21717221316E+02 -0.16941762547E+03  0.63347041089E+03  0.66118333441E+03  0.81882053671E+02 0.  0.
          5    1    5    5  501    0 -0.73850247129E+01 -0.20934470093E+03  0.36455756703E+03  0.42048073924E+03  0.47000000000E+01 0. -1.
        -13    1    6    6    0    0  0.19556652572E+02 -0.10214043520E+03  0.23382179725E+03  0.25590577179E+03  0.00000000000E+00 0.  1.
         14    1    6    6    0    0  0.21605687439E+01 -0.67277190264E+02  0.39964861364E+03  0.40527756263E+03  0.00000000000E+00 0. -1.
         -5    1    3    3    0  503 -0.30864754552E+02  0.33136939312E+02  0.54020565223E+02  0.70647018957E+02  0.47000000000E+01 0.  1.
         11    1    4    4    0    0  0.72959023109E+01  0.47901855816E+02 -0.20759579396E+02  0.52714116874E+02  0.00000000000E+00 0. -1.
        -12    1    4    4    0    0  0.92366556378E+01  0.29772353127E+03  0.67485086921E+02  0.30541587031E+03  0.00000000000E+00 0.  1.
<mgrwt>
<rscale>  2 0.41698675E+03</rscale>
<asrwt>0</asrwt>
<pdfrwt beam="1">  1       21 0.20070885E+00 0.41705794E+03</pdfrwt>
<pdfrwt beam="2">  1       21 0.31666695E-01 0.41705794E+03</pdfrwt>
<totfact> 0.10807693E+03</totfact>
</mgrwt>
</event>
<event>
11    1  0.1019868E-001  0.1905753E+03  0.7546771E-02  0.1160805E+00
         21   -1    0    0  501  502  0.00000000000E+00  0.00000000000E+00  0.24879663674E+02  0.24879663674E+02  0.00000000000E+00 0. -1.
         21   -1    0    0  502  503 -0.00000000000E+00 -0.00000000000E+00 -0.16260283946E+04  0.16260283946E+04  0.00000000000E+00 0.  1.
         -6    2    1    2    0  503 -0.34664458923E+02 -0.17821909786E+02 -0.11522368288E+04  0.11678906785E+04  0.18654672889E+03 0.  0.
        -24    2    3    3    0    0  0.18636020957E+02 -0.71069797558E+02 -0.54025324513E+03  0.55126901539E+03  0.81398655132E+02 0.  0.
          6    2    1    2  501    0  0.34664458923E+02  0.17821909786E+02 -0.44891190213E+03  0.48301737979E+03  0.17396737663E+03 0.  0.
          5    1    5    5  501    0 -0.14259286055E+02 -0.12797683808E+02 -0.57013688926E+01  0.20535422004E+02  0.47000000000E+01 0. -1.
        -13    1    5    5    0    0  0.45458240382E+02 -0.35910815662E+02 -0.28480678539E+03  0.29063885374E+03  0.00000000000E+00 0.  1.
         14    1    5    5    0    0  0.34655045970E+01  0.66530409256E+02 -0.15840374785E+03  0.17184310405E+03  0.00000000000E+00 0. -1.
         -5    1    3    3    0  503 -0.53300479881E+02  0.53247887773E+02 -0.61198358368E+03  0.61662166309E+03  0.47000000000E+01 0.  1.
         13    1    4    4    0    0  0.26934552249E+02 -0.12979874585E+02 -0.56076152638E+02  0.63549053052E+02  0.00000000000E+00 0. -1.
        -14    1    4    4    0    0 -0.82985312916E+01 -0.58089922974E+02 -0.48417709249E+03  0.48771996234E+03  0.00000000000E+00 0.  1.
<mgrwt>
<rscale>  2 0.18742424E+03</rscale>
<asrwt>0</asrwt>
<pdfrwt beam="1">  1       21 0.38276395E-02 0.19057525E+03</pdfrwt>
<pdfrwt beam="2">  1       21 0.25015828E+00 0.19057525E+03</pdfrwt>
<totfact> 0.28039001E+04</totfact>
</mgrwt>
</event>
<event>
12    1  0.1019868E-001  0.2110967E+03  0.7546771E-02  0.1140781E+00
         21   -1    0    0  501  502  0.00000000000E+00  0.00000000000E+00  0.71899532997E+02  0.71899532997E+02  0.00000000000E+00 0.  1.
         21   -1    0    0  502  503 -0.00000000000E+00 -0.00000000000E+00 -0.66215203217E+03  0.66215203217E+03  0.00000000000E+00 0. -1.
         -6    2    1    2    0  503  0.11048916440E+03  0.48649523206E+02 -0.20124147632E+03  0.29165037270E+03  0.17316805867E+03 0.  0.
        -24    2    3    3    0    0  0.11304384104E+03  0.81460506985E+02 -0.20177031371E+03  0.25840196374E+03  0.81520495404E+02 0.  0.
          6    2    1    2  501    0 -0.11048916440E+03 -0.48649523206E+02 -0.38901102285E+03  0.44240119247E+03  0.17266906973E+03 0.  0.
         24    2    5    5    0    0 -0.37678925279E+01 -0.61619283057E+02 -0.22071328215E+03  0.24264167689E+03  0.79683733514E+02 0.  0.
          5    1    5    5  501    0 -0.10672127187E+03  0.12969759851E+02 -0.16829774070E+03  0.19975951558E+03  0.47000000000E+01 0. -1.
        -11    1    6    6    0    0 -0.41407705434E+02 -0.39024584948E+02 -0.12450193940E+03  0.13688772485E+03  0.00000000000E+00 0.  1.
         12    1    6    6    0    0  0.37639812906E+02 -0.22594698109E+02 -0.96211342751E+02  0.10575395204E+03  0.00000000000E+00 0. -1.
         -5    1    3    3    0  503 -0.25546766445E+01 -0.32810983780E+02  0.52883739362E+00  0.33248408960E+02  0.47000000000E+01 0.  1.
         11    1    4    4    0    0  0.43503421636E+01  0.59388910287E+01 -0.74238900770E+02  0.74603017976E+02  0.00000000000E+00 0. -1.
        -12    1    4    4    0    0  0.10869349888E+03  0.75521615957E+02 -0.12753141294E+03  0.18379894576E+03  0.00000000000E+00 0.  1.
<mgrwt>
<rscale>  2 0.21099432E+03</rscale>
<asrwt>0</asrwt>
<pdfrwt beam="1">  1       21 0.11061467E-01 0.21109668E+03</pdfrwt>
<pdfrwt beam="2">  1       21 0.10186954E+00 0.21109668E+03</pdfrwt>
<totfact> 0.52811997E+04</totfact>
</mgrwt>
</event>
<event>
12    1  0.1019868E-001  0.1807222E+03  0.7546771E-02  0.1167239E+00
         21   -1    0    0  501  502  0.00000000000E+00  0.00000000000E+00  0.16957490165E+03  0.16957490165E+03  0.00000000000E+00 0. -1.
         21   -1    0    0  502  503 -0.00000000000E+00 -0.00000000000E+00 -0.43596763542E+03  0.43596763542E+03  0.00000000000E+00 0. -1.
         -6    2    1    2    0  503  0.19804082158E+02 -0.47629382310E+02 -0.35959209568E+03  0.40220382732E+03  0.17262874531E+03 0.  0.
        -24    2    3    3    0    0  0.45543581399E+02 -0.43823408470E+02 -0.36127214589E+03  0.37571005773E+03  0.81521623811E+02 0.  0.
          6    2    1    2  501    0 -0.19804082158E+02  0.47629382310E+02  0.93199361913E+02  0.20333870975E+03  0.17320435934E+03 0.  0.
         24    2    5    5    0    0  0.74646220620E+01 -0.15619714170E+02  0.10467530110E+03  0.13335429995E+03  0.80788332090E+02 0.  0.
          5    1    5    5  501    0 -0.27268704220E+02  0.63249096480E+02 -0.11475939186E+02  0.69984409804E+02  0.47000000000E+01 0. -1.
        -11    1    6    6    0    0  0.10626099508E+02 -0.32201555613E+01 -0.11785843129E+02  0.16192266390E+02  0.00000000000E+00 0.  1.
         12    1    6    6    0    0 -0.31614774458E+01 -0.12399558609E+02  0.11646114423E+03  0.11716203356E+03  0.00000000000E+00 0. -1.
         -5    1    3    3    0  503 -0.25739499241E+02 -0.38059738401E+01  0.16800502140E+01  0.26493769584E+02  0.47000000000E+01 0.  1.
         13    1    4    4    0    0  0.63952111732E+02 -0.52475147215E+02 -0.28364975513E+03  0.29546691398E+03  0.00000000000E+00 0. -1.
        -14    1    4    4    0    0 -0.18408530333E+02  0.86517387444E+01 -0.77622390758E+02  0.80243143753E+02  0.00000000000E+00 0.  1.
<mgrwt>
<rscale>  2 0.18058413E+03</rscale>
<asrwt>0</asrwt>
<pdfrwt beam="1">  1       21 0.26088446E-01 0.18072219E+03</pdfrwt>
<pdfrwt beam="2">  1       21 0.67071944E-01 0.18072219E+03</pdfrwt>
<totfact> 0.28600712E+04</totfact>
</mgrwt>
</event>
<event>
12    1  0.1019868E-001  0.1821770E+03  0.7546771E-02  0.1166175E+00
         21   -1    0    0  501  502  0.00000000000E+00  0.00000000000E+00  0.12340035239E+04  0.12340035239E+04  0.00000000000E+00 0. -1.
         21   -1    0    0  502  503 -0.00000000000E+00 -0.00000000000E+00 -0.41548707686E+02  0.41548707686E+02  0.00000000000E+00 0.  1.
         -6    2    1    2    0  503  0.51463612542E+02 -0.25323672546E+02  0.21178503940E+03  0.27810464780E+03  0.17087861308E+03 0.  0.
        -24    2    3    3    0    0 -0.33790307851E+02 -0.10987620065E+02  0.68562498070E+02  0.11074712724E+03  0.79382601063E+02 0.  0.
          6    2    1    2  501    0 -0.51463612542E+02  0.25323672546E+02  0.98066977683E+03  0.99744758380E+03  0.17291234609E+03 0.  0.
         24    2    5    5    0    0 -0.55345114657E+02  0.66816733523E+02  0.88202748019E+03  0.89026021115E+03  0.84042906663E+02 0.  0.
          5    1    5    5  501    0  0.38815021152E+01 -0.41493060977E+02  0.98642296643E+02  0.10718737265E+03  0.47000000000E+01 0. -1.
        -13    1    6    6    0    0  0.41668439595E+01 -0.12072343369E+02  0.31190273638E+02  0.33703667940E+02  0.00000000000E+00 0.  1.
         14    1    6    6    0    0 -0.59511958617E+02  0.78889076892E+02  0.85083720655E+03  0.85655654322E+03  0.00000000000E+00 0. -1.
         -5    1    3    3    0  503  0.85253920393E+02 -0.14336052481E+02  0.14322254133E+03  0.16735752056E+03  0.47000000000E+01 0.  1.
         11    1    4    4    0    0 -0.48735636877E+02 -0.33536041784E+02  0.40034044176E+02  0.71432157278E+02  0.00000000000E+00 0. -1.
        -12    1    4    4    0    0  0.14945329026E+02  0.22548421719E+02  0.28528453895E+02  0.39314969965E+02  0.00000000000E+00 0.  1.
<mgrwt>
<rscale>  2 0.18169281E+03</rscale>
<asrwt>0</asrwt>
<pdfrwt beam="1">  1       21 0.18984667E+00 0.18217703E+03</pdfrwt>
<pdfrwt beam="2">  1       21 0.63921098E-02 0.18217703E+03</pdfrwt>
<totfact> 0.27859501E+04</totfact>
</mgrwt>
</event>
<event>
12    1  0.1019868E-001  0.2469286E+03  0.7546771E-02  0.1116926E+00
         21   -1    0    0  503  502  0.00000000000E+00  0.00000000000E+00  0.68502526503E+03  0.68502526503E+03  0.00000000000E+00 0. -1.
         21   -1    0    0  501  503 -0.00000000000E+00 -0.00000000000E+00 -0.12026472962E+03  0.12026472962E+03  0.00000000000E+00 0.  1.
          6    2    1    2  501    0 -0.10051041070E+03  0.14362560521E+03  0.69796744507E+02  0.25660342999E+03  0.17390536969E+03 0.  0.
         24    2    3    3    0    0  0.48965542056E+01  0.37093882317E+02 -0.60799252494E+01  0.88558807204E+02  0.80036019978E+02 0.  0.
         -6    2    1    2    0  502  0.10051041070E+03 -0.14362560521E+03  0.49496379090E+03  0.54868656467E+03  0.15917642668E+03 0.  0.
        -24    2    5    5    0    0  0.83410215950E+02 -0.47906778019E+02  0.18569115392E+03  0.22445491210E+03  0.81525943216E+02 0.  0.
          5    1    3    3  501    0 -0.10540696490E+03  0.10653172289E+03  0.75876669756E+02  0.16804462278E+03  0.47000000000E+01 0. -1.
        -13    1    4    4    0    0  0.20715705595E+02  0.45927534374E+02 -0.29933315213E+02  0.58604455732E+02  0.00000000000E+00 0.  1.
         14    1    4    4    0    0 -0.15819151390E+02 -0.88336520566E+01  0.23853389964E+02  0.29954351472E+02  0.00000000000E+00 0. -1.
         -5    1    5    5    0  502  0.17100194748E+02 -0.95718827191E+02  0.30927263698E+03  0.32423165257E+03  0.47000000000E+01 0.  1.
         11    1    6    6    0    0  0.11953063343E+02  0.93094237171E+01  0.92833952786E+02  0.94062127783E+02  0.00000000000E+00 0. -1.
        -12    1    6    6    0    0  0.71457152607E+02 -0.57216201736E+02  0.92857201133E+02  0.13039278432E+03  0.00000000000E+00 0.  1.
<mgrwt>
<rscale>  2 0.24435303E+03</rscale>
<asrwt>0</asrwt>
<pdfrwt beam="1">  1       21 0.10538850E+00 0.24692860E+03</pdfrwt>
<pdfrwt beam="2">  1       21 0.18502266E-01 0.24692860E+03</pdfrwt>
<totfact> 0.18724196E+04</totfact>
</mgrwt>
</event>
<event>
11    1  0.1019868E-001  0.1804700E+03  0.7546771E-02  0.1169088E+00
         21   -1    0    0  501  502  0.00000000000E+00  0.00000000000E+00  0.17086913953E+03  0.17086913953E+03  0.00000000000E+00 0. -1.
         21   -1    0    0  502  503 -0.00000000000E+00 -0.00000000000E+00 -0.20228194786E+03  0.20228194786E+03  0.00000000000E+00 0. -1.
         -6    2    1    2    0  503  0.47640382827E+02  0.31725898227E+02 -0.72674707078E+02  0.18802421251E+03  0.16369286102E+03 0.  0.
        -24    2    3    3    0    0  0.26830674961E+02  0.70714644092E+02 -0.87139249638E+02  0.14128579965E+03  0.81535160186E+02 0.  0.
          6    2    1    2  501    0 -0.47640382827E+02 -0.31725898227E+02  0.41261898745E+02  0.18512687488E+03  0.17115278795E+03 0.  0.
          5    1    5    5  501    0  0.18071950107E+02 -0.62384697649E+02 -0.32162986570E+02  0.72629151079E+02  0.47000000000E+01 0. -1.
        -13    1    5    5    0    0 -0.72010400192E+01  0.20588016506E+02  0.59237759864E+01  0.22601161982E+02  0.00000000000E+00 0.  1.
         14    1    5    5    0    0 -0.58511292914E+02  0.10070782916E+02  0.67501109329E+02  0.89896561823E+02  0.00000000000E+00 0. -1.
         -5    1    3    3    0  503  0.20809707866E+02 -0.38988745865E+02  0.14464542561E+02  0.46738412865E+02  0.47000000000E+01 0.  1.
         11    1    4    4    0    0 -0.77200882265E+01  0.68934235322E+02 -0.32468855844E+02  0.76588218164E+02  0.00000000000E+00 0. -1.
        -12    1    4    4    0    0  0.34550763188E+02  0.17804087699E+01 -0.54670393794E+02  0.64697581484E+02  0.00000000000E+00 0.  1.
<mgrwt>
<rscale>  2 0.17867883E+03</rscale>
<asrwt>0</asrwt>
<pdfrwt beam="1">  1       21 0.26287560E-01 0.18046999E+03</pdfrwt>
<pdfrwt beam="2">  1       21 0.31120300E-01 0.18046999E+03</pdfrwt>
<totfact> 0.13703617E+05</totfact>
</mgrwt>
</event>
<event>
12    1  0.1019868E-001  0.1758906E+03  0.7546771E-02  0.1172091E+00
         21   -1    0    0  501  502  0.00000000000E+00  0.00000000000E+00  0.11044983616E+03  0.11044983616E+03  0.00000000000E+00 0. -1.
         21   -1    0    0  502  503 -0.00000000000E+00 -0.00000000000E+00 -0.58394246275E+03  0.58394246275E+03  0.00000000000E+00 0. -1.
         -6    2    1    2    0  503  0.24776487923E+02 -0.19180476510E+02 -0.48816856336E+03  0.51888924093E+03  0.17307724595E+03 0.  0.
        -24    2    3    3    0    0  0.74402744603E+02 -0.59161861238E+01 -0.41422320997E+03  0.42872987070E+03  0.81594513852E+02 0.  0.
          6    2    1    2  501    0 -0.24776487923E+02  0.19180476510E+02  0.14675936773E+02  0.17550305799E+03  0.17205863887E+03 0.  0.
         24    2    5    5    0    0 -0.44599017790E+02 -0.28652644514E+02 -0.34235102269E+02  0.10412154849E+03  0.82820336922E+02 0.  0.
          5    1    5    5  501    0  0.19822529867E+02  0.47833121024E+02  0.48911039042E+02  0.71381509493E+02  0.47000000000E+01 0. -1.
        -13    1    6    6    0    0 -0.42407689836E+02 -0.10177500638E+02 -0.58861434866E+02  0.73257506039E+02  0.00000000000E+00 0.  1.
         14    1    6    6    0    0 -0.21913279537E+01 -0.18475143876E+02  0.24626332597E+02  0.30864042455E+02  0.00000000000E+00 0. -1.
         -5    1    3    3    0  503 -0.49626256680E+02 -0.13264290386E+02 -0.73945353385E+02  0.90159370222E+02  0.47000000000E+01 0.  1.
         11    1    4    4    0    0 -0.13171759006E+02 -0.10464739256E+02 -0.13541676249E+03  0.13645770614E+03  0.00000000000E+00 0. -1.
        -12    1    4    4    0    0  0.87574503609E+02  0.45485531323E+01 -0.27880644748E+03  0.29227216456E+03  0.00000000000E+00 0.  1.
<mgrwt>
<rscale>  2 0.17563949E+03</rscale>
<asrwt>0</asrwt>
<pdfrwt beam="1">  1       21 0.16992282E-01 0.17589059E+03</pdfrwt>
<pdfrwt beam="2">  1       21 0.89837303E-01 0.17589059E+03</pdfrwt>
<totfact> 0.33244677E+04</totfact>
</mgrwt>
</event>
<event>
12    1  0.1019868E-001  0.1771700E+03  0.7546771E-02  0.1170913E+00
         21   -1    0    0  501  502  0.00000000000E+00  0.00000000000E+00  0.46318847182E+03  0.46318847182E+03  0.00000000000E+00 0.  1.
         21   -1    0    0  502  503 -0.00000000000E+00 -0.00000000000E+00 -0.93821211782E+02  0.93821211782E+02  0.00000000000E+00 0.  1.
         -6    2    1    2    0  503  0.26321559550E+02 -0.21617943832E+02  0.36962253386E+02  0.18098453824E+03  0.17386499047E+03 0.  0.
        -24    2    3    3    0    0 -0.40167156201E+02 -0.24093080630E+01  0.58360260456E+02  0.10839193726E+03  0.81998090583E+02 0.  0.
          6    2    1    2  501    0 -0.26321559550E+02  0.21617943832E+02  0.33240500665E+03  0.37602514536E+03  0.17245770933E+03 0.  0.
         24    2    5    5    0    0 -0.17646657847E+01  0.40186361162E+02  0.33209947065E+03  0.34488015370E+03  0.83870163599E+02 0.  0.
          5    1    5    5  501    0 -0.24556893766E+02 -0.18568417330E+02  0.30553600192E+00  0.31144991665E+02  0.47000000000E+01 0. -1.
        -13    1    6    6    0    0  0.30911409215E+02  0.34721213353E+02  0.27470016984E+03  0.27860592454E+03  0.00000000000E+00 0.  1.
         14    1    6    6    0    0 -0.32676075000E+02  0.54651478088E+01  0.57399300809E+02  0.66274229164E+02  0.00000000000E+00 0. -1.
         -5    1    3    3    0  503  0.66488715751E+02 -0.19208635769E+02 -0.21398007070E+02  0.72592600979E+02  0.47000000000E+01 0.  1.
         13    1    4    4    0    0  0.12781771293E+02  0.27344340817E+02  0.24351995187E+02  0.38782809615E+02  0.00000000000E+00 0. -1.
        -14    1    4    4    0    0 -0.52948927494E+02 -0.29753648880E+02  0.34008265269E+02  0.69609127641E+02  0.00000000000E+00 0.  1.
<mgrwt>
<rscale>  2 0.17682374E+03</rscale>
<asrwt>0</asrwt>
<pdfrwt beam="1">  1       21 0.71259763E-01 0.17716996E+03</pdfrwt>
<pdfrwt beam="2">  1       21 0.14434033E-01 0.17716996E+03</pdfrwt>
<totfact> 0.75438119E+04</totfact>
</mgrwt>
</event>
<event>
12    1  0.1019868E-001  0.1848206E+03  0.7546771E-02  0.1163375E+00
         21   -1    0    0  501  502  0.00000000000E+00  0.00000000000E+00  0.85518188693E+03  0.85518188693E+03  0.00000000000E+00 0. -1.
         21   -1    0    0  502  503 -0.00000000000E+00 -0.00000000000E+00 -0.51424934078E+02  0.51424934078E+02  0.00000000000E+00 0. -1.
         -6    2    1    2    0  503  0.56429583840E+02 -0.28726172574E+02  0.18690152807E+03  0.26285136974E+03  0.17363516481E+03 0.  0.
        -24    2    3    3    0    0  0.81667660752E+02 -0.38191711519E+02  0.19912225044E+03  0.23288483826E+03  0.80358345127E+02 0.  0.
          6    2    1    2  501    0 -0.56429583840E+02  0.28726172574E+02  0.61685542478E+03  0.64375545126E+03  0.17291898398E+03 0.  0.
         24    2    5    5    0    0  0.10163708490E+02 -0.33962762197E+02  0.18892367139E+03  0.20613433124E+03  0.74447556832E+02 0.  0.
          5    1    5    5  501    0 -0.66593292331E+02  0.62688934771E+02  0.42793175340E+03  0.43762112002E+03  0.47000000000E+01 0. -1.
        -13    1    6    6    0    0  0.11045760891E+02  0.22367088089E+02  0.75043268544E+02  0.79080892869E+02  0.00000000000E+00 0.  1.
         14    1    6    6    0    0 -0.88205240066E+00 -0.56329850286E+02  0.11388040284E+03  0.12705343837E+03  0.00000000000E+00 0. -1.
         -5    1    3    3    0  503 -0.25238076911E+02  0.94655389450E+01 -0.12220722373E+02  0.29966531481E+02  0.47000000000E+01 0.  1.
         11    1    4    4    0    0  0.30877360681E+02  0.23834726640E+02  0.83818018438E+02  0.92449801576E+02  0.00000000000E+00 0. -1.
        -12    1    4    4    0    0  0.50790300070E+02 -0.62026438159E+02  0.11530423200E+03  0.14043503669E+03  0.00000000000E+00 0.  1.
<mgrwt>
<rscale>  2 0.18465222E+03</rscale>
<asrwt>0</asrwt>
<pdfrwt beam="1">  1       21 0.13156643E+00 0.18482062E+03</pdfrwt>
<pdfrwt beam="2">  1       21 0.79115289E-02 0.18482062E+03</pdfrwt>
<totfact> 0.51520787E+04</totfact>
</mgrwt>
</event>
<event>
12    1  0.1019868E-001  0.4862089E+03  0.7546771E-02  0.1017560E+00
         21   -1    0    0  503  502  0.00000000000E+00  0.00000000000E+00  0.66962626501E+03  0.66962626501E+03  0.00000000000E+00 0.  1.
         21   -1    0    0  501  503 -0.00000000000E+00 -0.00000000000E+00 -0.11738768183E+04  0.11738768183E+04  0.00000000000E+00 0. -1.
          6    2    1    2  501    0  0.16842445313E+03 -0.42156453279E+03 -0.10233661049E+04  0.11322506108E+04  0.16920345504E+03 0.  0.
         24    2    3    3    0    0  0.99131443689E+02 -0.37536947753E+03 -0.77527043451E+03  0.87050826425E+03  0.77531308052E+02 0.  0.
         -6    2    1    2    0  502 -0.16842445313E+03  0.42156453279E+03  0.51911555165E+03  0.71125247251E+03  0.17411396258E+03 0.  0.
        -24    2    5    5    0    0 -0.16299191049E+02  0.11645148254E+03  0.11950799156E+03  0.18594840734E+03  0.80424117853E+02 0.  0.
          5    1    3    3  501    0  0.69293009440E+02 -0.46195055263E+02 -0.24809567039E+03  0.26174234650E+03  0.47000000000E+01 0. -1.
        -11    1    4    4    0    0  0.70775754438E+02 -0.17924954692E+03 -0.31322642460E+03  0.36776405555E+03  0.00000000000E+00 0.  1.
         12    1    4    4    0    0  0.28355689251E+02 -0.19611993060E+03 -0.46204400991E+03  0.50274420870E+03  0.00000000000E+00 0. -1.
         -5    1    5    5    0  502 -0.15212526208E+03  0.30511305025E+03  0.39960756009E+03  0.52530406517E+03  0.47000000000E+01 0.  1.
         13    1    6    6    0    0 -0.10707144182E+01  0.14064929383E+02  0.69631642054E+02  0.71046000894E+02  0.00000000000E+00 0. -1.
        -14    1    6    6    0    0 -0.15228476631E+02  0.10238655315E+03  0.49876349502E+02  0.11490240644E+03  0.00000000000E+00 0.  1.
<mgrwt>
<rscale>  2 0.48577415E+03</rscale>
<asrwt>0</asrwt>
<pdfrwt beam="1">  1       21 0.10301943E+00 0.48620893E+03</pdfrwt>
<pdfrwt beam="2">  1       21 0.18059643E+00 0.48620893E+03</pdfrwt>
<totfact> 0.10827958E+02</totfact>
</mgrwt>
</event>
<event>
12    1  0.1019868E-001  0.1742424E+03  0.7546771E-02  0.1173735E+00
         21   -1    0    0  503  502  0.00000000000E+00  0.00000000000E+00  0.17307268976E+02  0.17307268976E+02  0.00000000000E+00 0. -1.
         21   -1    0    0  501  503 -0.00000000000E+00 -0.00000000000E+00 -0.19935225109E+04  0.19935225109E+04  0.00000000000E+00 0. -1.
          6    2    1    2  501    0  0.89606107424E+00 -0.13520855722E+02 -0.13456951250E+04  0.13569288095E+04  0.17371473217E+03 0.  0.
         24    2    3    3    0    0 -0.61507985716E+02  0.19714056644E+02 -0.71768769914E+03  0.72493652997E+03  0.79280909835E+02 0.  0.
         -6    2    1    2    0  502 -0.89606107424E+00  0.13520855722E+02 -0.63052011691E+03  0.65390097035E+03  0.17276355151E+03 0.  0.
        -24    2    5    5    0    0  0.51111349159E+02  0.38906242096E+02 -0.27167767281E+03  0.29039144056E+03  0.79952268006E+02 0.  0.
          5    1    3    3  501    0  0.62404046790E+02 -0.33234912366E+02 -0.62800742590E+03  0.63199227957E+03  0.47000000000E+01 0. -1.
        -11    1    4    4    0    0 -0.12832975737E+02  0.37418536918E+02 -0.15875979466E+03  0.16361388869E+03  0.00000000000E+00 0.  1.
         12    1    4    4    0    0 -0.48675009979E+02 -0.17704480275E+02 -0.55892790447E+03  0.56132264128E+03  0.00000000000E+00 0. -1.
         -5    1    5    5    0  502 -0.52007410233E+02 -0.25385386374E+02 -0.35884244411E+03  0.36350952980E+03  0.47000000000E+01 0.  1.
         13    1    6    6    0    0  0.11600150024E+02  0.30152527900E+02 -0.23014837752E+03  0.23240484955E+03  0.00000000000E+00 0. -1.
        -14    1    6    6    0    0  0.39511199135E+02  0.87537141963E+01 -0.41529295284E+02  0.57986591002E+02  0.00000000000E+00 0.  1.
<mgrwt>
<rscale>  2 0.17400487E+03</rscale>
<asrwt>0</asrwt>
<pdfrwt beam="1">  1       21 0.26626564E-02 0.17424243E+03</pdfrwt>
<pdfrwt beam="2">  1       21 0.30669581E+00 0.17424243E+03</pdfrwt>
<totfact> 0.24528337E+04</totfact>
</mgrwt>
</event>
<event>
12    1  0.1019868E-001  0.2311874E+03  0.7546771E-02  0.1125889E+00
         21   -1    0    0  503  502  0.00000000000E+00  0.00000000000E+00  0.10897419587E+03  0.10897419587E+03  0.00000000000E+00 0.  1.
         21   -1    0    0  501  503 -0.00000000000E+00 -0.00000000000E+00 -0.50563794394E+03  0.50563794394E+03  0.00000000000E+00 0.  1.
          6    2    1    2  501    0 -0.47813788167E+02  0.14501418198E+03 -0.25310467434E+03  0.34247830144E+03  0.17295704516E+03 0.  0.
         24    2    3    3    0    0 -0.62937379978E+02  0.16990272163E+03 -0.23866893946E+03  0.30963560246E+03  0.77995480818E+02 0.  0.
         -6    2    1    2    0  502  0.47813788167E+02 -0.14501418198E+03 -0.14355907373E+03  0.27213383837E+03  0.17358671325E+03 0.  0.
        -24    2    5    5    0    0 -0.24838940236E+01 -0.77120361834E+02 -0.15504388607E+02  0.11864273103E+03  0.88780581334E+02 0.  0.
          5    1    3    3  501    0  0.15123591812E+02 -0.24888539650E+02 -0.14435734878E+02  0.32842698986E+02  0.47000000000E+01 0. -1.
        -13    1    4    4    0    0 -0.11913907460E+02  0.11065273416E+03 -0.18099813006E+03  0.21247656777E+03  0.00000000000E+00 0.  1.
         14    1    4    4    0    0 -0.51023472518E+02  0.59249987471E+02 -0.57670809402E+02  0.97159034681E+02  0.00000000000E+00 0. -1.
         -5    1    5    5    0  502  0.50297682190E+02 -0.67893820149E+02 -0.12805468512E+03  0.15349110733E+03  0.47000000000E+01 0.  1.
         11    1    6    6    0    0 -0.32445144864E+02 -0.20147630805E+01  0.97351357527E+01  0.33934047263E+02  0.00000000000E+00 0. -1.
        -12    1    6    6    0    0  0.29961250841E+02 -0.75105598754E+02 -0.25239524360E+02  0.84708683770E+02  0.00000000000E+00 0.  1.
<mgrwt>
<rscale>  2 0.23106922E+03</rscale>
<asrwt>0</asrwt>
<pdfrwt beam="1">  1       21 0.16765261E-01 0.23118741E+03</pdfrwt>
<pdfrwt beam="2">  1       21 0.77790453E-01 0.23118741E+03</pdfrwt>
<totfact> 0.46023038E+04</totfact>
</mgrwt>
</event>
<event>
12    1  0.1019868E-001  0.3131484E+03  0.7546771E-02  0.1078863E+00
         21   -1    0    0  503  502  0.00000000000E+00  0.00000000000E+00  0.52555096849E+02  0.52555096849E+02  0.00000000000E+00 0. -1.
         21   -1    0    0  501  503 -0.00000000000E+00 -0.00000000000E+00 -0.21251401035E+04  0.21251401035E+04  0.00000000000E+00 0.  1.
          6    2    1    2  501    0 -0.54838073988E+02 -0.25447264773E+03 -0.14170071730E+04  0.14511663101E+04  0.17381250956E+03 0.  0.
         24    2    3    3    0    0 -0.23775496186E+02 -0.17537136370E+03 -0.12379361184E+04  0.12528977310E+04  0.77113563311E+02 0.  0.
         -6    2    1    2    0  502  0.54838073988E+02  0.25447264773E+03 -0.65557783362E+03  0.72652889020E+03  0.17406432593E+03 0.  0.
        -24    2    5    5    0    0  0.99637646612E+02  0.19093124535E+03 -0.42440029676E+03  0.48258288168E+03  0.79926370681E+02 0.  0.
          5    1    3    3  501    0 -0.31062577802E+02 -0.79101284031E+02 -0.17907105462E+03  0.19826857915E+03  0.47000000000E+01 0. -1.
        -13    1    4    4    0    0 -0.39669102864E+02 -0.10096827029E+03 -0.89934587570E+03  0.90586490906E+03  0.00000000000E+00 0.  1.
         14    1    4    4    0    0  0.15893606677E+02 -0.74403093413E+02 -0.33859024267E+03  0.34703282190E+03  0.00000000000E+00 0. -1.
         -5    1    5    5    0  502 -0.44799572624E+02  0.63541402385E+02 -0.23117753685E+03  0.24394600851E+03  0.47000000000E+01 0.  1.
         11    1    6    6    0    0  0.12499010233E+02  0.52375904425E+02 -0.48002216895E+02  0.72136491792E+02  0.00000000000E+00 0. -1.
        -12    1    6    6    0    0  0.87138636379E+02  0.13855534092E+03 -0.37639807987E+03  0.41044638989E+03  0.00000000000E+00 0.  1.
<mgrwt>
<rscale>  2 0.31311344E+03</rscale>
<asrwt>0</asrwt>
<pdfrwt beam="1">  1       21 0.80854011E-02 0.31314842E+03</pdfrwt>
<pdfrwt beam="2">  1       21 0.32694457E+00 0.31314842E+03</pdfrwt>
<totfact> 0.24905705E+03</totfact>
</mgrwt>
</event>
<event>
12    1  0.1019868E-001  0.1957228E+03  0.7546771E-02  0.1153850E+00
         21   -1    0    0  501  502  0.00000000000E+00  0.00000000000E+00  0.50697514568E+02  0.50697514568E+02  0.00000000000E+00 0.  1.
         21   -1    0    0  502  503 -0.00000000000E+00 -0.00000000000E+00 -0.74772010589E+03  0.74772010589E+03  0.00000000000E+00 0. -1.
         -6    2    1    2    0  503 -0.63971696002E+02  0.62578571990E+02 -0.34280255610E+03  0.39372113874E+03  0.17173900857E+03 0.  0.
        -24    2    3    3    0    0 -0.67410219774E+02  0.81186786446E+02 -0.34807620171E+03  0.37352236579E+03  0.85008726161E+02 0.  0.
          6    2    1    2  501    0  0.63971696002E+02 -0.62578571990E+02 -0.35422003523E+03  0.40469648172E+03  0.17406594555E+03 0.  0.
         24    2    5    5    0    0  0.88487459273E+02 -0.44882090531E+01 -0.29471683579E+03  0.31787347983E+03  0.79594983564E+02 0.  0.
          5    1    5    5  501    0 -0.24515763270E+02 -0.58090362937E+02 -0.59503199434E+02  0.86823001893E+02  0.47000000000E+01 0. -1.
        -11    1    6    6    0    0  0.43679876075E+02  0.26385944609E+02 -0.69781817801E+02  0.86450284802E+02  0.00000000000E+00 0.  1.
         12    1    6    6    0    0  0.44807583198E+02 -0.30874153662E+02 -0.22493501799E+03  0.23142319502E+03  0.00000000000E+00 0. -1.
         -5    1    3    3    0  503  0.34385237716E+01 -0.18608214456E+02  0.52736456079E+01  0.20198772957E+02  0.47000000000E+01 0.  1.
         11    1    4    4    0    0 -0.42867896154E+02  0.56062326860E+01 -0.20827414208E+03  0.21271390322E+03  0.00000000000E+00 0. -1.
        -12    1    4    4    0    0 -0.24542323620E+02  0.75580553760E+02 -0.13980205963E+03  0.16080846256E+03  0.00000000000E+00 0.  1.
<mgrwt>
<rscale>  2 0.19520409E+03</rscale>
<asrwt>0</asrwt>
<pdfrwt beam="1">  1       21 0.77996179E-02 0.19572279E+03</pdfrwt>
<pdfrwt beam="2">  1       21 0.11503386E+00 0.19572279E+03</pdfrwt>
<totfact> 0.73366704E+04</totfact>
</mgrwt>
</event>
<event>
12    1  0.1019868E-001  0.2014508E+03  0.7546771E-02  0.1148599E+00
         21   -1    0    0  501  502  0.00000000000E+00  0.00000000000E+00  0.57501484556E+03  0.57501484556E+03  0.00000000000E+00 0. -1.
         21   -1    0    0  502  503 -0.00000000000E+00 -0.00000000000E+00 -0.70476973759E+02  0.70476973759E+02  0.00000000000E+00 0.  1.
         -6    2    1    2    0  503 -0.42060007495E+02 -0.94238086627E+02  0.24565489731E+03  0.31769285107E+03  0.17301028249E+03 0.  0.
        -24    2    3    3    0    0 -0.27461914461E+02 -0.13265942310E+03  0.21099475716E+03  0.26372324173E+03  0.81721976223E+02 0.  0.
          6    2    1    2  501    0  0.42060007495E+02  0.94238086627E+02  0.25888297450E+03  0.32779896825E+03  0.17257435471E+03 0.  0.
         24    2    5    5    0    0  0.55033588639E+02  0.87518671968E+02  0.27598784433E+03  0.30481786922E+03  0.77823064419E+02 0.  0.
          5    1    5    5  501    0 -0.12973581144E+02  0.67194146595E+01 -0.17104869832E+02  0.22981099039E+02  0.47000000000E+01 0. -1.
        -11    1    6    6    0    0  0.57446843523E+02  0.57236106009E+02  0.11337367025E+03  0.13939046154E+03  0.00000000000E+00 0.  1.
         12    1    6    6    0    0 -0.24132548845E+01  0.30282565959E+02  0.16261417408E+03  0.16542740768E+03  0.00000000000E+00 0. -1.
         -5    1    3    3    0  503 -0.14598093033E+02  0.38421336474E+02  0.34660140150E+02  0.53969609336E+02  0.47000000000E+01 0.  1.
         13    1    4    4    0    0 -0.16781947789E+02 -0.10794704372E+03  0.21007984094E+03  0.23678626985E+03  0.00000000000E+00 0. -1.
        -14    1    4    4    0    0 -0.10679966672E+02 -0.24712379376E+02  0.91491622145E+00  0.26936971884E+02  0.00000000000E+00 0.  1.
<mgrwt>
<rscale>  2 0.20135716E+03</rscale>
<asrwt>0</asrwt>
<pdfrwt beam="1">  1       21 0.88463819E-01 0.20145079E+03</pdfrwt>
<pdfrwt beam="2">  1       21 0.10842612E-01 0.20145079E+03</pdfrwt>
<totfact> 0.76557738E+04</totfact>
</mgrwt>
</event>
<event>
12    1  0.1019868E-001  0.2541529E+03  0.7546771E-02  0.1110891E+00
         21   -1    0    0  501  502  0.00000000000E+00  0.00000000000E+00  0.52744796055E+03  0.52744796055E+03  0.00000000000E+00 0. -1.
         21   -1    0    0  502  503 -0.00000000000E+00 -0.00000000000E+00 -0.33339228709E+03  0.33339228709E+03  0.00000000000E+00 0. -1.
         -6    2    1    2    0  503 -0.16860322772E+03 -0.76297357373E+02 -0.24587248199E+03  0.35277481857E+03  0.17247741905E+03 0.  0.
        -24    2    3    3    0    0 -0.12298714033E+03 -0.11987091393E+03 -0.17921367034E+03  0.26087830378E+03  0.80281237257E+02 0.  0.
          6    2    1    2  501    0  0.16860322772E+03  0.76297357373E+02  0.43992815545E+03  0.50806542906E+03  0.17419920525E+03 0.  0.
         24    2    5    5    0    0  0.13746683352E+03  0.73127059844E+02  0.20344281922E+03  0.26947177851E+03  0.83554542202E+02 0.  0.
          5    1    5    5  501    0  0.31136394199E+02  0.31702975286E+01  0.23648533623E+03  0.23859365055E+03  0.47000000000E+01 0. -1.
        -11    1    6    6    0    0  0.91768440403E+02  0.26879889729E+02  0.17302702038E+03  0.19769250088E+03  0.00000000000E+00 0.  1.
         12    1    6    6    0    0  0.45698393119E+02  0.46247170116E+02  0.30415798842E+02  0.71779277626E+02  0.00000000000E+00 0. -1.
         -5    1    3    3    0  503 -0.45616087391E+02  0.43573556559E+02 -0.66658811648E+02  0.91896514789E+02  0.47000000000E+01 0.  1.
         13    1    4    4    0    0 -0.28968628111E+02 -0.52171975727E+02 -0.11208142627E+03  0.12697772474E+03  0.00000000000E+00 0. -1.
        -14    1    4    4    0    0 -0.94018512218E+02 -0.67698938205E+02 -0.67132244067E+02  0.13390057904E+03  0.00000000000E+00 0.  1.
<mgrwt>
<rscale>  2 0.25385813E+03</rscale>
<asrwt>0</asrwt>
<pdfrwt beam="1">  1       21 0.81145840E-01 0.25415290E+03</pdfrwt>
<pdfrwt beam="2">  1       21 0.51291121E-01 0.25415290E+03</pdfrwt>
<totfact> 0.46066632E+03</totfact>
</mgrwt>
</event>
<event>
12    1  0.1019868E-001  0.2121812E+03  0.7546771E-02  0.1139979E+00
         21   -1    0    0  501  502  0.00000000000E+00  0.00000000000E+00  0.97970615573E+02  0.97970615573E+02  0.00000000000E+00 0. -1.
         21   -1    0    0  502  503 -0.00000000000E+00 -0.00000000000E+00 -0.58409313047E+03  0.58409313047E+03  0.00000000000E+00 0. -1.
         -6    2    1    2    0  503  0.15483188681E+02  0.12157866718E+03 -0.40174239801E+03  0.45433229642E+03  0.17320444498E+03 0.  0.
        -24    2    3    3    0    0 -0.10794912917E+02  0.15149003628E+03 -0.32700447036E+03  0.36952028987E+03  0.80916992983E+02 0.  0.
          6    2    1    2  501    0 -0.15483188681E+02 -0.12157866718E+03 -0.84380116884E+02  0.22773144962E+03  0.17239636764E+03 0.  0.
         24    2    5    5    0    0  0.51495681057E+02 -0.89702724337E+02 -0.79706381424E+02  0.15325877996E+03  0.80229436459E+02 0.  0.
          5    1    5    5  501    0 -0.66978869737E+02 -0.31875942847E+02 -0.46737354604E+01  0.74472669664E+02  0.47000000000E+01 0. -1.
        -11    1    6    6    0    0 -0.29274907243E+01 -0.15454042392E+01 -0.43328327253E+02  0.43454601813E+02  0.00000000000E+00 0.  1.
         12    1    6    6    0    0  0.54423171781E+02 -0.88157320098E+02 -0.36378054171E+02  0.10980417815E+03  0.00000000000E+00 0. -1.
         -5    1    3    3    0  503  0.26278101597E+02 -0.29911369096E+02 -0.74737927647E+02  0.84812006542E+02  0.47000000000E+01 0.  1.
         11    1    4    4    0    0 -0.32962719101E+02  0.41125929606E+02 -0.15712820939E+03  0.16573218493E+03  0.00000000000E+00 0. -1.
        -12    1    4    4    0    0  0.22167806185E+02  0.11036410667E+03 -0.16987626098E+03  0.20378810494E+03  0.00000000000E+00 0.  1.
<mgrwt>
<rscale>  2 0.21201627E+03</rscale>
<asrwt>0</asrwt>
<pdfrwt beam="1">  1       21 0.15072402E-01 0.21218125E+03</pdfrwt>
<pdfrwt beam="2">  1       21 0.89860481E-01 0.21218125E+03</pdfrwt>
<totfact> 0.40583223E+04</totfact>
</mgrwt>
</event>
<event>
12    1  0.1019868E-001  0.1775301E+03  0.7546771E-02  0.1170289E+00
         21   -1    0    0  503  502  0.00000000000E+00  0.00000000000E+00  0.12661150685E+03  0.12661150685E+03  0.00000000000E+00 0.  1.
         21   -1    0    0  501  503 -0.00000000000E+00 -0.00000000000E+00 -0.38657754136E+03  0.38657754136E+03  0.00000000000E+00 0.  1.
          6    2    1    2  501    0 -0.10386717543E+02 -0.38539164218E+02 -0.28340197347E+03  0.33441531005E+03  0.17298488359E+03 0.  0.
         24    2    3    3    0    0  0.29815878012E+01 -0.91378131451E+02 -0.20406098700E+03  0.23804233573E+03  0.81635864732E+02 0.  0.
         -6    2    1    2    0  502  0.10386717543E+02  0.38539164218E+02  0.23435938966E+02  0.17877373816E+03  0.17267789418E+03 0.  0.
        -24    2    5    5    0    0  0.10917992021E+02 -0.10227620237E+02 -0.46424651016E+02  0.93444531252E+02  0.79704613627E+02 0.  0.
          5    1    3    3  501    0 -0.13368305345E+02  0.52838967233E+02 -0.79340986472E+02  0.96372974325E+02  0.47000000000E+01 0. -1.
        -11    1    4    4    0    0 -0.19864372636E+02 -0.72294844016E+02 -0.19164606716E+03  0.20578958387E+03  0.00000000000E+00 0.  1.
         12    1    4    4    0    0  0.22845960437E+02 -0.19083287435E+02 -0.12414919834E+02  0.32252751853E+02  0.00000000000E+00 0. -1.
         -5    1    5    5    0  502 -0.53127447725E+00  0.48766784455E+02  0.69860589982E+02  0.85329206907E+02  0.47000000000E+01 0.  1.
         13    1    6    6    0    0  0.28963783979E+02  0.27059367845E+02 -0.24071996688E+02  0.46374251424E+02  0.00000000000E+00 0. -1.
        -14    1    6    6    0    0 -0.18045791959E+02 -0.37286988081E+02 -0.22352654328E+02  0.47070279828E+02  0.00000000000E+00 0.  1.
<mgrwt>
<rscale>  2 0.17745523E+03</rscale>
<asrwt>0</asrwt>
<pdfrwt beam="1">  1       21 0.19478694E-01 0.17753006E+03</pdfrwt>
<pdfrwt beam="2">  1       21 0.59473467E-01 0.17753006E+03</pdfrwt>
<totfact> 0.64463369E+04</totfact>
</mgrwt>
</event>
<event>
12    1  0.1019868E-001  0.2022936E+03  0.7546771E-02  0.1147853E+00
         21   -1    0    0  503  502  0.00000000000E+00  0.00000000000E+00  0.36065981371E+03  0.36065981371E+03  0.00000000000E+00 0. -1.
         21   -1    0    0  501  503 -0.00000000000E+00 -0.00000000000E+00 -0.17577727486E+03  0.17577727486E+03  0.00000000000E+00 0. -1.
          6    2    1    2  501    0  0.31484805853E+02  0.10512105762E+03 -0.67399754351E+02  0.21306569841E+03  0.16974255565E+03 0.  0.
         24    2    3    3    0    0  0.55850837464E+00  0.17845321686E+02 -0.87558685610E+02  0.11818702606E+03  0.77349093494E+02 0.  0.
         -6    2    1    2    0  502 -0.31484805853E+02 -0.10512105762E+03  0.25228229320E+03  0.32337139016E+03  0.16994402242E+03 0.  0.
        -24    2    5    5    0    0 -0.58368914959E+02 -0.79050152601E+02  0.88059163211E+02  0.15486686846E+03  0.81076962579E+02 0.  0.
          5    1    3    3  501    0  0.30926297478E+02  0.87275735937E+02  0.20158931259E+02  0.94878672358E+02  0.47000000000E+01 0. -1.
        -11    1    4    4    0    0  0.34030811936E+02 -0.10400814253E+02 -0.39456609501E+02  0.53132825367E+02  0.00000000000E+00 0.  1.
         12    1    4    4    0    0 -0.33472303561E+02  0.28246135939E+02 -0.48102076109E+02  0.65054200689E+02  0.00000000000E+00 0. -1.
         -5    1    5    5    0  502  0.26884109106E+02 -0.26070905022E+02  0.16422312998E+03  0.16850452170E+03  0.47000000000E+01 0.  1.
         11    1    6    6    0    0 -0.23960245915E+02 -0.56710900196E+02  0.95054795374E+02  0.11325031439E+03  0.00000000000E+00 0. -1.
        -12    1    6    6    0    0 -0.34408669044E+02 -0.22339252405E+02 -0.69956321629E+01  0.41616554071E+02  0.00000000000E+00 0.  1.
<mgrwt>
<rscale>  2 0.20225128E+03</rscale>
<asrwt>0</asrwt>
<pdfrwt beam="1">  1       21 0.55486125E-01 0.20229360E+03</pdfrwt>
<pdfrwt beam="2">  1       21 0.27042658E-01 0.20229360E+03</pdfrwt>
<totfact> 0.39692787E+04</totfact>
</mgrwt>
</event>
<event>
12    1  0.1019868E-001  0.1927635E+03  0.7546771E-02  0.1156522E+00
         21   -1    0    0  501  502  0.00000000000E+00  0.00000000000E+00  0.15377959255E+04  0.15377959255E+04  0.00000000000E+00 0. -1.
         21   -1    0    0  502  503 -0.00000000000E+00 -0.00000000000E+00 -0.65025301065E+02  0.65025301065E+02  0.00000000000E+00 0.  1.
         -6    2    1    2    0  503  0.36487769465E+02 -0.76631494688E+02  0.97108077081E+02  0.21371891973E+03  0.17041729583E+03 0.  0.
        -24    2    3    3    0    0 -0.23564156479E+02 -0.16415634739E+02  0.12896387020E+01  0.85518113448E+02  0.80541554649E+02 0.  0.
          6    2    1    2  501    0 -0.36487769465E+02  0.76631494688E+02  0.13756625474E+04  0.13891023069E+04  0.17307232983E+03 0.  0.
         24    2    5    5    0    0  0.78804409589E+01  0.75652206881E+02  0.51122723190E+03  0.52351579948E+03  0.83247533990E+02 0.  0.
          5    1    5    5  501    0 -0.44368210424E+02  0.97928780679E+00  0.86443531548E+03  0.86558650738E+03  0.47000000000E+01 0. -1.
        -11    1    6    6    0    0  0.10206908565E+02  0.90239659314E+02  0.48486979779E+03  0.49330122431E+03  0.00000000000E+00 0.  1.
         12    1    6    6    0    0 -0.23264676057E+01 -0.14587452433E+02  0.26357434103E+02  0.30214575167E+02  0.00000000000E+00 0. -1.
         -5    1    3    3    0  503  0.60051925944E+02 -0.60215859949E+02  0.95818438379E+02  0.12820080629E+03  0.47000000000E+01 0.  1.
         13    1    4    4    0    0  0.75659233382E+01 -0.14816095182E+02 -0.34352237804E+02  0.38168522561E+02  0.00000000000E+00 0. -1.
        -14    1    4    4    0    0 -0.31130079817E+02 -0.15995395571E+01  0.35641876506E+02  0.47349590886E+02  0.00000000000E+00 0.  1.
<mgrwt>
<rscale>  2 0.19216569E+03</rscale>
<asrwt>0</asrwt>
<pdfrwt beam="1">  1       21 0.23658396E+00 0.19276352E+03</pdfrwt>
<pdfrwt beam="2">  1       21 0.10003894E-01 0.19276352E+03</pdfrwt>
<totfact> 0.64739128E+03</totfact>
</mgrwt>
</event>
<event>
12    1  0.1019868E-001  0.3044938E+03  0.7546771E-02  0.1083038E+00
         21   -1    0    0  501  502  0.00000000000E+00  0.00000000000E+00  0.16057833368E+03  0.16057833368E+03  0.00000000000E+00 0.  1.
         21   -1    0    0  502  503 -0.00000000000E+00 -0.00000000000E+00 -0.84189381681E+03  0.84189381681E+03  0.00000000000E+00 0. -1.
         -6    2    1    2    0  503 -0.24516404635E+03 -0.53677385629E+02 -0.62172057592E+03  0.69220121303E+03  0.17210279909E+03 0.  0.
        -24    2    3    3    0    0 -0.25867532466E+03 -0.68529044221E+02 -0.54347198182E+03  0.61128113590E+03  0.81814904488E+02 0.  0.
          6    2    1    2  501    0  0.24516404635E+03  0.53677385629E+02 -0.59594907217E+02  0.31027093746E+03  0.17242340420E+03 0.  0.
         24    2    5    5    0    0  0.21992496787E+03  0.77522465039E+02 -0.58815716438E+01  0.24613973357E+03  0.78571314593E+02 0.  0.
          5    1    5    5  501    0  0.25239078479E+02 -0.23845079410E+02 -0.53713335573E+02  0.64131203894E+02  0.47000000000E+01 0. -1.
        -13    1    6    6    0    0  0.19234546432E+03  0.79540856575E+02 -0.28925804856E+02  0.21014335035E+03  0.00000000000E+00 0.  1.
         14    1    6    6    0    0  0.27579503553E+02 -0.20183915361E+01  0.23044233212E+02  0.35996383220E+02  0.00000000000E+00 0. -1.
         -5    1    3    3    0  503  0.13511278312E+02  0.14851658593E+02 -0.78248594097E+02  0.80920077130E+02  0.47000000000E+01 0.  1.
         13    1    4    4    0    0 -0.39926346998E+02 -0.26983875752E+02 -0.16778934167E+03  0.17457235151E+03  0.00000000000E+00 0. -1.
        -14    1    4    4    0    0 -0.21874897766E+03 -0.41545168469E+02 -0.37568264015E+03  0.43670878439E+03  0.00000000000E+00 0.  1.
<mgrwt>
<rscale>  2 0.30444848E+03</rscale>
<asrwt>0</asrwt>
<pdfrwt beam="1">  1       21 0.24704359E-01 0.30449385E+03</pdfrwt>
<pdfrwt beam="2">  1       21 0.12952213E+00 0.30449385E+03</pdfrwt>
<totfact> 0.62961989E+03</totfact>
</mgrwt>
</event>
<event>
12    1  0.1019868E-001  0.2347514E+03  0.7546771E-02  0.1124503E+00
         21   -1    0    0  501  502  0.00000000000E+00  0.00000000000E+00  0.60760182530E+02  0.60760182530E+02  0.00000000000E+00 0. -1.
         21   -1    0    0  502  503 -0.00000000000E+00 -0.00000000000E+00 -0.88488220503E+03  0.88488220503E+03  0.00000000000E+00 0. -1.
         -6    2    1    2    0  503 -0.10102400966E+03  0.11030759389E+03 -0.43607869664E+03  0.49211635159E+03  0.17216346317E+03 0.  0.
        -24    2    3    3    0    0 -0.13782342969E+03  0.10444179771E+03 -0.39878516523E+03  0.43918713127E+03  0.62867649782E+02 0.  0.
          6    2    1    2  501    0  0.10102400966E+03 -0.11030759389E+03 -0.38804332587E+03  0.45352603597E+03  0.18092713106E+03 0.  0.
         24    2    5    5    0    0  0.78285468147E+02 -0.13906562745E+03 -0.23103970663E+03  0.29223036889E+03  0.80940590570E+02 0.  0.
          5    1    5    5  501    0  0.22738541512E+02  0.28758033559E+02 -0.15700361924E+03  0.16129566708E+03  0.47000000000E+01 0. -1.
        -13    1    6    6    0    0  0.60056394262E+02 -0.37520238621E+02 -0.12880196975E+03  0.14698464616E+03  0.00000000000E+00 0.  1.
         14    1    6    6    0    0  0.18229073884E+02 -0.10154538883E+03 -0.10223773688E+03  0.14524572273E+03  0.00000000000E+00 0. -1.
         -5    1    3    3    0  503  0.36799420026E+02  0.58657961829E+01 -0.37293531404E+02  0.52929220321E+02  0.47000000000E+01 0.  1.
         11    1    4    4    0    0 -0.31111302311E+02  0.29215655732E+02 -0.17472825677E+03  0.17986503658E+03  0.00000000000E+00 0. -1.
        -12    1    4    4    0    0 -0.10671212737E+03  0.75226141976E+02 -0.22405690846E+03  0.25932209469E+03  0.00000000000E+00 0.  1.
<mgrwt>
<rscale>  2 0.23306181E+03</rscale>
<asrwt>0</asrwt>
<pdfrwt beam="1">  1       21 0.93477208E-02 0.23475145E+03</pdfrwt>
<pdfrwt beam="2">  1       21 0.13613572E+00 0.23475145E+03</pdfrwt>
<totfact> 0.34326784E+04</totfact>
</mgrwt>
</event>
<event>
12    1  0.1019868E-001  0.2066830E+03  0.7546771E-02  0.1144465E+00
         21   -1    0    0  503  502  0.00000000000E+00  0.00000000000E+00  0.49039961710E+02  0.49039961710E+02  0.00000000000E+00 0.  1.
         21   -1    0    0  501  503 -0.00000000000E+00 -0.00000000000E+00 -0.86909465365E+03  0.86909465365E+03  0.00000000000E+00 0.  1.
          6    2    1    2  501    0 -0.23555962364E+02 -0.10884295389E+03 -0.38146468626E+03  0.43328511190E+03  0.17268181537E+03 0.  0.
         24    2    3    3    0    0 -0.49782146077E+02 -0.41174127361E+02 -0.10275644509E+03  0.14524473888E+03  0.79772027259E+02 0.  0.
         -6    2    1    2    0  502  0.23555962364E+02  0.10884295389E+03 -0.43859000568E+03  0.48484950346E+03  0.17411540983E+03 0.  0.
        -24    2    5    5    0    0  0.82681475874E+02  0.67349161894E+02 -0.26839979909E+03  0.29990530230E+03  0.80824514436E+02 0.  0.
          5    1    3    3  501    0  0.26226183713E+02 -0.67668826533E+02 -0.27870824117E+03  0.28804037302E+03  0.47000000000E+01 0. -1.
        -13    1    4    4    0    0  0.92284784000E+01 -0.36374244867E+02 -0.64907856981E+02  0.74975198573E+02  0.00000000000E+00 0.  1.
         14    1    4    4    0    0 -0.59010624477E+02 -0.47998824941E+01 -0.37848588107E+02  0.70269540306E+02  0.00000000000E+00 0. -1.
         -5    1    5    5    0  502 -0.59125513510E+02  0.41493792000E+02 -0.17019020659E+03  0.18494420116E+03  0.47000000000E+01 0.  1.
         11    1    6    6    0    0  0.91658420932E+01 -0.38235381682E+01  0.25707731859E+01  0.10258702656E+02  0.00000000000E+00 0. -1.
        -12    1    6    6    0    0  0.73515633781E+02  0.71172700062E+02 -0.27097057228E+03  0.28964659964E+03  0.00000000000E+00 0.  1.
<mgrwt>
<rscale>  2 0.20638074E+03</rscale>
<asrwt>0</asrwt>
<pdfrwt beam="1">  1       21 0.75446096E-02 0.20668296E+03</pdfrwt>
<pdfrwt beam="2">  1       21 0.13370687E+00 0.20668296E+03</pdfrwt>
<totfact> 0.53086087E+04</totfact>
</mgrwt>
</event>
<event>
12    1  0.1019868E-001  0.2636197E+03  0.7546771E-02  0.1105093E+00
         21   -1    0    0  503  502  0.00000000000E+00  0.00000000000E+00  0.56654132823E+03  0.56654132823E+03  0.00000000000E+00 0. -1.
         21   -1    0    0  501  503 -0.00000000000E+00 -0.00000000000E+00 -0.12783183184E+03  0.12783183184E+03  0.00000000000E+00 0. -1.
          6    2    1    2  501    0 -0.82698125155E+02 -0.18067295612E+03  0.14706940254E+03  0.30124556901E+03  0.17215628570E+03 0.  0.
         24    2    3    3    0    0 -0.38061935085E+02 -0.14654707226E+03  0.34220317921E+02  0.17509497918E+03  0.81009050652E+02 0.  0.
         -6    2    1    2    0  502  0.82698125155E+02  0.18067295612E+03  0.29164009385E+03  0.39312759106E+03  0.17324451373E+03 0.  0.
        -24    2    5    5    0    0  0.31094629820E+02  0.18199783354E+03  0.27055929829E+03  0.33717076867E+03  0.79948145308E+02 0.  0.
          5    1    3    3  501    0 -0.44636190070E+02 -0.34125883866E+02  0.11284908462E+03  0.12615058983E+03  0.47000000000E+01 0. -1.
        -13    1    4    4    0    0 -0.41381728792E+02 -0.73045790064E+02 -0.16724583949E+02  0.85602842431E+02  0.00000000000E+00 0.  1.
         14    1    4    4    0    0  0.33197937068E+01 -0.73501282192E+02  0.50944901871E+02  0.89492136753E+02  0.00000000000E+00 0. -1.
         -5    1    5    5    0  502  0.51603495335E+02 -0.13248774166E+01  0.21080795554E+02  0.55956822391E+02  0.47000000000E+01 0.  1.
         11    1    6    6    0    0  0.48874035266E+02  0.15108121843E+03  0.24952687600E+03  0.29576657643E+03  0.00000000000E+00 0. -1.
        -12    1    6    6    0    0 -0.17779405446E+02  0.30916615110E+02  0.21032422289E+02  0.41404192242E+02  0.00000000000E+00 0.  1.
<mgrwt>
<rscale>  2 0.26344107E+03</rscale>
<asrwt>0</asrwt>
<pdfrwt beam="1">  1       21 0.87160203E-01 0.26361972E+03</pdfrwt>
<pdfrwt beam="2">  1       21 0.19666436E-01 0.26361972E+03</pdfrwt>
<totfact> 0.25981120E+04</totfact>
</mgrwt>
</event>
<event>
12    1  0.1019868E-001  0.2222649E+03  0.7546771E-02  0.1132399E+00
         21   -1    0    0  503  502  0.00000000000E+00  0.00000000000E+00  0.49001250930E+03  0.49001250930E+03  0.00000000000E+00 0. -1.
         21   -1    0    0  501  503 -0.00000000000E+00 -0.00000000000E+00 -0.10111219979E+03  0.10111219979E+03  0.00000000000E+00 0. -1.
          6    2    1    2  501    0 -0.13470324479E+03  0.27417331901E+02  0.21977110675E+03  0.31182852084E+03  0.17332343407E+03 0.  0.
         24    2    3    3    0    0 -0.96568258627E+01  0.45655240493E+02  0.11034241895E+03  0.14459827265E+03  0.80966386617E+02 0.  0.
         -6    2    1    2    0  502  0.13470324479E+03 -0.27417331901E+02  0.16912920276E+03  0.27929618825E+03  0.17465680434E+03 0.  0.
        -24    2    5    5    0    0  0.90315543457E+02  0.56410482864E+01  0.20480600222E+02  0.12060900677E+03  0.77060746908E+02 0.  0.
          5    1    3    3  501    0 -0.12504641893E+03 -0.18237908592E+02  0.10942868780E+03  0.16723024819E+03  0.47000000000E+01 0. -1.
        -13    1    4    4    0    0 -0.73107096945E+01  0.52940336257E+02  0.12053534830E+03  0.13185179509E+03  0.00000000000E+00 0.  1.
         14    1    4    4    0    0 -0.23461161682E+01 -0.72850957645E+01 -0.10192929347E+02  0.12746477555E+02  0.00000000000E+00 0. -1.
         -5    1    5    5    0  502  0.44387701331E+02 -0.33058380187E+02  0.14864860254E+03  0.15868718148E+03  0.47000000000E+01 0.  1.
         11    1    6    6    0    0  0.83185253302E+02  0.20895139447E+02  0.40162620791E+02  0.94707071162E+02  0.00000000000E+00 0. -1.
        -12    1    6    6    0    0  0.71302901553E+01 -0.15254091160E+02 -0.19682020568E+02  0.25901935612E+02  0.00000000000E+00 0.  1.
<mgrwt>
<rscale>  2 0.22200285E+03</rscale>
<asrwt>0</asrwt>
<pdfrwt beam="1">  1       21 0.75386539E-01 0.22226487E+03</pdfrwt>
<pdfrwt beam="2">  1       21 0.15555723E-01 0.22226487E+03</pdfrwt>
<totfact> 0.56909281E+04</totfact>
</mgrwt>
</event>
<event>
12    1  0.1019868E-001  0.1886461E+03  0.7546771E-02  0.1159974E+00
         21   -1    0    0  501  502  0.00000000000E+00  0.00000000000E+00  0.49545170519E+03  0.49545170519E+03  0.00000000000E+00 0. -1.
         21   -1    0    0  502  503 -0.00000000000E+00 -0.00000000000E+00 -0.76981330113E+02  0.76981330113E+02  0.00000000000E+00 0. -1.
         -6    2    1    2    0  503 -0.11489460473E+02 -0.72192543012E+02  0.28598376355E+03  0.34191175613E+03  0.17254902200E+03 0.  0.
        -24    2    3    3    0    0  0.11090179050E+02 -0.11278820628E+03  0.19207362019E+03  0.23703538594E+03  0.80307702427E+02 0.  0.
          6    2    1    2  501    0  0.11489460473E+02  0.72192543012E+02  0.13248661153E+03  0.23052127918E+03  0.17390683411E+03 0.  0.
         24    2    5    5    0    0 -0.22462817754E+02 -0.21942298032E+02  0.75161300262E+02  0.11509854828E+03  0.81316739579E+02 0.  0.
          5    1    5    5  501    0  0.33952278226E+02  0.94134841045E+02  0.57325311265E+02  0.11542273089E+03  0.47000000000E+01 0. -1.
        -13    1    6    6    0    0 -0.40508144859E+02  0.11904756841E+02  0.17190062732E+02  0.45586525334E+02  0.00000000000E+00 0.  1.
         14    1    6    6    0    0  0.18045327105E+02 -0.33847054873E+02  0.57971237530E+02  0.69512022950E+02  0.00000000000E+00 0. -1.
         -5    1    3    3    0  503 -0.22579639523E+02  0.40595663265E+02  0.93910143364E+02  0.10487637019E+03  0.47000000000E+01 0.  1.
         11    1    4    4    0    0  0.12442248095E+02 -0.76471315598E+02  0.54456434130E+02  0.94700448072E+02  0.00000000000E+00 0. -1.
        -12    1    4    4    0    0 -0.13520690445E+01 -0.36316890679E+02  0.13761718606E+03  0.14233493787E+03  0.00000000000E+00 0.  1.
<mgrwt>
<rscale>  2 0.18833259E+03</rscale>
<asrwt>0</asrwt>
<pdfrwt beam="1">  1       21 0.76223338E-01 0.18864612E+03</pdfrwt>
<pdfrwt beam="2">  1       21 0.11843282E-01 0.18864612E+03</pdfrwt>
<totfact> 0.92274089E+04</totfact>
</mgrwt>
</event>
<event>
12    1  0.1019868E-001  0.1881911E+03  0.7546771E-02  0.1160355E+00
         21   -1    0    0  503  502  0.00000000000E+00  0.00000000000E+00  0.50301146932E+03  0.50301146932E+03  0.00000000000E+00 0. -1.
         21   -1    0    0  501  503 -0.00000000000E+00 -0.00000000000E+00 -0.99617320855E+02  0.99617320855E+02  0.00000000000E+00 0. -1.
          6    2    1    2  501    0  0.46792213029E+02 -0.55548090811E+02  0.37808435738E+02  0.19195148822E+03  0.17361104350E+03 0.  0.
         24    2    3    3    0    0  0.56621724166E+02 -0.41379503232E+02 -0.37945612530E+02  0.11411747257E+03  0.81637277638E+02 0.  0.
         -6    2    1    2    0  502 -0.46792213029E+02  0.55548090811E+02  0.36558571272E+03  0.41067730195E+03  0.17241760756E+03 0.  0.
        -24    2    5    5    0    0 -0.74584427550E+02  0.52893704905E+02  0.15038424537E+03  0.19362151534E+03  0.80704950862E+02 0.  0.
          5    1    3    3  501    0 -0.98295111374E+01 -0.14168587579E+02  0.75754048269E+02  0.77834015650E+02  0.47000000000E+01 0. -1.
        -13    1    4    4    0    0 -0.11337727839E+02  0.11635725803E+02 -0.20535021585E+02  0.26184371274E+02  0.00000000000E+00 0.  1.
         14    1    4    4    0    0  0.67959452005E+02 -0.53015229035E+02 -0.17410590945E+02  0.87933101296E+02  0.00000000000E+00 0. -1.
         -5    1    5    5    0  502  0.27792214522E+02  0.26543859064E+01  0.21520146735E+03  0.21705578661E+03  0.47000000000E+01 0.  1.
         11    1    6    6    0    0 -0.65877151063E+02  0.50847247640E+00  0.10401344908E+03  0.12312130265E+03  0.00000000000E+00 0. -1.
        -12    1    6    6    0    0 -0.87072764878E+01  0.52385232428E+02  0.46370796295E+02  0.70500212691E+02  0.00000000000E+00 0.  1.
<mgrwt>
<rscale>  2 0.18791541E+03</rscale>
<asrwt>0</asrwt>
<pdfrwt beam="1">  1       21 0.77386379E-01 0.18819112E+03</pdfrwt>
<pdfrwt beam="2">  1       21 0.15325742E-01 0.18819112E+03</pdfrwt>
<totfact> 0.56029222E+04</totfact>
</mgrwt>
</event>
<event>
12    1  0.1019868E-001  0.1981853E+03  0.7546771E-02  0.1152352E+00
         21   -1    0    0  503  502  0.00000000000E+00  0.00000000000E+00  0.11694926630E+03  0.11694926630E+03  0.00000000000E+00 0. -1.
         21   -1    0    0  501  503 -0.00000000000E+00 -0.00000000000E+00 -0.34056497611E+03  0.34056497611E+03  0.00000000000E+00 0. -1.
          6    2    1    2  501    0 -0.95722659439E+02  0.16043474048E+01 -0.15525339135E+03  0.24786971719E+03  0.16784033994E+03 0.  0.
         24    2    3    3    0    0 -0.11610704152E+03  0.31316354342E+02 -0.81542003700E+02  0.16568830166E+03  0.79636397445E+02 0.  0.
         -6    2    1    2    0  502  0.95722659439E+02 -0.16043474048E+01 -0.68362318464E+02  0.20964452523E+03  0.17352815020E+03 0.  0.
        -24    2    5    5    0    0  0.63917250566E+02 -0.65084820634E+02 -0.21670841190E+02  0.12453554471E+03  0.81963575696E+02 0.  0.
          5    1    3    3  501    0  0.20384382084E+02 -0.29712006937E+02 -0.73711387649E+02  0.82181415529E+02  0.47000000000E+01 0. -1.
        -13    1    4    4    0    0  0.10512983196E+01  0.58746947451E+01 -0.37490373204E+02  0.37962420227E+02  0.00000000000E+00 0.  1.
         14    1    4    4    0    0 -0.11715833984E+03  0.25441659597E+02 -0.44051630496E+02  0.12772588143E+03  0.00000000000E+00 0. -1.
         -5    1    5    5    0  502  0.31805408873E+02  0.63480473229E+02 -0.46691477274E+02  0.85108980519E+02  0.47000000000E+01 0.  1.
         13    1    6    6    0    0  0.63947164478E+02 -0.21837884952E+02 -0.38914757424E+02  0.77977505791E+02  0.00000000000E+00 0. -1.
        -14    1    6    6    0    0 -0.29913912490E-01 -0.43246935682E+02  0.17243916234E+02  0.46558038917E+02  0.00000000000E+00 0.  1.
<mgrwt>
<rscale>  2 0.19693335E+03</rscale>
<asrwt>0</asrwt>
<pdfrwt beam="1">  1       21 0.17992194E-01 0.19818532E+03</pdfrwt>
<pdfrwt beam="2">  1       21 0.52394613E-01 0.19818532E+03</pdfrwt>
<totfact> 0.96863801E+04</totfact>
</mgrwt>
</event>
<event>
12    1  0.1019868E-001  0.2099247E+03  0.7546771E-02  0.1141697E+00
         21   -1    0    0  503  502  0.00000000000E+00  0.00000000000E+00  0.70721541893E+03  0.70721541893E+03  0.00000000000E+00 0.  1.
         21   -1    0    0  501  503 -0.00000000000E+00 -0.00000000000E+00 -0.83475425860E+02  0.83475425860E+02  0.00000000000E+00 0. -1.
          6    2    1    2  501    0  0.89043401706E+02  0.76454897189E+02  0.11250588595E+03  0.23817215403E+03  0.17405264115E+03 0.  0.
         24    2    3    3    0    0  0.11630753953E+03  0.18718483710E+02  0.95924913411E+02  0.17203710052E+03  0.80730103167E+02 0.  0.
         -6    2    1    2    0  502 -0.89043401706E+02 -0.76454897189E+02  0.51123410713E+03  0.55251869076E+03  0.17361599194E+03 0.  0.
        -24    2    5    5    0    0 -0.84653119755E+02 -0.85857680251E+02  0.51887774166E+03  0.53880001539E+03  0.80831020384E+02 0.  0.
          5    1    3    3  501    0 -0.27264137829E+02  0.57736413479E+02  0.16580972535E+02  0.66135053513E+02  0.47000000000E+01 0. -1.
        -11    1    4    4    0    0  0.71068228689E+01  0.11610055585E+02  0.52613539105E+02  0.54345973348E+02  0.00000000000E+00 0.  1.
         12    1    4    4    0    0  0.10920071667E+03  0.71084281248E+01  0.43311374306E+02  0.11769112717E+03  0.00000000000E+00 0. -1.
         -5    1    5    5    0  502 -0.43902819504E+01  0.94027830626E+01 -0.76436345323E+01  0.13718675366E+02  0.47000000000E+01 0.  1.
         13    1    6    6    0    0  0.14703113490E+02 -0.19986089227E+02  0.66461064489E+02  0.70941513953E+02  0.00000000000E+00 0. -1.
        -14    1    6    6    0    0 -0.99356233245E+02 -0.65871591024E+02  0.45241667717E+03  0.46785850144E+03  0.00000000000E+00 0.  1.
<mgrwt>
<rscale>  2 0.20983422E+03</rscale>
<asrwt>0</asrwt>
<pdfrwt beam="1">  1       21 0.10880237E+00 0.20992475E+03</pdfrwt>
<pdfrwt beam="2">  1       21 0.12842374E-01 0.20992475E+03</pdfrwt>
<totfact> 0.34510620E+04</totfact>
</mgrwt>
</event>
<event>
12    1  0.1019868E-001  0.1855776E+03  0.7546771E-02  0.1167833E+00
         21   -1    0    0  503  502  0.00000000000E+00  0.00000000000E+00  0.26178173115E+02  0.26178173115E+02  0.00000000000E+00 0.  1.
         21   -1    0    0  501  503 -0.00000000000E+00 -0.00000000000E+00 -0.13528972169E+04  0.13528972169E+04  0.00000000000E+00 0.  1.
          6    2    1    2  501    0 -0.55483102896E+02 -0.22718807347E+02 -0.88277003571E+03  0.89789999089E+03  0.15279705099E+03 0.  0.
         24    2    3    3    0    0 -0.62865853070E+02 -0.13567988780E+02 -0.34205456359E+03  0.35703627953E+03  0.79607629205E+02 0.  0.
         -6    2    1    2    0  502  0.55483102896E+02  0.22718807347E+02 -0.44394900806E+03  0.48117539911E+03  0.17562609155E+03 0.  0.
        -24    2    5    5    0    0  0.53980886117E+02  0.34131151583E+02 -0.11717073901E+03  0.15416068173E+03  0.77185893383E+02 0.  0.
          5    1    3    3  501    0  0.73827501743E+01 -0.91508185668E+01 -0.54071547212E+03  0.54086371136E+03  0.47000000000E+01 0. -1.
        -11    1    4    4    0    0 -0.33994336979E+02 -0.18367345148E+02 -0.31441496443E+03  0.31678027744E+03  0.00000000000E+00 0.  1.
         12    1    4    4    0    0 -0.28871516091E+02  0.47993563684E+01 -0.27639599154E+02  0.40256002091E+02  0.00000000000E+00 0. -1.
         -5    1    5    5    0  502  0.15022167792E+01 -0.11412344236E+02 -0.32677826905E+03  0.32701471737E+03  0.47000000000E+01 0.  1.
         11    1    6    6    0    0  0.62704129263E+01 -0.12417468927E+02 -0.72729068352E+02  0.74047477987E+02  0.00000000000E+00 0. -1.
        -12    1    6    6    0    0  0.47710473190E+02  0.46548620510E+02 -0.44441670662E+02  0.80113203748E+02  0.00000000000E+00 0.  1.
<mgrwt>
<rscale>  2 0.17996862E+03</rscale>
<asrwt>0</asrwt>
<pdfrwt beam="1">  1       21 0.40274100E-02 0.18557759E+03</pdfrwt>
<pdfrwt beam="2">  1       21 0.20813810E+00 0.18557759E+03</pdfrwt>
<totfact> 0.46401523E+04</totfact>
</mgrwt>
</event>
<event>
12    1  0.1019868E-001  0.1928338E+03  0.7546771E-02  0.1158666E+00
         21   -1    0    0  503  502  0.00000000000E+00  0.00000000000E+00  0.85227797992E+03  0.85227797992E+03  0.00000000000E+00 0. -1.
         21   -1    0    0  501  503 -0.00000000000E+00 -0.00000000000E+00 -0.77256490367E+02  0.77256490367E+02  0.00000000000E+00 0. -1.
          6    2    1    2  501    0  0.77719403206E+02  0.98696211072E+01  0.62488750998E+02  0.19136931603E+03  0.16303268403E+03 0.  0.
         24    2    3    3    0    0  0.21661467496E+02  0.55836168413E+02  0.74921124173E+01  0.10025325882E+03  0.80048031068E+02 0.  0.
         -6    2    1    2    0  502 -0.77719403206E+02 -0.98696211072E+01  0.71253273855E+03  0.73816515425E+03  0.17620208962E+03 0.  0.
        -24    2    5    5    0    0 -0.10945075901E+03  0.25907007689E+02  0.62512260604E+03  0.63841813738E+03  0.64411209117E+02 0.  0.
          5    1    3    3  501    0  0.56057935710E+02 -0.45966547306E+02  0.54996638581E+02  0.91116057216E+02  0.47000000000E+01 0. -1.
        -13    1    4    4    0    0  0.11975269683E+02 -0.18607898935E+02  0.11762588263E+02  0.25060316626E+02  0.00000000000E+00 0.  1.
         14    1    4    4    0    0  0.96861978131E+01  0.74444067348E+02 -0.42704758459E+01  0.75192942191E+02  0.00000000000E+00 0. -1.
         -5    1    5    5    0  502  0.31731355800E+02 -0.35776628796E+02  0.87410132515E+02  0.99747016873E+02  0.47000000000E+01 0.  1.
         11    1    6    6    0    0 -0.60889713136E+02  0.30455166257E+01  0.47681889646E+03  0.48070062654E+03  0.00000000000E+00 0. -1.
        -12    1    6    6    0    0 -0.48561045870E+02  0.22861491063E+02  0.14830370958E+03  0.15771751083E+03  0.00000000000E+00 0.  1.
<mgrwt>
<rscale>  2 0.18977314E+03</rscale>
<asrwt>0</asrwt>
<pdfrwt beam="1">  1       21 0.13111968E+00 0.19283384E+03</pdfrwt>
<pdfrwt beam="2">  1       21 0.11885615E-01 0.19283384E+03</pdfrwt>
<totfact> 0.25249353E+04</totfact>
</mgrwt>
</event>
<event>
12    1  0.1019868E-001  0.2856186E+03  0.7546771E-02  0.1092785E+00
         21   -1    0    0  503  502  0.00000000000E+00  0.00000000000E+00  0.46909034830E+03  0.46909034830E+03  0.00000000000E+00 0. -1.
         21   -1    0    0  501  503 -0.00000000000E+00 -0.00000000000E+00 -0.17858474583E+03  0.17858474583E+03  0.00000000000E+00 0.  1.
          6    2    1    2  501    0 -0.22603972578E+03 -0.18773874523E+02  0.89960946318E+02  0.29945112874E+03  0.17358453459E+03 0.  0.
         24    2    3    3    0    0 -0.23017344255E+03 -0.43807475479E+02  0.53018559246E+02  0.25438896331E+03  0.83689117951E+02 0.  0.
         -6    2    1    2    0  502  0.22603972578E+03  0.18773874523E+02  0.20054465615E+03  0.34822396539E+03  0.17203300545E+03 0.  0.
        -24    2    5    5    0    0  0.32799048877E+02 -0.11659494178E+02  0.74428682091E+02  0.11542474276E+03  0.81064919123E+02 0.  0.
          5    1    3    3  501    0  0.41337167735E+01  0.25033600956E+02  0.36942387073E+02  0.45062165436E+02  0.47000000000E+01 0. -1.
        -13    1    4    4    0    0 -0.47724113203E+02 -0.37817077447E+02 -0.90880572722E+01  0.61565535104E+02  0.00000000000E+00 0.  1.
         14    1    4    4    0    0 -0.18244932935E+03 -0.59903980323E+01  0.62106616518E+02  0.19282342820E+03  0.00000000000E+00 0. -1.
         -5    1    5    5    0  502  0.19324067690E+03  0.30433368701E+02  0.12611597406E+03  0.23279922262E+03  0.47000000000E+01 0.  1.
         11    1    6    6    0    0  0.31523956141E+02  0.30933720957E+02  0.48257122577E+02  0.65417159694E+02  0.00000000000E+00 0. -1.
        -12    1    6    6    0    0  0.12750927360E+01 -0.42593215135E+02  0.26171559515E+02  0.50007583070E+02  0.00000000000E+00 0.  1.
<mgrwt>
<rscale>  2 0.28538328E+03</rscale>
<asrwt>0</asrwt>
<pdfrwt beam="1">  1       21 0.72167745E-01 0.28561864E+03</pdfrwt>
<pdfrwt beam="2">  1       21 0.27474576E-01 0.28561864E+03</pdfrwt>
<totfact> 0.20882077E+04</totfact>
</mgrwt>
</event>
<event>
12    1  0.1019868E-001  0.3183639E+03  0.7546771E-02  0.1076424E+00
         21   -1    0    0  501  502  0.00000000000E+00  0.00000000000E+00  0.19256998460E+03  0.19256998460E+03  0.00000000000E+00 0. -1.
         21   -1    0    0  502  503 -0.00000000000E+00 -0.00000000000E+00 -0.12808451219E+04  0.12808451219E+04  0.00000000000E+00 0.  1.
         -6    2    1    2    0  503 -0.22097907783E+03  0.15002568530E+03 -0.11096148617E+04  0.11543368120E+04  0.17294182619E+03 0.  0.
        -24    2    3    3    0    0 -0.12620897240E+03  0.15202230890E+03 -0.61887286512E+03  0.65450168263E+03  0.79557163511E+02 0.  0.
          6    2    1    2  501    0  0.22097907783E+03 -0.15002568530E+03  0.21339724407E+02  0.31907829445E+03  0.17325159470E+03 0.  0.
         24    2    5    5    0    0  0.32532183525E+02 -0.22031745907E+02  0.57769390439E+01  0.90694908932E+02  0.81538044427E+02 0.  0.
          5    1    5    5  501    0  0.18844689430E+03 -0.12799393939E+03  0.15562785363E+02  0.22838338552E+03  0.47000000000E+01 0. -1.
        -11    1    6    6    0    0 -0.10923376665E+02  0.16573206725E+02  0.22700385624E+02  0.30154582510E+02  0.00000000000E+00 0.  1.
         12    1    6    6    0    0  0.43455560190E+02 -0.38604952632E+02 -0.16923446580E+02  0.60540326422E+02  0.00000000000E+00 0. -1.
         -5    1    3    3    0  503 -0.94770105423E+02 -0.19966236029E+01 -0.49074199654E+03  0.49983512937E+03  0.47000000000E+01 0.  1.
         13    1    4    4    0    0 -0.76349101667E+02  0.14329909998E+03 -0.47485457664E+03  0.50184727391E+03  0.00000000000E+00 0. -1.
        -14    1    4    4    0    0 -0.49859870736E+02  0.87232089245E+01 -0.14401828848E+03  0.15265440872E+03  0.00000000000E+00 0.  1.
<mgrwt>
<rscale>  2 0.31832178E+03</rscale>
<asrwt>0</asrwt>
<pdfrwt beam="1">  1       21 0.29626153E-01 0.31836390E+03</pdfrwt>
<pdfrwt beam="2">  1       21 0.19705309E+00 0.31836390E+03</pdfrwt>
<totfact> 0.13790650E+03</totfact>
</mgrwt>
</event>
<event>
12    1  0.1019868E-001  0.2663880E+03  0.7546771E-02  0.1103415E+00
         21   -1    0    0  501  502  0.00000000000E+00  0.00000000000E+00  0.12298350103E+03  0.12298350103E+03  0.00000000000E+00 0.  1.
         21   -1    0    0  502  503 -0.00000000000E+00 -0.00000000000E+00 -0.57629547551E+03  0.57629547551E+03  0.00000000000E+00 0.  1.
         -6    2    1    2    0  503 -0.16165568493E+03 -0.12069105817E+03 -0.22368206377E+03  0.34757957260E+03  0.17343298893E+03 0.  0.
        -24    2    3    3    0    0 -0.82623985562E+02 -0.96588973877E+02 -0.21785968776E+03  0.26461626726E+03  0.80017326117E+02 0.  0.
          6    2    1    2  501    0  0.16165568493E+03  0.12069105817E+03 -0.22962991072E+03  0.35169940394E+03  0.17396460227E+03 0.  0.
         24    2    5    5    0    0  0.12353123300E+02  0.28710420030E+02 -0.10642202179E+03  0.13733064083E+03  0.80976356531E+02 0.  0.
          5    1    5    5  501    0  0.14930256163E+03  0.91980638142E+02 -0.12320788893E+03  0.21436876311E+03  0.47000000000E+01 0. -1.
        -13    1    6    6    0    0  0.12993432622E+02 -0.22596871628E+02 -0.96470107097E+01  0.27794112943E+02  0.00000000000E+00 0.  1.
         14    1    6    6    0    0 -0.64030932230E+00  0.51307291658E+02 -0.96775011076E+02  0.10953652789E+03  0.00000000000E+00 0. -1.
         -5    1    3    3    0  503 -0.79031699363E+02 -0.24102084295E+02 -0.58223760023E+01  0.82963305346E+02  0.47000000000E+01 0.  1.
         11    1    4    4    0    0 -0.39121008121E+02 -0.94318062426E+02 -0.12043126312E+03  0.15789249290E+03  0.00000000000E+00 0. -1.
        -12    1    4    4    0    0 -0.43502977440E+02 -0.22709114511E+01 -0.97428424642E+02  0.10672377436E+03  0.00000000000E+00 0.  1.
<mgrwt>
<rscale>  2 0.26630126E+03</rscale>
<asrwt>0</asrwt>
<pdfrwt beam="1">  1       21 0.18920539E-01 0.26638802E+03</pdfrwt>
<pdfrwt beam="2">  1       21 0.88660840E-01 0.26638802E+03</pdfrwt>
<totfact> 0.26816071E+04</totfact>
</mgrwt>
</event>
<event>
12    1  0.1019868E-001  0.2641910E+03  0.7546771E-02  0.1104723E+00
         21   -1    0    0  503  502  0.00000000000E+00  0.00000000000E+00  0.23671713948E+03  0.23671713948E+03  0.00000000000E+00 0.  1.
         21   -1    0    0  501  503 -0.00000000000E+00 -0.00000000000E+00 -0.93526526281E+03  0.93526526281E+03  0.00000000000E+00 0.  1.
          6    2    1    2  501    0 -0.19522831385E+03 -0.37921681397E+02 -0.83448178357E+03  0.87530378931E+03  0.17391011476E+03 0.  0.
         24    2    3    3    0    0 -0.18250290744E+03 -0.73756567435E+02 -0.57625612010E+03  0.61425080944E+03  0.80533213479E+02 0.  0.
         -6    2    1    2    0  502  0.19522831385E+03  0.37921681397E+02  0.13593366023E+03  0.29667861298E+03  0.17317069893E+03 0.  0.
        -24    2    5    5    0    0  0.14833715452E+03 -0.21195706591E+02  0.40241636713E+02  0.17472493427E+03  0.80350755696E+02 0.  0.
          5    1    3    3  501    0 -0.12725406404E+02  0.35834886038E+02 -0.25822566346E+03  0.26105297987E+03  0.47000000000E+01 0. -1.
        -11    1    4    4    0    0 -0.16423513252E+03 -0.78190498265E+02 -0.56186825950E+03  0.59057842308E+03  0.00000000000E+00 0.  1.
         12    1    4    4    0    0 -0.18267774923E+02  0.44339308306E+01 -0.14387860609E+02  0.23672386364E+02  0.00000000000E+00 0. -1.
         -5    1    5    5    0  502  0.46891159324E+02  0.59117387988E+02  0.95692023520E+02  0.12195367871E+03  0.47000000000E+01 0.  1.
         13    1    6    6    0    0  0.79481278569E+02 -0.10959920075E+02 -0.19974182993E+02  0.82682292404E+02  0.00000000000E+00 0. -1.
        -14    1    6    6    0    0  0.68855875954E+02 -0.10235786516E+02  0.60215819706E+02  0.92042641867E+02  0.00000000000E+00 0.  1.
<mgrwt>
<rscale>  2 0.26406936E+03</rscale>
<asrwt>0</asrwt>
<pdfrwt beam="1">  1       21 0.36418022E-01 0.26419098E+03</pdfrwt>
<pdfrwt beam="2">  1       21 0.14388696E+00 0.26419098E+03</pdfrwt>
<totfact> 0.22872182E+03</totfact>
</mgrwt>
</event>
<event>
12    1  0.1019868E-001  0.1869932E+03  0.7546771E-02  0.1162022E+00
         21   -1    0    0  501  502  0.00000000000E+00  0.00000000000E+00  0.15948664976E+04  0.15948664976E+04  0.00000000000E+00 0.  1.
         21   -1    0    0  502  503 -0.00000000000E+00 -0.00000000000E+00 -0.28451619519E+02  0.28451619519E+02  0.00000000000E+00 0.  1.
         -6    2    1    2    0  503  0.49239485827E+02 -0.47625601262E+02  0.37675047898E+03  0.41904745326E+03  0.17019729672E+03 0.  0.
        -24    2    3    3    0    0 -0.34125528574E+02 -0.37607645871E+02  0.16204582780E+03  0.18846067503E+03  0.81729364350E+02 0.  0.
          6    2    1    2  501    0 -0.49239485827E+02  0.47625601262E+02  0.11896643991E+04  0.12042706639E+04  0.17399346103E+03 0.  0.
         24    2    5    5    0    0 -0.94181138515E+02  0.19814869164E+02  0.97271397209E+03  0.98092616148E+03  0.82346504901E+02 0.  0.
          5    1    5    5  501    0  0.44941652688E+02  0.27810732098E+02  0.21695042702E+03  0.22334450240E+03  0.47000000000E+01 0. -1.
        -11    1    6    6    0    0 -0.23590802188E+02  0.30408655680E+02  0.14110926410E+03  0.14626358639E+03  0.00000000000E+00 0.  1.
         12    1    6    6    0    0 -0.70590336327E+02 -0.10593786516E+02  0.83160470799E+03  0.83466257509E+03  0.00000000000E+00 0. -1.
         -5    1    3    3    0  503  0.83365014401E+02 -0.10017955391E+02  0.21470465118E+03  0.23058677823E+03  0.47000000000E+01 0.  1.
         13    1    4    4    0    0 -0.23760175070E+02  0.26040561474E+01  0.30081950005E+01  0.24090999667E+02  0.00000000000E+00 0. -1.
        -14    1    4    4    0    0 -0.10365353503E+02 -0.40211702019E+02  0.15903763280E+03  0.16436967537E+03  0.00000000000E+00 0.  1.
<mgrwt>
<rscale>  2 0.18610513E+03</rscale>
<asrwt>0</asrwt>
<pdfrwt beam="1">  1       21 0.24536401E+00 0.18699318E+03</pdfrwt>
<pdfrwt beam="2">  1       21 0.43771735E-02 0.18699318E+03</pdfrwt>
<totfact> 0.23964133E+04</totfact>
</mgrwt>
</event>
<event>
12    1  0.1019868E-001  0.1865872E+03  0.7546771E-02  0.1163780E+00
         21   -1    0    0  501  502  0.00000000000E+00  0.00000000000E+00  0.21570199458E+03  0.21570199458E+03  0.00000000000E+00 0.  1.
         21   -1    0    0  502  503 -0.00000000000E+00 -0.00000000000E+00 -0.56603579020E+03  0.56603579020E+03  0.00000000000E+00 0. -1.
         -6    2    1    2    0  503 -0.17060857368E+02 -0.36749534109E+02 -0.51005122768E+03  0.54310867002E+03  0.18213503641E+03 0.  0.
        -24    2    3    3    0    0  0.21155507854E+01 -0.92175257922E+02 -0.40107953982E+03  0.41926738351E+03  0.80122330776E+02 0.  0.
          6    2    1    2  501    0  0.17060857368E+02  0.36749534109E+02  0.15971743206E+03  0.23862911475E+03  0.17260531624E+03 0.  0.
         24    2    5    5    0    0  0.38265740684E+02  0.16940283865E+02  0.18153354291E+03  0.20202192742E+03  0.78148524155E+02 0.  0.
          5    1    5    5  501    0 -0.21204883316E+02  0.19809250244E+02 -0.21816110855E+02  0.36607187334E+02  0.47000000000E+01 0. -1.
        -11    1    6    6    0    0 -0.22998116115E+01 -0.97101111278E+01  0.13303138494E+03  0.13340511523E+03  0.00000000000E+00 0.  1.
         12    1    6    6    0    0  0.40565552296E+02  0.26650394993E+02  0.48502157975E+02  0.68616812186E+02  0.00000000000E+00 0. -1.
         -5    1    3    3    0  503 -0.19176408154E+02  0.55425723813E+02 -0.10897168786E+03  0.12384128651E+03  0.47000000000E+01 0.  1.
         11    1    4    4    0    0 -0.21914179710E+02 -0.20010163493E+02 -0.23171514226E+03  0.23360767339E+03  0.00000000000E+00 0. -1.
        -12    1    4    4    0    0  0.24029730495E+02 -0.72165094429E+02 -0.16936439756E+03  0.18565971012E+03  0.00000000000E+00 0.  1.
<mgrwt>
<rscale>  2 0.18421994E+03</rscale>
<asrwt>0</asrwt>
<pdfrwt beam="1">  1       21 0.33184923E-01 0.18658717E+03</pdfrwt>
<pdfrwt beam="2">  1       21 0.87082428E-01 0.18658717E+03</pdfrwt>
<totfact> 0.99535264E+03</totfact>
</mgrwt>
</event>
<event>
12    1  0.1019868E-001  0.5209386E+03  0.7546771E-02  0.1008517E+00
         21   -1    0    0  503  502  0.00000000000E+00  0.00000000000E+00  0.11588414418E+04  0.11588414418E+04  0.00000000000E+00 0.  1.
         21   -1    0    0  501  503 -0.00000000000E+00 -0.00000000000E+00 -0.80221703542E+03  0.80221703542E+03  0.00000000000E+00 0. -1.
          6    2    1    2  501    0  0.48175532194E+03 -0.93883098494E+02 -0.64716545739E+03  0.83014244581E+03  0.17149671920E+03 0.  0.
         24    2    3    3    0    0  0.35943848248E+03 -0.13065576759E+03 -0.46584848933E+03  0.60830563346E+03  0.82182579626E+02 0.  0.
         -6    2    1    2    0  502 -0.48175532194E+03  0.93883098494E+02  0.10037898637E+04  0.11309160314E+04  0.17457019528E+03 0.  0.
        -24    2    5    5    0    0 -0.21459191635E+03  0.10351893652E+03  0.54192502166E+03  0.59723976527E+03  0.79036367156E+02 0.  0.
          5    1    3    3  501    0  0.12231683946E+03  0.36772669096E+02 -0.18131696806E+03  0.22183681235E+03  0.47000000000E+01 0. -1.
        -11    1    4    4    0    0  0.49500107964E+02 -0.48807285042E+02 -0.66381296084E+02  0.96119135615E+02  0.00000000000E+00 0.  1.
         12    1    4    4    0    0  0.30993837452E+03 -0.81848482548E+02 -0.39946719325E+03  0.51218649785E+03  0.00000000000E+00 0. -1.
         -5    1    5    5    0  502 -0.26716340559E+03 -0.96358380314E+01  0.46186484208E+03  0.53367626611E+03  0.47000000000E+01 0.  1.
         13    1    6    6    0    0 -0.49759730319E+02  0.31978002079E+01  0.59347028365E+02  0.77513395380E+02  0.00000000000E+00 0. -1.
        -14    1    6    6    0    0 -0.16483218604E+03  0.10032113632E+03  0.48257799329E+03  0.51972636989E+03  0.00000000000E+00 0.  1.
<mgrwt>
<rscale>  2 0.52068290E+03</rscale>
<asrwt>0</asrwt>
<pdfrwt beam="1">  1       21 0.17828330E+00 0.52093856E+03</pdfrwt>
<pdfrwt beam="2">  1       21 0.12341800E+00 0.52093856E+03</pdfrwt>
<totfact> 0.70252876E+01</totfact>
</mgrwt>
</event>
<event>
12    1  0.1019868E-001  0.2357925E+03  0.7546771E-02  0.1122659E+00
         21   -1    0    0  501  502  0.00000000000E+00  0.00000000000E+00  0.11331364853E+04  0.11331364853E+04  0.00000000000E+00 0.  1.
         21   -1    0    0  502  503 -0.00000000000E+00 -0.00000000000E+00 -0.68874088696E+02  0.68874088696E+02  0.00000000000E+00 0. -1.
         -6    2    1    2    0  503  0.29127414446E+02  0.15667941883E+03  0.20965981885E+03  0.31552389377E+03  0.17378504349E+03 0.  0.
        -24    2    3    3    0    0 -0.42462658214E+02  0.11917344629E+03  0.15862376718E+03  0.21982329268E+03  0.84589555174E+02 0.  0.
          6    2    1    2  501    0 -0.29127414446E+02 -0.15667941883E+03  0.85460257771E+03  0.88648668019E+03  0.17354025976E+03 0.  0.
         24    2    5    5    0    0 -0.51568790858E+02 -0.16271373220E+03  0.83453912381E+03  0.85542769605E+03  0.78523214180E+02 0.  0.
          5    1    5    5  501    0  0.22441376412E+02  0.60343133630E+01  0.20063453902E+02  0.31058984135E+02  0.47000000000E+01 0. -1.
        -11    1    6    6    0    0 -0.16720498837E+02 -0.13777800989E+03  0.71728539734E+03  0.73058928018E+03  0.00000000000E+00 0.  1.
         12    1    6    6    0    0 -0.34848292020E+02 -0.24935722311E+02  0.11725372648E+03  0.12483841587E+03  0.00000000000E+00 0. -1.
         -5    1    3    3    0  503  0.71590072660E+02  0.37505972539E+02  0.51036051675E+02  0.95700601096E+02  0.47000000000E+01 0.  1.
         11    1    4    4    0    0 -0.10955802958E+02  0.44279273938E+02  0.48094350085E+01  0.45867356410E+02  0.00000000000E+00 0. -1.
        -12    1    4    4    0    0 -0.31506855256E+02  0.74894172356E+02  0.15381433217E+03  0.17395593626E+03  0.00000000000E+00 0.  1.
<mgrwt>
<rscale>  2 0.23574737E+03</rscale>
<asrwt>0</asrwt>
<pdfrwt beam="1">  1       21 0.17432868E+00 0.23579247E+03</pdfrwt>
<pdfrwt beam="2">  1       21 0.10596014E-01 0.23579247E+03</pdfrwt>
<totfact> 0.14142495E+04</totfact>
</mgrwt>
</event>
<event>
12    1  0.1019868E-001  0.3579741E+03  0.7546771E-02  0.1059737E+00
         21   -1    0    0  503  502  0.00000000000E+00  0.00000000000E+00  0.10750083935E+04  0.10750083935E+04  0.00000000000E+00 0.  1.
         21   -1    0    0  501  503 -0.00000000000E+00 -0.00000000000E+00 -0.12916221387E+03  0.12916221387E+03  0.00000000000E+00 0. -1.
          6    2    1    2  501    0  0.29403685935E+03  0.97118013129E+02  0.29842706485E+03  0.46605166164E+03  0.17959915132E+03 0.  0.
         24    2    3    3    0    0  0.27604508884E+03  0.71233536472E+02  0.31294578663E+03  0.43102890875E+03  0.81090979893E+02 0.  0.
         -6    2    1    2    0  502 -0.29403685935E+03 -0.97118013129E+02  0.64741911477E+03  0.73811894572E+03  0.17256443647E+03 0.  0.
        -24    2    5    5    0    0 -0.25109322260E+03 -0.10378839576E+03  0.63038155178E+03  0.69120393219E+03  0.81007021451E+02 0.  0.
          5    1    3    3  501    0  0.17991770502E+02  0.25884476657E+02 -0.14518721779E+02  0.35022752886E+02  0.47000000000E+01 0. -1.
        -11    1    4    4    0    0  0.93832103974E+02 -0.11139685451E+02  0.12414908284E+03  0.15601779097E+03  0.00000000000E+00 0.  1.
         12    1    4    4    0    0  0.18221298487E+03  0.82373221923E+02  0.18879670379E+03  0.27501111779E+03  0.00000000000E+00 0. -1.
         -5    1    5    5    0  502 -0.42943636749E+02  0.66703826310E+01  0.17037562989E+02  0.46915013527E+02  0.47000000000E+01 0.  1.
         11    1    6    6    0    0 -0.47224879565E+02 -0.44294286325E+02  0.92447693032E+02  0.11286606664E+03  0.00000000000E+00 0. -1.
        -12    1    6    6    0    0 -0.20386834303E+03 -0.59494109435E+02  0.53793385875E+03  0.57833786555E+03  0.00000000000E+00 0.  1.
<mgrwt>
<rscale>  2 0.35710160E+03</rscale>
<asrwt>0</asrwt>
<pdfrwt beam="1">  1       21 0.16538590E+00 0.35797407E+03</pdfrwt>
<pdfrwt beam="2">  1       21 0.19871110E-01 0.35797407E+03</pdfrwt>
<totfact> 0.48406396E+03</totfact>
</mgrwt>
</event>
<event>
12    1  0.1019868E-001  0.2203711E+03  0.7546771E-02  0.1133769E+00
         21   -1    0    0  503  502  0.00000000000E+00  0.00000000000E+00  0.75510291676E+02  0.75510291676E+02  0.00000000000E+00 0.  1.
         21   -1    0    0  501  503 -0.00000000000E+00 -0.00000000000E+00 -0.80299930491E+03  0.80299930491E+03  0.00000000000E+00 0.  1.
          6    2    1    2  501    0  0.60010162327E+02 -0.12046664874E+03 -0.56186464004E+03  0.60353567276E+03  0.17449928803E+03 0.  0.
         24    2    3    3    0    0  0.84444997652E+02 -0.44695654056E+02 -0.23453524005E+03  0.26663074417E+03  0.83405729954E+02 0.  0.
         -6    2    1    2    0  502 -0.60010162327E+02  0.12046664874E+03 -0.16562437319E+03  0.27497392382E+03  0.17339490404E+03 0.  0.
        -24    2    5    5    0    0 -0.21064582244E+02  0.43188626633E+02 -0.16450332696E+03  0.18830214264E+03  0.78021652432E+02 0.  0.
          5    1    3    3  501    0 -0.24434835325E+02 -0.75770994683E+02 -0.32732939999E+03  0.33690492859E+03  0.47000000000E+01 0. -1.
        -11    1    4    4    0    0  0.25415083791E+02  0.92299828119E+01 -0.10936393018E+02  0.29167169198E+02  0.00000000000E+00 0.  1.
         12    1    4    4    0    0  0.59029913861E+02 -0.53925636867E+02 -0.22359884704E+03  0.23746357497E+03  0.00000000000E+00 0. -1.
         -5    1    5    5    0  502 -0.38945580083E+02  0.77278022105E+02 -0.11210462337E+01  0.86671781181E+02  0.47000000000E+01 0.  1.
         13    1    6    6    0    0  0.28127101433E+02  0.22018182663E+02 -0.45841515540E+02  0.58115219606E+02  0.00000000000E+00 0. -1.
        -14    1    6    6    0    0 -0.49191683678E+02  0.21170443969E+02 -0.11866181142E+03  0.13018692304E+03  0.00000000000E+00 0.  1.
<mgrwt>
<rscale>  2 0.22015244E+03</rscale>
<asrwt>0</asrwt>
<pdfrwt beam="1">  1       21 0.11616968E-01 0.22037113E+03</pdfrwt>
<pdfrwt beam="2">  1       21 0.12353835E+00 0.22037113E+03</pdfrwt>
<totfact> 0.30064728E+04</totfact>
</mgrwt>
</event>
<event>
12    1  0.1019868E-001  0.2453008E+03  0.7546771E-02  0.1116339E+00
         21   -1    0    0  501  502  0.00000000000E+00  0.00000000000E+00  0.12456094806E+04  0.12456094806E+04  0.00000000000E+00 0. -1.
         21   -1    0    0  502  503 -0.00000000000E+00 -0.00000000000E+00 -0.49710298061E+02  0.49710298061E+02  0.00000000000E+00 0.  1.
         -6    2    1    2    0  503  0.10205410800E+03 -0.14010692469E+03  0.70826768302E+03  0.74954357419E+03  0.17357265767E+03 0.  0.
        -24    2    3    3    0    0  0.12693645011E+02 -0.91698787637E+02  0.53203733680E+03  0.54605434841E+03  0.80881563987E+02 0.  0.
          6    2    1    2  501    0 -0.10205410800E+03  0.14010692469E+03  0.48763149952E+03  0.54577620447E+03  0.17332684368E+03 0.  0.
         24    2    5    5    0    0 -0.41137438799E+02  0.45777512106E+02  0.10184316573E+03  0.14395086039E+03  0.81005865922E+02 0.  0.
          5    1    5    5  501    0 -0.60916669201E+02  0.94329412581E+02  0.38578833378E+03  0.40182534408E+03  0.47000000000E+01 0. -1.
        -13    1    6    6    0    0  0.99178331281E+01  0.33732726046E+02  0.79510906663E+02  0.86938164800E+02  0.00000000000E+00 0.  1.
         14    1    6    6    0    0 -0.51055271927E+02  0.12044786060E+02  0.22332259070E+02  0.57012695585E+02  0.00000000000E+00 0. -1.
         -5    1    3    3    0  503  0.89360462989E+02 -0.48408137050E+02  0.17623034622E+03  0.20348922578E+03  0.47000000000E+01 0.  1.
         11    1    4    4    0    0  0.23219792159E+02 -0.72856245515E+02  0.50810645647E+03  0.51382814478E+03  0.00000000000E+00 0. -1.
        -12    1    4    4    0    0 -0.10526147148E+02 -0.18842542121E+02  0.23930880330E+02  0.32226203635E+02  0.00000000000E+00 0.  1.
<mgrwt>
<rscale>  2 0.24525727E+03</rscale>
<asrwt>0</asrwt>
<pdfrwt beam="1">  1       21 0.19163220E+00 0.24530075E+03</pdfrwt>
<pdfrwt beam="2">  1       21 0.76477391E-02 0.24530075E+03</pdfrwt>
<totfact> 0.19048520E+04</totfact>
</mgrwt>
</event>
<event>
12    1  0.1019868E-001  0.1835695E+03  0.7546771E-02  0.1164593E+00
         21   -1    0    0  501  502  0.00000000000E+00  0.00000000000E+00  0.29353781733E+03  0.29353781733E+03  0.00000000000E+00 0.  1.
         21   -1    0    0  502  503 -0.00000000000E+00 -0.00000000000E+00 -0.15855956380E+03  0.15855956380E+03  0.00000000000E+00 0.  1.
         -6    2    1    2    0  503  0.63615279560E+01  0.62421255973E+02 -0.52092839445E+02  0.19000322308E+03  0.17161200024E+03 0.  0.
        -24    2    3    3    0    0 -0.58893401520E+02  0.62193279688E+02 -0.40204306831E+02  0.12350747133E+03  0.79380554325E+02 0.  0.
          6    2    1    2  501    0 -0.63615279560E+01 -0.62421255973E+02  0.18707109297E+03  0.26209415805E+03  0.17251339549E+03 0.  0.
         24    2    5    5    0    0  0.35870391739E+02 -0.64937172615E+02  0.18722793765E+03  0.21952680580E+03  0.87373888759E+02 0.  0.
          5    1    5    5  501    0 -0.42231919695E+02  0.25159166423E+01 -0.15684467147E+00  0.42567352254E+02  0.47000000000E+01 0. -1.
        -13    1    6    6    0    0  0.62179308916E+02 -0.57691469610E+02  0.11981242683E+03  0.14679778522E+03  0.00000000000E+00 0.  1.
         14    1    6    6    0    0 -0.26308917177E+02 -0.72457030049E+01  0.67415510818E+02  0.72729020576E+02  0.00000000000E+00 0. -1.
         -5    1    3    3    0  503  0.65254929476E+02  0.22797628419E+00 -0.11888532614E+02  0.66495751758E+02  0.47000000000E+01 0.  1.
         13    1    4    4    0    0 -0.51050415087E+02 -0.29759511968E+01 -0.18115703118E+02  0.54251081699E+02  0.00000000000E+00 0. -1.
        -14    1    4    4    0    0 -0.78429864334E+01  0.65169230885E+02 -0.22088603713E+02  0.69256389628E+02  0.00000000000E+00 0.  1.
<mgrwt>
<rscale>  2 0.18335740E+03</rscale>
<asrwt>0</asrwt>
<pdfrwt beam="1">  1       21 0.45159664E-01 0.18356948E+03</pdfrwt>
<pdfrwt beam="2">  1       21 0.24393779E-01 0.18356948E+03</pdfrwt>
<totfact> 0.74950554E+04</totfact>
</mgrwt>
</event>
<event>
12    1  0.1019868E-001  0.2035190E+03  0.7546771E-02  0.1147208E+00
         21   -1    0    0  503  502  0.00000000000E+00  0.00000000000E+00  0.37708103977E+02  0.37708103977E+02  0.00000000000E+00 0.  1.
         21   -1    0    0  501  503 -0.00000000000E+00 -0.00000000000E+00 -0.11485466566E+04  0.11485466566E+04  0.00000000000E+00 0.  1.
          6    2    1    2  501    0  0.60466818897E+02 -0.85419399900E+02 -0.69420441907E+03  0.72342224470E+03  0.17454872841E+03 0.  0.
         24    2    3    3    0    0 -0.79134873664E+01 -0.96806850007E+02 -0.38239049645E+03  0.40396089704E+03  0.86762463484E+02 0.  0.
         -6    2    1    2    0  502 -0.60466818897E+02  0.85419399900E+02 -0.41663413359E+03  0.46283251593E+03  0.17227079398E+03 0.  0.
        -24    2    5    5    0    0 -0.17182505687E+02  0.84436107043E+02 -0.14074787768E+03  0.18353014423E+03  0.80303512343E+02 0.  0.
          5    1    3    3  501    0  0.68380306264E+02  0.11387450107E+02 -0.31181392263E+03  0.31946134766E+03  0.47000000000E+01 0. -1.
        -13    1    4    4    0    0  0.33647037779E+02 -0.77343872302E+02 -0.24790050402E+03  0.26185655926E+03  0.00000000000E+00 0.  1.
         14    1    4    4    0    0 -0.41560525146E+02 -0.19462977705E+02 -0.13448999242E+03  0.14210433777E+03  0.00000000000E+00 0. -1.
         -5    1    5    5    0  502 -0.43284313210E+02  0.98329285709E+00 -0.27588625591E+03  0.27930237170E+03  0.47000000000E+01 0.  1.
         13    1    6    6    0    0  0.12321196067E+02 -0.89765118852E+01 -0.48344440077E+01  0.15992544732E+02  0.00000000000E+00 0. -1.
        -14    1    6    6    0    0 -0.29503701754E+02  0.93412618928E+02 -0.13591343367E+03  0.16753759949E+03  0.00000000000E+00 0.  1.
<mgrwt>
<rscale>  2 0.20302963E+03</rscale>
<asrwt>0</asrwt>
<pdfrwt beam="1">  1       21 0.58012471E-02 0.20351896E+03</pdfrwt>
<pdfrwt beam="2">  1       21 0.17669948E+00 0.20351896E+03</pdfrwt>
<totfact> 0.39759538E+04</totfact>
</mgrwt>
</event>
<event>
12    1  0.1019868E-001  0.2051563E+03  0.7546771E-02  0.1145570E+00
         21   -1    0    0  501  502  0.00000000000E+00  0.00000000000E+00  0.19949658620E+04  0.19949658620E+04  0.00000000000E+00 0.  1.
         21   -1    0    0  502  503 -0.00000000000E+00 -0.00000000000E+00 -0.21322177363E+02  0.21322177363E+02  0.00000000000E+00 0.  1.
         -6    2    1    2    0  503 -0.88580648008E+02  0.66332614725E+02  0.11035785866E+04  0.11224859885E+04  0.17274996544E+03 0.  0.
        -24    2    3    3    0    0 -0.11495990862E+03  0.85436761998E+02  0.10008415617E+04  0.10146072597E+04  0.85022579158E+02 0.  0.
          6    2    1    2  501    0  0.88580648008E+02 -0.66332614725E+02  0.87006509807E+03  0.89380205091E+03  0.17211125576E+03 0.  0.
         24    2    5    5    0    0  0.51840440904E+02  0.14426015336E+02  0.63890182506E+03  0.64615240335E+03  0.80136415349E+02 0.  0.
          5    1    5    5  501    0  0.36740207104E+02 -0.80758630061E+02  0.23116327301E+03  0.24764964756E+03  0.47000000000E+01 0. -1.
        -13    1    6    6    0    0  0.58750357150E+02 -0.37039126066E+01  0.25280053200E+03  0.25956392741E+03  0.00000000000E+00 0.  1.
         14    1    6    6    0    0 -0.69099162463E+01  0.18129927943E+02  0.38610129306E+03  0.38658847594E+03  0.00000000000E+00 0. -1.
         -5    1    3    3    0  503  0.26379260613E+02 -0.19104147273E+02  0.10273702493E+03  0.10787872879E+03  0.47000000000E+01 0.  1.
         11    1    4    4    0    0 -0.12515297210E+02  0.58941227464E+02  0.40152922701E+03  0.40602514836E+03  0.00000000000E+00 0. -1.
        -12    1    4    4    0    0 -0.10244461141E+03  0.26495534534E+02  0.59931233466E+03  0.60858211133E+03  0.00000000000E+00 0.  1.
<mgrwt>
<rscale>  2 0.20502176E+03</rscale>
<asrwt>0</asrwt>
<pdfrwt beam="1">  1       21 0.30691768E+00 0.20515628E+03</pdfrwt>
<pdfrwt beam="2">  1       21 0.32803366E-02 0.20515628E+03</pdfrwt>
<totfact> 0.16779437E+04</totfact>
</mgrwt>
</event>
<event>
12    1  0.1019868E-001  0.2082326E+03  0.7546771E-02  0.1143340E+00
         21   -1    0    0  503  502  0.00000000000E+00  0.00000000000E+00  0.96177142300E+03  0.96177142300E+03  0.00000000000E+00 0.  1.
         21   -1    0    0  501  503 -0.00000000000E+00 -0.00000000000E+00 -0.53759852024E+02  0.53759852024E+02  0.00000000000E+00 0.  1.
          6    2    1    2  501    0  0.88792038374E+02  0.76314426375E+02  0.24710906933E+03  0.32314659552E+03  0.17220020993E+03 0.  0.
         24    2    3    3    0    0  0.65734479629E+02  0.94500856932E+02  0.10088396981E+03  0.17392773947E+03  0.82594487823E+02 0.  0.
         -6    2    1    2    0  502 -0.88792038374E+02 -0.76314426375E+02  0.66090250164E+03  0.69238467950E+03  0.16998973492E+03 0.  0.
        -24    2    5    5    0    0 -0.37547830091E+02  0.25158957680E+02  0.31879158941E+03  0.33185065500E+03  0.80336585999E+02 0.  0.
          5    1    3    3  501    0  0.23057558746E+02 -0.18186430557E+02  0.14622509952E+03  0.14921885605E+03  0.47000000000E+01 0. -1.
        -11    1    4    4    0    0  0.18899338642E+02  0.34720190450E+02  0.88572726929E+02  0.96993837854E+02  0.00000000000E+00 0.  1.
         12    1    4    4    0    0  0.46835140987E+02  0.59780666482E+02  0.12311242883E+02  0.76933901614E+02  0.00000000000E+00 0. -1.
         -5    1    5    5    0  502 -0.51244208284E+02 -0.10147338405E+03  0.34211091223E+03  0.36053402450E+03  0.47000000000E+01 0.  1.
         11    1    6    6    0    0 -0.43101693379E+02  0.16416838986E+02  0.31814770970E+03  0.32147353509E+03  0.00000000000E+00 0. -1.
        -12    1    6    6    0    0  0.55538632887E+01  0.87421186942E+01  0.64387971426E+00  0.10377119917E+02  0.00000000000E+00 0.  1.
<mgrwt>
<rscale>  2 0.20777507E+03</rscale>
<asrwt>0</asrwt>
<pdfrwt beam="1">  1       21 0.14796482E+00 0.20823263E+03</pdfrwt>
<pdfrwt beam="2">  1       21 0.82707472E-02 0.20823263E+03</pdfrwt>
<totfact> 0.34756939E+04</totfact>
</mgrwt>
</event>
<event>
12    1  0.1019868E-001  0.1766345E+03  0.7546771E-02  0.1171533E+00
         21   -1    0    0  503  502  0.00000000000E+00  0.00000000000E+00  0.28500655943E+03  0.28500655943E+03  0.00000000000E+00 0. -1.
         21   -1    0    0  501  503 -0.00000000000E+00 -0.00000000000E+00 -0.12323044570E+03  0.12323044570E+03  0.00000000000E+00 0. -1.
          6    2    1    2  501    0 -0.27104045930E+02  0.53881237035E+01  0.10421623138E+02  0.17694166294E+03  0.17445939548E+03 0.  0.
         24    2    3    3    0    0  0.41850535172E+02 -0.73629011762E+01 -0.30360793613E+02  0.95685165309E+02  0.80176015512E+02 0.  0.
         -6    2    1    2    0  502  0.27104045930E+02 -0.53881237035E+01  0.15135449058E+03  0.23129534219E+03  0.17270116478E+03 0.  0.
        -24    2    5    5    0    0  0.52276529347E+02  0.24985977930E+01  0.19904513194E+02  0.97142292086E+02  0.79381085623E+02 0.  0.
          5    1    3    3  501    0 -0.68954581103E+02  0.12751024880E+02  0.40782416750E+02  0.81256497627E+02  0.47000000000E+01 0. -1.
        -13    1    4    4    0    0  0.25650530458E+02  0.21267199647E+02  0.17479210909E+02  0.37626670163E+02  0.00000000000E+00 0.  1.
         14    1    4    4    0    0  0.16200004715E+02 -0.28630100823E+02 -0.47840004522E+02  0.58058495145E+02  0.00000000000E+00 0. -1.
         -5    1    5    5    0  502 -0.25172483417E+02 -0.78867214965E+01  0.13144997739E+03  0.13415305011E+03  0.47000000000E+01 0.  1.
         13    1    6    6    0    0  0.14202860894E+02  0.32409469570E+02 -0.13979003110E+02  0.38046123368E+02  0.00000000000E+00 0. -1.
        -14    1    6    6    0    0  0.38073668453E+02 -0.29910871777E+02  0.33883516304E+02  0.59096168717E+02  0.00000000000E+00 0.  1.
<mgrwt>
<rscale>  2 0.17619879E+03</rscale>
<asrwt>0</asrwt>
<pdfrwt beam="1">  1       21 0.43847163E-01 0.17663449E+03</pdfrwt>
<pdfrwt beam="2">  1       21 0.18958530E-01 0.17663449E+03</pdfrwt>
<totfact> 0.12815531E+05</totfact>
</mgrwt>
</event>
<event>
12    1  0.1019868E-001  0.2381049E+03  0.7546771E-02  0.1121419E+00
         21   -1    0    0  501  502  0.00000000000E+00  0.00000000000E+00  0.31233701872E+03  0.31233701872E+03  0.00000000000E+00 0.  1.
         21   -1    0    0  502  503 -0.00000000000E+00 -0.00000000000E+00 -0.27764736340E+03  0.27764736340E+03  0.00000000000E+00 0.  1.
         -6    2    1    2    0  503  0.13448920776E+03 -0.85447514580E+02 -0.15772826326E+03  0.28384947570E+03  0.17407956535E+03 0.  0.
        -24    2    3    3    0    0  0.10770087184E+03  0.19731823145E+01 -0.50835696462E+02  0.14310820946E+03  0.79324147252E+02 0.  0.
          6    2    1    2  501    0 -0.13448920776E+03  0.85447514580E+02  0.19241791857E+03  0.30613490642E+03  0.17693304041E+03 0.  0.
         24    2    5    5    0    0 -0.10249993912E+03  0.55429415463E+02  0.21398824892E+03  0.25702514432E+03  0.81806457677E+02 0.  0.
          5    1    5    5  501    0 -0.31989268643E+02  0.30018099117E+02 -0.21570330343E+02  0.49109762105E+02  0.47000000000E+01 0. -1.
        -11    1    6    6    0    0 -0.34281288499E+02 -0.19793953350E+02  0.45591401784E+02  0.60378665495E+02  0.00000000000E+00 0.  1.
         12    1    6    6    0    0 -0.68218650620E+02  0.75223368812E+02  0.16839684713E+03  0.19664647882E+03  0.00000000000E+00 0. -1.
         -5    1    3    3    0  503  0.26788335927E+02 -0.87420696894E+02 -0.10689256680E+03  0.14074126624E+03  0.47000000000E+01 0.  1.
         11    1    4    4    0    0  0.40817009692E+02  0.39472827969E+02 -0.16798555511E+02  0.59214220380E+02  0.00000000000E+00 0. -1.
        -12    1    4    4    0    0  0.66883862144E+02 -0.37499645654E+02 -0.34037140951E+02  0.83893989079E+02  0.00000000000E+00 0.  1.
<mgrwt>
<rscale>  2 0.23757493E+03</rscale>
<asrwt>0</asrwt>
<pdfrwt beam="1">  1       21 0.48051849E-01 0.23810486E+03</pdfrwt>
<pdfrwt beam="2">  1       21 0.42714979E-01 0.23810486E+03</pdfrwt>
<totfact> 0.21277232E+04</totfact>
</mgrwt>
</event>
<event>
12    1  0.1019868E-001  0.1778552E+03  0.7546771E-02  0.1170678E+00
         21   -1    0    0  501  502  0.00000000000E+00  0.00000000000E+00  0.27536274522E+02  0.27536274522E+02  0.00000000000E+00 0.  1.
         21   -1    0    0  502  503 -0.00000000000E+00 -0.00000000000E+00 -0.11447420119E+04  0.11447420119E+04  0.00000000000E+00 0.  1.
         -6    2    1    2    0  503 -0.34788333263E+02  0.12557539724E+02 -0.49366602045E+03  0.52472717308E+03  0.17396708448E+03 0.  0.
        -24    2    3    3    0    0 -0.28954309293E+02 -0.59841916713E+02 -0.28864500801E+03  0.30716931257E+03  0.81348871601E+02 0.  0.
          6    2    1    2  501    0  0.34788333263E+02 -0.12557539724E+02 -0.62353971695E+03  0.64755111337E+03  0.17074175199E+03 0.  0.
         24    2    5    5    0    0  0.36799826472E+02  0.40952745675E+01 -0.15891137717E+03  0.18259633443E+03  0.81960948329E+02 0.  0.
          5    1    5    5  501    0 -0.20114932090E+01 -0.16652814291E+02 -0.46462833979E+03  0.46495477894E+03  0.47000000000E+01 0. -1.
        -13    1    6    6    0    0  0.51713004935E+02 -0.20630228434E+02 -0.13142095223E+03  0.14272809075E+03  0.00000000000E+00 0.  1.
         14    1    6    6    0    0 -0.14913178463E+02  0.24725503001E+02 -0.27490424937E+02  0.39868243675E+02  0.00000000000E+00 0. -1.
         -5    1    3    3    0  503 -0.58340239699E+01  0.72399456437E+02 -0.20502101244E+03  0.21755786051E+03  0.47000000000E+01 0.  1.
         13    1    4    4    0    0  0.64272358490E+01 -0.53481146636E+02 -0.24387353402E+03  0.24975156256E+03  0.00000000000E+00 0. -1.
        -14    1    4    4    0    0 -0.35381545142E+02 -0.63607700772E+01 -0.44771473997E+02  0.57417750013E+02  0.00000000000E+00 0.  1.
<mgrwt>
<rscale>  2 0.17706150E+03</rscale>
<asrwt>0</asrwt>
<pdfrwt beam="1">  1       21 0.42363501E-02 0.17785518E+03</pdfrwt>
<pdfrwt beam="2">  1       21 0.17611415E+00 0.17785518E+03</pdfrwt>
<totfact> 0.69429069E+04</totfact>
</mgrwt>
</event>
<event>
12    1  0.1019868E-001  0.2886143E+03  0.7546771E-02  0.1091101E+00
         21   -1    0    0  503  502  0.00000000000E+00  0.00000000000E+00  0.37321108467E+03  0.37321108467E+03  0.00000000000E+00 0. -1.
         21   -1    0    0  501  503 -0.00000000000E+00 -0.00000000000E+00 -0.26217913667E+03  0.26217913667E+03  0.00000000000E+00 0. -1.
          6    2    1    2  501    0 -0.11755879386E+03 -0.19856695356E+03 -0.67245935098E+02  0.29615399968E+03  0.17302101225E+03 0.  0.
         24    2    3    3    0    0 -0.83217335344E+02 -0.21378684413E+03 -0.31652686574E+02  0.24419295482E+03  0.77449125180E+02 0.  0.
         -6    2    1    2    0  502  0.11755879386E+03  0.19856695356E+03  0.17827788310E+03  0.33923622166E+03  0.17334735482E+03 0.  0.
        -24    2    5    5    0    0 -0.27391350297E+01  0.89025111062E+02  0.42776096364E+02  0.12744899078E+03  0.80501413473E+02 0.  0.
          5    1    3    3  501    0 -0.34341458520E+02  0.15219890576E+02 -0.35593248524E+02  0.51961044860E+02  0.47000000000E+01 0. -1.
        -13    1    4    4    0    0 -0.14915939589E+02 -0.14092364049E+03 -0.10443125624E+02  0.14209509695E+03  0.00000000000E+00 0.  1.
         14    1    4    4    0    0 -0.68301395755E+02 -0.72863203638E+02 -0.21209560950E+02  0.10209785787E+03  0.00000000000E+00 0. -1.
         -5    1    5    5    0  502  0.12029792889E+03  0.10954184249E+03  0.13550178674E+03  0.21178723088E+03  0.47000000000E+01 0.  1.
         13    1    6    6    0    0  0.20846528659E+02  0.87510277167E+02  0.49760455798E+02  0.10280432544E+03  0.00000000000E+00 0. -1.
        -14    1    6    6    0    0 -0.23585663689E+02  0.15148338949E+01 -0.69843594345E+01  0.24644665348E+02  0.00000000000E+00 0.  1.
<mgrwt>
<rscale>  2 0.28856531E+03</rscale>
<asrwt>0</asrwt>
<pdfrwt beam="1">  1       21 0.57417090E-01 0.28861429E+03</pdfrwt>
<pdfrwt beam="2">  1       21 0.40335252E-01 0.28861429E+03</pdfrwt>
<totfact> 0.16031062E+04</totfact>
</mgrwt>
</event>
<event>
12    1  0.1019868E-001  0.2007069E+03  0.7546771E-02  0.1151765E+00
         21   -1    0    0  503  502  0.00000000000E+00  0.00000000000E+00  0.17863123872E+03  0.17863123872E+03  0.00000000000E+00 0. -1.
         21   -1    0    0  501  503 -0.00000000000E+00 -0.00000000000E+00 -0.44995938456E+03  0.44995938456E+03  0.00000000000E+00 0. -1.
          6    2    1    2  501    0 -0.73729692271E+02 -0.13691245688E+02 -0.36608735615E+03  0.41749634818E+03  0.18617124021E+03 0.  0.
         24    2    3    3    0    0 -0.14326635304E+01 -0.60584486018E+02 -0.11783789527E+03  0.15467374416E+03  0.79785118302E+02 0.  0.
         -6    2    1    2    0  502  0.73729692271E+02  0.13691245688E+02  0.94759210302E+02  0.21109427510E+03  0.17308370031E+03 0.  0.
        -24    2    5    5    0    0 -0.52729829211E+01 -0.25183896367E+02  0.90682353063E+02  0.12282531044E+03  0.78744744219E+02 0.  0.
          5    1    3    3  501    0 -0.72297028740E+02  0.46893240329E+02 -0.24824946088E+03  0.26282260402E+03  0.47000000000E+01 0. -1.
        -11    1    4    4    0    0  0.48534618828E+01 -0.54382880137E+01  0.11677931342E+02  0.13766086924E+02  0.00000000000E+00 0.  1.
         12    1    4    4    0    0 -0.62861254131E+01 -0.55146198004E+02 -0.12951582661E+03  0.14090765724E+03  0.00000000000E+00 0. -1.
         -5    1    5    5    0  502  0.79002675192E+02  0.38875142055E+02  0.40768572381E+01  0.88268964660E+02  0.47000000000E+01 0.  1.
         13    1    6    6    0    0  0.26592271825E+02 -0.11036075090E+02  0.35908959057E+01  0.29014451703E+02  0.00000000000E+00 0. -1.
        -14    1    6    6    0    0 -0.31865254746E+02 -0.14147821277E+02  0.87091457158E+02  0.93810858736E+02  0.00000000000E+00 0.  1.
<mgrwt>
<rscale>  2 0.19761718E+03</rscale>
<asrwt>0</asrwt>
<pdfrwt beam="1">  1       21 0.27481729E-01 0.20070687E+03</pdfrwt>
<pdfrwt beam="2">  1       21 0.69224521E-01 0.20070687E+03</pdfrwt>
<totfact> 0.23873409E+04</totfact>
</mgrwt>
</event>
<event>
12    1  0.1019868E-001  0.2294354E+03  0.7546771E-02  0.1127370E+00
         21   -1    0    0  501  502  0.00000000000E+00  0.00000000000E+00  0.20757900429E+03  0.20757900429E+03  0.00000000000E+00 0.  1.
         21   -1    0    0  502  503 -0.00000000000E+00 -0.00000000000E+00 -0.41055169905E+03  0.41055169905E+03  0.00000000000E+00 0. -1.
         -6    2    1    2    0  503 -0.14231168371E+03 -0.48921957542E+02  0.90611226260E+02  0.24667995666E+03  0.17318958814E+03 0.  0.
        -24    2    3    3    0    0 -0.84276447700E+02  0.13400083727E+02  0.10874030113E+03  0.15948546828E+03  0.79555512845E+02 0.  0.
          6    2    1    2  501    0  0.14231168371E+03  0.48921957542E+02 -0.29358392102E+03  0.37145074669E+03  0.17069904885E+03 0.  0.
         24    2    5    5    0    0  0.26644572155E+02  0.67059984449E+01 -0.19627117122E+03  0.21443823390E+03  0.81893100223E+02 0.  0.
          5    1    5    5  501    0  0.11566711156E+03  0.42215959097E+02 -0.97312749805E+02  0.15701251279E+03  0.47000000000E+01 0. -1.
        -11    1    6    6    0    0  0.15430377791E+02  0.34293080452E+02 -0.38263825070E+02  0.53649158751E+02  0.00000000000E+00 0.  1.
         12    1    6    6    0    0  0.11214194365E+02 -0.27587082007E+02 -0.15800734615E+03  0.16078907514E+03  0.00000000000E+00 0. -1.
         -5    1    3    3    0  503 -0.58035236011E+02 -0.62322041269E+02 -0.18129074867E+02  0.87194488371E+02  0.47000000000E+01 0.  1.
         13    1    4    4    0    0  0.73770952596E+01 -0.18199051083E+02  0.16132025390E+02  0.25413957542E+02  0.00000000000E+00 0. -1.
        -14    1    4    4    0    0 -0.91653542960E+02  0.31599134809E+02  0.92608275737E+02  0.13407151074E+03  0.00000000000E+00 0.  1.
<mgrwt>
<rscale>  2 0.22896544E+03</rscale>
<asrwt>0</asrwt>
<pdfrwt beam="1">  1       21 0.31935231E-01 0.22943541E+03</pdfrwt>
<pdfrwt beam="2">  1       21 0.63161800E-01 0.22943541E+03</pdfrwt>
<totfact> 0.21422776E+04</totfact>
</mgrwt>
</event>
<event>
12    1  0.1019868E-001  0.2591947E+03  0.7546771E-02  0.1108732E+00
         21   -1    0    0  501  502  0.00000000000E+00  0.00000000000E+00  0.18596497349E+03  0.18596497349E+03  0.00000000000E+00 0.  1.
         21   -1    0    0  502  503 -0.00000000000E+00 -0.00000000000E+00 -0.44987270686E+03  0.44987270686E+03  0.00000000000E+00 0.  1.
         -6    2    1    2    0  503 -0.20321325468E+02 -0.19209411954E+03 -0.27931990967E+03  0.37618516502E+03  0.16181025745E+03 0.  0.
        -24    2    3    3    0    0  0.18702459013E+02 -0.12832144054E+03 -0.10540224212E+03  0.18681976315E+03  0.83521357652E+02 0.  0.
          6    2    1    2  501    0  0.20321325468E+02  0.19209411954E+03  0.15412176295E+02  0.25965251532E+03  0.17282588494E+03 0.  0.
         24    2    5    5    0    0 -0.39862962958E+02  0.16414198700E+03 -0.12062879690E+02  0.18767724882E+03  0.80904814103E+02 0.  0.
          5    1    5    5  501    0  0.60184288426E+02  0.27952132531E+02  0.27475055985E+02  0.71975266500E+02  0.47000000000E+01 0. -1.
        -11    1    6    6    0    0 -0.55949797419E+02  0.62740204540E+02  0.17525352179E+01  0.84082010422E+02  0.00000000000E+00 0.  1.
         12    1    6    6    0    0  0.16086834460E+02  0.10140178246E+03 -0.13815414908E+02  0.10359523840E+03  0.00000000000E+00 0. -1.
         -5    1    3    3    0  503 -0.39023784481E+02 -0.63772679000E+02 -0.17391766755E+03  0.18936540188E+03  0.47000000000E+01 0.  1.
         11    1    4    4    0    0 -0.77204864822E+01  0.40699820197E+01  0.69698429670E+01  0.11169126024E+02  0.00000000000E+00 0. -1.
        -12    1    4    4    0    0  0.26422945495E+02 -0.13239142256E+03 -0.11237208508E+03  0.17565063712E+03  0.00000000000E+00 0.  1.
<mgrwt>
<rscale>  2 0.25737277E+03</rscale>
<asrwt>0</asrwt>
<pdfrwt beam="1">  1       21 0.28609996E-01 0.25919470E+03</pdfrwt>
<pdfrwt beam="2">  1       21 0.69211185E-01 0.25919470E+03</pdfrwt>
<totfact> 0.21429397E+04</totfact>
</mgrwt>
</event>
<event>
12    1  0.1019868E-001  0.1843758E+03  0.7546771E-02  0.1163814E+00
         21   -1    0    0  503  502  0.00000000000E+00  0.00000000000E+00  0.34413148714E+03  0.34413148714E+03  0.00000000000E+00 0. -1.
         21   -1    0    0  501  503 -0.00000000000E+00 -0.00000000000E+00 -0.10577641002E+03  0.10577641002E+03  0.00000000000E+00 0.  1.
          6    2    1    2  501    0 -0.39206378438E+00  0.64400239836E+02  0.59897508585E+02  0.19386119141E+03  0.17276256942E+03 0.  0.
         24    2    3    3    0    0 -0.37676733991E+02  0.49538418477E+02  0.95461343359E+02  0.14002907543E+03  0.81373722423E+02 0.  0.
         -6    2    1    2    0  502  0.39206378438E+00 -0.64400239836E+02  0.17845756854E+03  0.25604670575E+03  0.17194553543E+03 0.  0.
        -24    2    5    5    0    0 -0.41898294175E+02 -0.22653380294E+02  0.17191922202E+03  0.19607909255E+03  0.81376587181E+02 0.  0.
          5    1    3    3  501    0  0.37284670206E+02  0.14861821359E+02 -0.35563834774E+02  0.53832115975E+02  0.47000000000E+01 0. -1.
        -13    1    4    4    0    0 -0.20280689325E+02  0.78627129913E+01 -0.11007618613E+02  0.24378192767E+02  0.00000000000E+00 0.  1.
         14    1    4    4    0    0 -0.17396044666E+02  0.41675705485E+02  0.10646896197E+03  0.11565088266E+03  0.00000000000E+00 0. -1.
         -5    1    5    5    0  502  0.42290357959E+02 -0.41746859541E+02  0.65383465140E+01  0.59967613201E+02  0.47000000000E+01 0.  1.
         13    1    6    6    0    0 -0.14884662879E+02  0.26927051850E+02  0.10010714130E+03  0.10472850161E+03  0.00000000000E+00 0. -1.
        -14    1    6    6    0    0 -0.27013631296E+02 -0.49580432144E+02  0.71812080720E+02  0.91350590938E+02  0.00000000000E+00 0.  1.
<mgrwt>
<rscale>  2 0.18418420E+03</rscale>
<asrwt>0</asrwt>
<pdfrwt beam="1">  1       21 0.52943305E-01 0.18437584E+03</pdfrwt>
<pdfrwt beam="2">  1       21 0.16273294E-01 0.18437584E+03</pdfrwt>
<totfact> 0.11460539E+05</totfact>
</mgrwt>
</event>
<event>
12    1  0.1019868E-001  0.2583486E+03  0.7546771E-02  0.1108811E+00
         21   -1    0    0  501  502  0.00000000000E+00  0.00000000000E+00  0.42588788036E+03  0.42588788036E+03  0.00000000000E+00 0.  1.
         21   -1    0    0  502  503 -0.00000000000E+00 -0.00000000000E+00 -0.16408965374E+03  0.16408965374E+03  0.00000000000E+00 0.  1.
         -6    2    1    2    0  503  0.61002979026E+01  0.19216476717E+03  0.59035142760E+02  0.26500786288E+03  0.17256740112E+03 0.  0.
        -24    2    3    3    0    0 -0.60264102201E+02  0.87811926536E+02  0.50148748471E+02  0.14093205156E+03  0.77487093947E+02 0.  0.
          6    2    1    2  501    0 -0.61002979026E+01 -0.19216476717E+03  0.20276308386E+03  0.32496967122E+03  0.16591536295E+03 0.  0.
         24    2    5    5    0    0 -0.20378175930E+02 -0.15170048545E+03  0.21889954642E+03  0.27888614575E+03  0.80200770137E+02 0.  0.
          5    1    5    5  501    0  0.14277878027E+02 -0.40464281723E+02 -0.16136462554E+02  0.46083525474E+02  0.47000000000E+01 0. -1.
        -11    1    6    6    0    0 -0.25506534896E+02 -0.12422141160E+03  0.11465916925E+03  0.17096276646E+03  0.00000000000E+00 0.  1.
         12    1    6    6    0    0  0.51283589658E+01 -0.27479073841E+02  0.10424037717E+03  0.10792337929E+03  0.00000000000E+00 0. -1.
         -5    1    3    3    0  503  0.66364400104E+02  0.10435284063E+03  0.88863942895E+01  0.12407581131E+03  0.47000000000E+01 0.  1.
         11    1    4    4    0    0 -0.50614725660E+01  0.35675806949E+02  0.53983284784E+02  0.64904366125E+02  0.00000000000E+00 0. -1.
        -12    1    4    4    0    0 -0.55202629635E+02  0.52136119587E+02 -0.38345363135E+01  0.76027685438E+02  0.00000000000E+00 0.  1.
<mgrwt>
<rscale>  2 0.25724279E+03</rscale>
<asrwt>0</asrwt>
<pdfrwt beam="1">  1       21 0.65521212E-01 0.25834864E+03</pdfrwt>
<pdfrwt beam="2">  1       21 0.25244562E-01 0.25834864E+03</pdfrwt>
<totfact> 0.30832266E+04</totfact>
</mgrwt>
</event>
<event>
12    1  0.1019868E-001  0.2602251E+03  0.7546771E-02  0.1107072E+00
         21   -1    0    0  503  502  0.00000000000E+00  0.00000000000E+00  0.76883686567E+03  0.76883686567E+03  0.00000000000E+00 0. -1.
         21   -1    0    0  501  503 -0.00000000000E+00 -0.00000000000E+00 -0.89131408306E+02  0.89131408306E+02  0.00000000000E+00 0. -1.
          6    2    1    2  501    0 -0.17370375122E+03 -0.87876634363E+02  0.29041012482E+03  0.38994249716E+03  0.17268993728E+03 0.  0.
         24    2    3    3    0    0 -0.81686415184E+02  0.20732369836E+02  0.15107673193E+03  0.19069644249E+03  0.80239969254E+02 0.  0.
         -6    2    1    2    0  502  0.17370375122E+03  0.87876634363E+02  0.38929533255E+03  0.46802577682E+03  0.17205224722E+03 0.  0.
        -24    2    5    5    0    0  0.89348300453E+02 -0.15737614498E+02  0.14496767736E+03  0.18951213671E+03  0.81660462748E+02 0.  0.
          5    1    3    3  501    0 -0.92017336031E+02 -0.10860900420E+03  0.13933339290E+03  0.19924605466E+03  0.47000000000E+01 0. -1.
        -13    1    4    4    0    0 -0.10982165490E+02  0.25812485561E+02  0.52292631089E+01  0.28534848210E+02  0.00000000000E+00 0.  1.
         14    1    4    4    0    0 -0.70704249694E+02 -0.50801157251E+01  0.14584746882E+03  0.16216159428E+03  0.00000000000E+00 0. -1.
         -5    1    5    5    0  502  0.84355450762E+02  0.10361424886E+03  0.24432765519E+03  0.27851364011E+03  0.47000000000E+01 0.  1.
         13    1    6    6    0    0  0.70418201110E+02 -0.44491789070E+02  0.12342084881E+03  0.14889912110E+03  0.00000000000E+00 0. -1.
        -14    1    6    6    0    0  0.18930099344E+02  0.28754174572E+02  0.21546828551E+02  0.40613015612E+02  0.00000000000E+00 0.  1.
<mgrwt>
<rscale>  2 0.26011936E+03</rscale>
<asrwt>0</asrwt>
<pdfrwt beam="1">  1       21 0.11828259E+00 0.26022512E+03</pdfrwt>
<pdfrwt beam="2">  1       21 0.13712525E-01 0.26022512E+03</pdfrwt>
<totfact> 0.24351839E+04</totfact>
</mgrwt>
</event>
<event>
12    1  0.1019868E-001  0.2190721E+03  0.7546771E-02  0.1134624E+00
         21   -1    0    0  503  502  0.00000000000E+00  0.00000000000E+00  0.47705131875E+02  0.47705131875E+02  0.00000000000E+00 0.  1.
         21   -1    0    0  501  503 -0.00000000000E+00 -0.00000000000E+00 -0.11102492409E+04  0.11102492409E+04  0.00000000000E+00 0.  1.
          6    2    1    2  501    0 -0.12242907948E+03  0.55266169855E+02 -0.70992532368E+03  0.74295798069E+03  0.17305885369E+03 0.  0.
         24    2    3    3    0    0 -0.11196173041E+03  0.93174943030E+02 -0.44738438681E+03  0.47744625965E+03  0.81148889121E+02 0.  0.
         -6    2    1    2    0  502  0.12242907948E+03 -0.55266169855E+02 -0.35261878536E+03  0.41499639209E+03  0.17273901885E+03 0.  0.
        -24    2    5    5    0    0  0.73064564858E+02  0.31846861495E+02 -0.23073896998E+03  0.25719171874E+03  0.80959586824E+02 0.  0.
          5    1    3    3  501    0 -0.10467349070E+02 -0.37908773176E+02 -0.26254093687E+03  0.26551172104E+03  0.47000000000E+01 0. -1.
        -11    1    4    4    0    0 -0.62420463261E+02  0.15798983915E+02 -0.10699580965E+03  0.12487604017E+03  0.00000000000E+00 0.  1.
         12    1    4    4    0    0 -0.49541267145E+02  0.77375959116E+02 -0.34038857717E+03  0.35257021948E+03  0.00000000000E+00 0. -1.
         -5    1    5    5    0  502  0.49364514618E+02 -0.87113031350E+02 -0.12187981538E+03  0.15780467335E+03  0.47000000000E+01 0.  1.
         11    1    6    6    0    0 -0.11557936989E+01  0.25806863553E+02 -0.12635489600E+03  0.12896856132E+03  0.00000000000E+00 0. -1.
        -12    1    6    6    0    0  0.74220358557E+02  0.60399979427E+01 -0.10438407397E+03  0.12822315742E+03  0.00000000000E+00 0.  1.
<mgrwt>
<rscale>  2 0.21900896E+03</rscale>
<asrwt>0</asrwt>
<pdfrwt beam="1">  1       21 0.73392514E-02 0.21907212E+03</pdfrwt>
<pdfrwt beam="2">  1       21 0.17080757E+00 0.21907212E+03</pdfrwt>
<totfact> 0.28859523E+04</totfact>
</mgrwt>
</event>
<event>
12    1  0.1019868E-001  0.1891719E+03  0.7546771E-02  0.1159544E+00
         21   -1    0    0  503  502  0.00000000000E+00  0.00000000000E+00  0.86029864897E+03  0.86029864897E+03  0.00000000000E+00 0. -1.
         21   -1    0    0  501  503 -0.00000000000E+00 -0.00000000000E+00 -0.41616218933E+02  0.41616218933E+02  0.00000000000E+00 0.  1.
          6    2    1    2  501    0 -0.74107891871E+02 -0.14811861862E+02  0.44858013847E+03  0.48626872269E+03  0.17181897203E+03 0.  0.
         24    2    3    3    0    0 -0.38090506729E+02  0.39365441990E+02  0.14038469008E+03  0.17124656998E+03  0.81344955575E+02 0.  0.
         -6    2    1    2    0  502  0.74107891871E+02  0.14811861862E+02  0.37010229156E+03  0.41564614521E+03  0.17342041667E+03 0.  0.
        -24    2    5    5    0    0  0.59928707087E+02 -0.37275103707E+02  0.16312363214E+03  0.20169204564E+03  0.95338757199E+02 0.  0.
          5    1    3    3  501    0 -0.36017385142E+02 -0.54177303852E+02  0.30819544840E+03  0.31502215271E+03  0.47000000000E+01 0. -1.
        -11    1    4    4    0    0 -0.23957521481E+01 -0.92836731946E+01 -0.70773580187E+01  0.11917013588E+02  0.00000000000E+00 0.  1.
         12    1    4    4    0    0 -0.35694754581E+02  0.48649115185E+02  0.14746204809E+03  0.15932955639E+03  0.00000000000E+00 0. -1.
         -5    1    5    5    0  502  0.14179184783E+02  0.52086965569E+02  0.20697865943E+03  0.21395409957E+03  0.47000000000E+01 0.  1.
         11    1    6    6    0    0  0.46135583269E+02 -0.47020583988E+02  0.17085764835E+03  0.18311680251E+03  0.00000000000E+00 0. -1.
        -12    1    6    6    0    0  0.13793123819E+02  0.97454802808E+01 -0.77340162135E+01  0.18575243131E+02  0.00000000000E+00 0.  1.
<mgrwt>
<rscale>  2 0.18880409E+03</rscale>
<asrwt>0</asrwt>
<pdfrwt beam="1">  1       21 0.13235363E+00 0.18917191E+03</pdfrwt>
<pdfrwt beam="2">  1       21 0.64024958E-02 0.18917191E+03</pdfrwt>
<totfact> 0.72991627E+04</totfact>
</mgrwt>
</event>
<event>
12    1  0.1019868E-001  0.2255975E+03  0.7546771E-02  0.1133086E+00
         21   -1    0    0  501  502  0.00000000000E+00  0.00000000000E+00  0.47996803668E+02  0.47996803668E+02  0.00000000000E+00 0.  1.
         21   -1    0    0  502  503 -0.00000000000E+00 -0.00000000000E+00 -0.12190492418E+04  0.12190492418E+04  0.00000000000E+00 0.  1.
         -6    2    1    2    0  503  0.32156393353E+02  0.10991881194E+03 -0.84716491292E+03  0.87233429845E+03  0.17367371626E+03 0.  0.
        -24    2    3    3    0    0  0.18165773724E+02  0.51741695106E+02 -0.19911401557E+03  0.22150992129E+03  0.80081556446E+02 0.  0.
          6    2    1    2  501    0 -0.32156393353E+02 -0.10991881194E+03 -0.32388752524E+03  0.39471174705E+03  0.19436577734E+03 0.  0.
         24    2    5    5    0    0 -0.73179610602E+02 -0.12747145462E+03 -0.29909135598E+03  0.34344831341E+03  0.83047441919E+02 0.  0.
          5    1    5    5  501    0  0.41023217249E+02  0.17552642684E+02 -0.24796169263E+02  0.51263433642E+02  0.47000000000E+01 0. -1.
        -11    1    6    6    0    0 -0.41936414633E+02 -0.92855097004E+02 -0.26976048754E+03  0.28835993575E+03  0.00000000000E+00 0.  1.
         12    1    6    6    0    0 -0.31243195969E+02 -0.34616357615E+02 -0.29330868446E+02  0.55088377655E+02  0.00000000000E+00 0. -1.
         -5    1    3    3    0  503  0.13990619629E+02  0.58177116829E+02 -0.64805089735E+03  0.65082437717E+03  0.47000000000E+01 0.  1.
         13    1    4    4    0    0  0.34845738550E+02  0.58962432345E+02 -0.10299946189E+03  0.12369188766E+03  0.00000000000E+00 0. -1.
        -14    1    4    4    0    0 -0.16679964826E+02 -0.72207372384E+01 -0.96114553681E+02  0.97818033624E+02  0.00000000000E+00 0.  1.
<mgrwt>
<rscale>  2 0.22107266E+03</rscale>
<asrwt>0</asrwt>
<pdfrwt beam="1">  1       21 0.73841242E-02 0.22559750E+03</pdfrwt>
<pdfrwt beam="2">  1       21 0.18754602E+00 0.22559750E+03</pdfrwt>
<totfact> 0.21824617E+04</totfact>
</mgrwt>
</event>
<event>
12    1  0.1019868E-001  0.1963408E+03  0.7546771E-02  0.1153420E+00
         21   -1    0    0  503  502  0.00000000000E+00  0.00000000000E+00  0.10763512038E+04  0.10763512038E+04  0.00000000000E+00 0. -1.
         21   -1    0    0  501  503 -0.00000000000E+00 -0.00000000000E+00 -0.38428274848E+02  0.38428274848E+02  0.00000000000E+00 0. -1.
          6    2    1    2  501    0 -0.17663284484E+02 -0.84819310207E+02  0.67983079750E+03  0.70761544821E+03  0.17619137981E+03 0.  0.
         24    2    3    3    0    0  0.30055311439E+02  0.10899733902E+02  0.22407239205E+03  0.23945200032E+03  0.78145362214E+02 0.  0.
         -6    2    1    2    0  502  0.17663284484E+02  0.84819310207E+02  0.35809213150E+03  0.40716403048E+03  0.17333858795E+03 0.  0.
        -24    2    5    5    0    0  0.87457714074E+01 -0.18304956182E+02  0.21351785279E+03  0.22929343588E+03  0.81080492975E+02 0.  0.
          5    1    3    3  501    0 -0.47718595923E+02 -0.95719044109E+02  0.45575840545E+03  0.46816344789E+03  0.47000000000E+01 0. -1.
        -11    1    4    4    0    0 -0.15933322184E+02  0.14586337714E+02  0.17530364209E+02  0.27819879098E+02  0.00000000000E+00 0.  1.
         12    1    4    4    0    0  0.45988633623E+02 -0.36866038125E+01  0.20654202784E+03  0.21163212122E+03  0.00000000000E+00 0. -1.
         -5    1    5    5    0  502  0.89175130767E+01  0.10312426639E+03  0.14457427871E+03  0.17787059460E+03  0.47000000000E+01 0.  1.
         13    1    6    6    0    0  0.43669378698E+02 -0.18972077524E+02  0.10495878368E+03  0.11525320227E+03  0.00000000000E+00 0. -1.
        -14    1    6    6    0    0 -0.34923607291E+02  0.66712134167E+00  0.10855906911E+03  0.11404023362E+03  0.00000000000E+00 0.  1.
<mgrwt>
<rscale>  2 0.19569867E+03</rscale>
<asrwt>0</asrwt>
<pdfrwt beam="1">  1       21 0.16559247E+00 0.19634080E+03</pdfrwt>
<pdfrwt beam="2">  1       21 0.59120431E-02 0.19634080E+03</pdfrwt>
<totfact> 0.46267674E+04</totfact>
</mgrwt>
</event>
<event>
12    1  0.1019868E-001  0.1832085E+03  0.7546771E-02  0.1165571E+00
         21   -1    0    0  503  502  0.00000000000E+00  0.00000000000E+00  0.17359252039E+03  0.17359252039E+03  0.00000000000E+00 0. -1.
         21   -1    0    0  501  503 -0.00000000000E+00 -0.00000000000E+00 -0.19252600478E+03  0.19252600478E+03  0.00000000000E+00 0. -1.
          6    2    1    2  501    0  0.19689153525E+02  0.57158225542E+02  0.12720705910E+02  0.18364958347E+03  0.17294689253E+03 0.  0.
         24    2    3    3    0    0  0.46114448963E+02  0.77328734555E+02  0.56612742876E+02  0.12838886883E+03  0.71919561965E+02 0.  0.
         -6    2    1    2    0  502 -0.19689153525E+02 -0.57158225542E+02 -0.31654190301E+02  0.18246894170E+03  0.16922825239E+03 0.  0.
        -24    2    5    5    0    0 -0.46659795364E+02  0.17145717539E+02 -0.40726222312E+02  0.10276396542E+03  0.80191615972E+02 0.  0.
          5    1    3    3  501    0 -0.26425295438E+02 -0.20170509013E+02 -0.43892036966E+02  0.55260714634E+02  0.47000000000E+01 0. -1.
        -11    1    4    4    0    0  0.27763075291E+02  0.49348031407E+02 -0.64605280891E+01  0.56989077695E+02  0.00000000000E+00 0.  1.
         12    1    4    4    0    0  0.18351373672E+02  0.27980703148E+02  0.63073270966E+02  0.71399791138E+02  0.00000000000E+00 0. -1.
         -5    1    5    5    0  502  0.26970641838E+02 -0.74303943081E+02  0.90720320111E+01  0.79704976277E+02  0.47000000000E+01 0.  1.
         13    1    6    6    0    0 -0.44836347093E+02  0.13343984194E+02 -0.63909204746E+02  0.79200671626E+02  0.00000000000E+00 0. -1.
        -14    1    6    6    0    0 -0.18234482706E+01  0.38017333455E+01  0.23182982433E+02  0.23563293796E+02  0.00000000000E+00 0.  1.
<mgrwt>
<rscale>  2 0.18232559E+03</rscale>
<asrwt>0</asrwt>
<pdfrwt beam="1">  1       21 0.26706542E-01 0.18320850E+03</pdfrwt>
<pdfrwt beam="2">  1       21 0.29619385E-01 0.18320850E+03</pdfrwt>
<totfact> 0.14625365E+05</totfact>
</mgrwt>
</event>
<event>
12    1  0.1019868E-001  0.1916079E+03  0.7546771E-02  0.1157137E+00
         21   -1    0    0  503  502  0.00000000000E+00  0.00000000000E+00  0.42635553486E+02  0.42635553486E+02  0.00000000000E+00 0. -1.
         21   -1    0    0  501  503 -0.00000000000E+00 -0.00000000000E+00 -0.91115280540E+03  0.91115280540E+03  0.00000000000E+00 0.  1.
          6    2    1    2  501    0  0.67449398679E+02 -0.44017599864E+02 -0.32042804038E+03  0.37334662676E+03  0.17385800003E+03 0.  0.
         24    2    3    3    0    0  0.10709920349E+03 -0.59814789319E+02 -0.21927795074E+03  0.26345991760E+03  0.79248092042E+02 0.  0.
         -6    2    1    2    0  502 -0.67449398679E+02  0.44017599864E+02 -0.54808921153E+03  0.58044173212E+03  0.17327391641E+03 0.  0.
        -24    2    5    5    0    0 -0.49685101719E+01 -0.38786571800E+02 -0.32750739493E+03  0.33664095261E+03  0.67356907560E+02 0.  0.
          5    1    3    3  501    0 -0.39649804813E+02  0.15797189455E+02 -0.10115008964E+03  0.10988670916E+03  0.47000000000E+01 0. -1.
        -13    1    4    4    0    0  0.82790456590E+02 -0.20189320991E+02 -0.80976435542E+02  0.11755446184E+03  0.00000000000E+00 0.  1.
         14    1    4    4    0    0  0.24308746902E+02 -0.39625468327E+02 -0.13830151520E+03  0.14590545577E+03  0.00000000000E+00 0. -1.
         -5    1    5    5    0  502 -0.62480888507E+02  0.82804171664E+02 -0.22058181661E+03  0.24380077951E+03  0.47000000000E+01 0.  1.
         13    1    6    6    0    0 -0.32975032366E+02 -0.25474542988E+02 -0.12472856606E+03  0.13150482992E+03  0.00000000000E+00 0. -1.
        -14    1    6    6    0    0  0.28006522194E+02 -0.13312028812E+02 -0.20277882887E+03  0.20513612269E+03  0.00000000000E+00 0.  1.
<mgrwt>
<rscale>  2 0.19147527E+03</rscale>
<asrwt>0</asrwt>
<pdfrwt beam="1">  1       21 0.65593159E-02 0.19160787E+03</pdfrwt>
<pdfrwt beam="2">  1       21 0.14017736E+00 0.19160787E+03</pdfrwt>
<totfact> 0.60385114E+04</totfact>
</mgrwt>
</event>
<event>
12    1  0.1019868E-001  0.2095858E+03  0.7546771E-02  0.1142457E+00
         21   -1    0    0  501  502  0.00000000000E+00  0.00000000000E+00  0.44492641823E+03  0.44492641823E+03  0.00000000000E+00 0.  1.
         21   -1    0    0  502  503 -0.00000000000E+00 -0.00000000000E+00 -0.10198061853E+03  0.10198061853E+03  0.00000000000E+00 0.  1.
         -6    2    1    2    0  503 -0.11439316985E+03  0.13166830403E+02  0.11466537571E+03  0.23890243499E+03  0.17512013685E+03 0.  0.
        -24    2    3    3    0    0 -0.12917593908E+02  0.50724013863E+02  0.37205613789E+02  0.10574861696E+03  0.84016203653E+02 0.  0.
          6    2    1    2  501    0  0.11439316985E+03 -0.13166830403E+02  0.22828042400E+03  0.30800460177E+03  0.17174318036E+03 0.  0.
         24    2    5    5    0    0  0.89652199660E+01 -0.64412649500E+02  0.68360273422E+02  0.10966718434E+03  0.55896330424E+02 0.  0.
          5    1    5    5  501    0  0.10542794988E+03  0.51245819097E+02  0.15992015057E+03  0.19833741742E+03  0.47000000000E+01 0. -1.
        -11    1    6    6    0    0  0.23197670198E+02 -0.62215372105E+02  0.68313502560E+02  0.95266043588E+02  0.00000000000E+00 0.  1.
         12    1    6    6    0    0 -0.14232450232E+02 -0.21972773944E+01  0.46770861353E-01  0.14401140756E+02  0.00000000000E+00 0. -1.
         -5    1    3    3    0  503 -0.10147557594E+03 -0.37557183460E+02  0.77459761917E+02  0.13315381804E+03  0.47000000000E+01 0.  1.
         11    1    4    4    0    0  0.53760957027E+01  0.19268688269E+02 -0.26006973382E+02  0.32810782025E+02  0.00000000000E+00 0. -1.
        -12    1    4    4    0    0 -0.18293689611E+02  0.31455325593E+02  0.63212587171E+02  0.72937834932E+02  0.00000000000E+00 0.  1.
<mgrwt>
<rscale>  2 0.20887895E+03</rscale>
<asrwt>0</asrwt>
<pdfrwt beam="1">  1       21 0.68450217E-01 0.20958584E+03</pdfrwt>
<pdfrwt beam="2">  1       21 0.15689326E-01 0.20958584E+03</pdfrwt>
<totfact> 0.69813346E+04</totfact>
</mgrwt>
</event>
<event>
12    1  0.1019868E-001  0.3406675E+03  0.7546771E-02  0.1066542E+00
         21   -1    0    0  501  502  0.00000000000E+00  0.00000000000E+00  0.40163711025E+03  0.40163711025E+03  0.00000000000E+00 0.  1.
         21   -1    0    0  502  503 -0.00000000000E+00 -0.00000000000E+00 -0.30698639136E+03  0.30698639136E+03  0.00000000000E+00 0. -1.
         -6    2    1    2    0  503 -0.13015586392E+03 -0.26321440703E+03 -0.39128604914E+02  0.34262998640E+03  0.17216819359E+03 0.  0.
        -24    2    3    3    0    0 -0.85248080530E+01 -0.17787623535E+03 -0.39614961196E+02  0.19397251488E+03  0.65904202649E+02 0.  0.
          6    2    1    2  501    0  0.13015586392E+03  0.26321440703E+03  0.13377932380E+03  0.36599351521E+03  0.17271934669E+03 0.  0.
         24    2    5    5    0    0  0.61174009437E+01  0.94505245609E+02  0.70400795052E+02  0.14716196047E+03  0.87930123527E+02 0.  0.
          5    1    5    5  501    0  0.12403846297E+03  0.16870916142E+03  0.63378528745E+02  0.21883155474E+03  0.47000000000E+01 0. -1.
        -13    1    6    6    0    0  0.31268765046E+02  0.65156005998E+02  0.79514194362E+02  0.10745021122E+03  0.00000000000E+00 0.  1.
         14    1    6    6    0    0 -0.25151364102E+02  0.29349239611E+02 -0.91133993094E+01  0.39711749255E+02  0.00000000000E+00 0. -1.
         -5    1    3    3    0  503 -0.12163105586E+03 -0.85338171680E+02  0.48635628155E+00  0.14865747152E+03  0.47000000000E+01 0.  1.
         11    1    4    4    0    0  0.15882211875E+01 -0.23783063460E+01  0.10739403665E+02  0.11113666303E+02  0.00000000000E+00 0. -1.
        -12    1    4    4    0    0 -0.10113029241E+02 -0.17549792900E+03 -0.50354364861E+02  0.18285884858E+03  0.00000000000E+00 0.  1.
<mgrwt>
<rscale>  2 0.34059770E+03</rscale>
<asrwt>0</asrwt>
<pdfrwt beam="1">  1       21 0.61790325E-01 0.34066750E+03</pdfrwt>
<pdfrwt beam="2">  1       21 0.47228675E-01 0.34066750E+03</pdfrwt>
<totfact> 0.96515217E+03</totfact>
</mgrwt>
</event>
<event>
12    1  0.1019868E-001  0.2746628E+03  0.7546771E-02  0.1099575E+00
         21   -1    0    0  501  502  0.00000000000E+00  0.00000000000E+00  0.67073384867E+03  0.67073384867E+03  0.00000000000E+00 0.  1.
         21   -1    0    0  502  503 -0.00000000000E+00 -0.00000000000E+00 -0.11952640918E+03  0.11952640918E+03  0.00000000000E+00 0.  1.
         -6    2    1    2    0  503  0.18689314069E+03 -0.80624628125E+02  0.16590726346E+03  0.32088139952E+03  0.18441875120E+03 0.  0.
        -24    2    3    3    0    0  0.13039438924E+03 -0.11909817326E+03  0.16032027750E+03  0.25213820348E+03  0.81755798932E+02 0.  0.
          6    2    1    2  501    0 -0.18689314069E+03  0.80624628125E+02  0.38530017602E+03  0.46937885833E+03  0.17444457661E+03 0.  0.
         24    2    5    5    0    0 -0.14560073701E+03  0.63516699445E+02  0.15827866542E+03  0.23795154771E+03  0.79591817440E+02 0.  0.
          5    1    5    5  501    0 -0.41292403675E+02  0.17107928680E+02  0.22702151060E+03  0.23142731062E+03  0.47000000000E+01 0. -1.
        -13    1    6    6    0    0 -0.94780254242E+02  0.44668500675E+02  0.15022112224E+03  0.18315282448E+03  0.00000000000E+00 0.  1.
         14    1    6    6    0    0 -0.50820482768E+02  0.18848198770E+02  0.80575431792E+01  0.54798723231E+02  0.00000000000E+00 0. -1.
         -5    1    3    3    0  503  0.56498751448E+02  0.38473545132E+02  0.55869859646E+01  0.68743196044E+02  0.47000000000E+01 0.  1.
         11    1    4    4    0    0  0.48807930360E+02  0.15654333790E+01  0.44052733964E+02  0.65767073961E+02  0.00000000000E+00 0. -1.
        -12    1    4    4    0    0  0.81586458877E+02 -0.12066360664E+03  0.11626754354E+03  0.18637112952E+03  0.00000000000E+00 0.  1.
<mgrwt>
<rscale>  2 0.27299896E+03</rscale>
<asrwt>0</asrwt>
<pdfrwt beam="1">  1       21 0.10318982E+00 0.27466280E+03</pdfrwt>
<pdfrwt beam="2">  1       21 0.18388679E-01 0.27466280E+03</pdfrwt>
<totfact> 0.19666454E+04</totfact>
</mgrwt>
</event>
<event>
12    1  0.1019868E-001  0.1886777E+03  0.7546771E-02  0.1159890E+00
         21   -1    0    0  503  502  0.00000000000E+00  0.00000000000E+00  0.47836504024E+03  0.47836504024E+03  0.00000000000E+00 0.  1.
         21   -1    0    0  501  503 -0.00000000000E+00 -0.00000000000E+00 -0.10251029313E+03  0.10251029313E+03  0.00000000000E+00 0. -1.
          6    2    1    2  501    0 -0.21009539784E+02  0.75045507900E+02  0.34449848568E+02  0.19080280089E+03  0.17072108172E+03 0.  0.
         24    2    3    3    0    0  0.83337982040E+01  0.25356480718E+02  0.77511833485E+02  0.11864702877E+03  0.85770798047E+02 0.  0.
         -6    2    1    2    0  502  0.21009539784E+02 -0.75045507900E+02  0.34140489854E+03  0.39007253247E+03  0.17183144887E+03 0.  0.
        -24    2    5    5    0    0  0.44531063259E+02 -0.40057038975E+02  0.89622894012E+02  0.13474191772E+03  0.80842682371E+02 0.  0.
          5    1    3    3  501    0 -0.29343337988E+02  0.49689027182E+02 -0.43061984918E+02  0.72155772130E+02  0.47000000000E+01 0. -1.
        -11    1    4    4    0    0  0.31827875501E+02  0.21972966086E+02  0.85305747158E+02  0.93663735755E+02  0.00000000000E+00 0.  1.
         12    1    4    4    0    0 -0.23494077297E+02  0.33835146323E+01 -0.77939136722E+01  0.24983293010E+02  0.00000000000E+00 0. -1.
         -5    1    5    5    0  502 -0.23521523476E+02 -0.34988468925E+02  0.25178200453E+03  0.25533061475E+03  0.47000000000E+01 0.  1.
         13    1    6    6    0    0  0.21761961028E+02 -0.47339243415E+02  0.96672578083E+02  0.10981882474E+03  0.00000000000E+00 0. -1.
        -14    1    6    6    0    0  0.22769102231E+02  0.72822044401E+01 -0.70496840712E+01  0.24923092975E+02  0.00000000000E+00 0.  1.
<mgrwt>
<rscale>  2 0.18842453E+03</rscale>
<asrwt>0</asrwt>
<pdfrwt beam="1">  1       21 0.73594620E-01 0.18867770E+03</pdfrwt>
<pdfrwt beam="2">  1       21 0.15770815E-01 0.18867770E+03</pdfrwt>
<totfact> 0.59479662E+04</totfact>
</mgrwt>
</event>
<event>
12    1  0.1019868E-001  0.1827130E+03  0.7546771E-02  0.1165375E+00
         21   -1    0    0  501  502  0.00000000000E+00  0.00000000000E+00  0.29332782757E+03  0.29332782757E+03  0.00000000000E+00 0. -1.
         21   -1    0    0  502  503 -0.00000000000E+00 -0.00000000000E+00 -0.18789779397E+03  0.18789779397E+03  0.00000000000E+00 0. -1.
         -6    2    1    2    0  503  0.14349851212E+02  0.55620420618E+02 -0.98766734743E+02  0.20769904983E+03  0.17344877627E+03 0.  0.
        -24    2    3    3    0    0  0.57740737202E+02  0.31808505060E+02 -0.11474010966E+03  0.15547822050E+03  0.81623590706E+02 0.  0.
          6    2    1    2  501    0 -0.14349851212E+02 -0.55620420618E+02  0.20419676834E+03  0.27352657171E+03  0.17268733541E+03 0.  0.
         24    2    5    5    0    0  0.31750047976E+02  0.10784985441E+02  0.15736232147E+03  0.17998281685E+03  0.80663081303E+02 0.  0.
          5    1    5    5  501    0 -0.46099899188E+02 -0.66405406058E+02  0.46834446869E+02  0.93543754855E+02  0.47000000000E+01 0. -1.
        -13    1    6    6    0    0  0.28598364920E+02 -0.29269865425E+02  0.45864424953E+02  0.61466551672E+02  0.00000000000E+00 0.  1.
         14    1    6    6    0    0  0.31516830562E+01  0.40054850866E+02  0.11149789652E+03  0.11851626518E+03  0.00000000000E+00 0. -1.
         -5    1    3    3    0  503 -0.43390885990E+02  0.23811915558E+02  0.15973374915E+02  0.52220829328E+02  0.47000000000E+01 0.  1.
         11    1    4    4    0    0  0.28099281142E+02  0.16682948936E+02 -0.11762099182E+03  0.12207615698E+03  0.00000000000E+00 0. -1.
        -12    1    4    4    0    0  0.29641456060E+02  0.15125556124E+02  0.28808821663E+01  0.33402063521E+02  0.00000000000E+00 0.  1.
<mgrwt>
<rscale>  2 0.18253203E+03</rscale>
<asrwt>0</asrwt>
<pdfrwt beam="1">  1       21 0.45127358E-01 0.18271296E+03</pdfrwt>
<pdfrwt beam="2">  1       21 0.28907353E-01 0.18271296E+03</pdfrwt>
<totfact> 0.54206134E+04</totfact>
</mgrwt>
</event>
<event>
12    1  0.1019868E-001  0.1954210E+03  0.7546771E-02  0.1153887E+00
         21   -1    0    0  501  502  0.00000000000E+00  0.00000000000E+00  0.65299669254E+02  0.65299669254E+02  0.00000000000E+00 0. -1.
         21   -1    0    0  502  503 -0.00000000000E+00 -0.00000000000E+00 -0.63856857208E+03  0.63856857208E+03  0.00000000000E+00 0.  1.
         -6    2    1    2    0  503 -0.46462049145E+02  0.78501529496E+02 -0.39093067696E+03  0.43659196285E+03  0.17165236875E+03 0.  0.
        -24    2    3    3    0    0 -0.16892122968E+01  0.20853103702E+02 -0.73283706781E+02  0.11063240159E+03  0.80195518763E+02 0.  0.
          6    2    1    2  501    0  0.46462049145E+02 -0.78501529496E+02 -0.18233822587E+03  0.26727627848E+03  0.17282409636E+03 0.  0.
         24    2    5    5    0    0  0.72558498286E+01  0.20865883368E+02 -0.64713232903E+02  0.10831484362E+03  0.84001609447E+02 0.  0.
          5    1    5    5  501    0  0.39206199316E+02 -0.99367412864E+02 -0.11762499297E+03  0.15896143486E+03  0.47000000000E+01 0. -1.
        -13    1    6    6    0    0  0.13365991721E+02  0.31211981665E+02 -0.81142891952E+02  0.87960254937E+02  0.00000000000E+00 0.  1.
         14    1    6    6    0    0 -0.61101418924E+01 -0.10346098297E+02  0.16429659049E+02  0.20354588681E+02  0.00000000000E+00 0. -1.
         -5    1    3    3    0  503 -0.44772836848E+02  0.57648425793E+02 -0.31764697018E+03  0.32595956126E+03  0.47000000000E+01 0.  1.
         13    1    4    4    0    0  0.12235451538E+02 -0.24728008767E+00 -0.82740519926E+02  0.83640666302E+02  0.00000000000E+00 0. -1.
        -14    1    4    4    0    0 -0.13924663835E+02  0.21100383790E+02  0.94568131444E+01  0.26991735288E+02  0.00000000000E+00 0.  1.
<mgrwt>
<rscale>  2 0.19516165E+03</rscale>
<asrwt>0</asrwt>
<pdfrwt beam="1">  1       21 0.10046103E-01 0.19542103E+03</pdfrwt>
<pdfrwt beam="2">  1       21 0.98241321E-01 0.19542103E+03</pdfrwt>
<totfact> 0.68819821E+04</totfact>
</mgrwt>
</event>
<event>
12    1  0.1019868E-001  0.1956521E+03  0.7546771E-02  0.1153536E+00
         21   -1    0    0  501  502  0.00000000000E+00  0.00000000000E+00  0.15642206898E+03  0.15642206898E+03  0.00000000000E+00 0.  1.
         21   -1    0    0  502  503 -0.00000000000E+00 -0.00000000000E+00 -0.30428245124E+03  0.30428245124E+03  0.00000000000E+00 0.  1.
         -6    2    1    2    0  503  0.88045775739E+02  0.19646076037E+02  0.28413278999E+02  0.19735658488E+03  0.17321743631E+03 0.  0.
        -24    2    3    3    0    0  0.15750801576E+02  0.55425606147E+02  0.53938655970E+02  0.11261950366E+03  0.80334851900E+02 0.  0.
          6    2    1    2  501    0 -0.88045775739E+02 -0.19646076037E+02 -0.17627366126E+03  0.26334793534E+03  0.17361366439E+03 0.  0.
         24    2    5    5    0    0 -0.12925272259E+03 -0.93493441756E+01 -0.14712671306E+03  0.21162105890E+03  0.79646257542E+02 0.  0.
          5    1    5    5  501    0  0.41206946856E+02 -0.10296731861E+02 -0.29146948203E+02  0.51726876436E+02  0.47000000000E+01 0. -1.
        -11    1    6    6    0    0 -0.91890084006E+02 -0.30896316157E+02 -0.13611027545E+03  0.16710588552E+03  0.00000000000E+00 0.  1.
         12    1    6    6    0    0 -0.37362638589E+02  0.21546971982E+02 -0.11016437606E+02  0.44515173384E+02  0.00000000000E+00 0. -1.
         -5    1    3    3    0  503  0.72294974163E+02 -0.35779530110E+02 -0.25525376971E+02  0.84737081220E+02  0.47000000000E+01 0.  1.
         13    1    4    4    0    0  0.15563271828E+02  0.38957275711E+02  0.74968684772E+02  0.85908023241E+02  0.00000000000E+00 0. -1.
        -14    1    4    4    0    0  0.18752974814E+00  0.16468330437E+02 -0.21030028802E+02  0.26711480419E+02  0.00000000000E+00 0.  1.
<mgrwt>
<rscale>  2 0.19556413E+03</rscale>
<asrwt>0</asrwt>
<pdfrwt beam="1">  1       21 0.24064934E-01 0.19565207E+03</pdfrwt>
<pdfrwt beam="2">  1       21 0.46812685E-01 0.19565207E+03</pdfrwt>
<totfact> 0.71061521E+04</totfact>
</mgrwt>
</event>
<event>
12    1  0.1019868E-001  0.3301893E+03  0.7546771E-02  0.1071112E+00
         21   -1    0    0  501  502  0.00000000000E+00  0.00000000000E+00  0.22032399413E+04  0.22032399413E+04  0.00000000000E+00 0. -1.
         21   -1    0    0  502  503 -0.00000000000E+00 -0.00000000000E+00 -0.52874938484E+02  0.52874938484E+02  0.00000000000E+00 0.  1.
         -6    2    1    2    0  503 -0.18623090054E+03  0.21046771478E+03  0.78538998246E+03  0.85177098610E+03  0.17233044107E+03 0.  0.
        -24    2    3    3    0    0 -0.59276484481E+02  0.16764035375E+03  0.49257490272E+03  0.52972383499E+03  0.79751594031E+02 0.  0.
          6    2    1    2  501    0  0.18623090054E+03 -0.21046771478E+03  0.13649750203E+04  0.14043438937E+04  0.17333885390E+03 0.  0.
         24    2    5    5    0    0  0.16581475792E+03 -0.13657215593E+03  0.74177928274E+03  0.77643276154E+03  0.80404236039E+02 0.  0.
          5    1    5    5  501    0  0.20416142625E+02 -0.73895558855E+02  0.62319573758E+03  0.62791113212E+03  0.47000000000E+01 0. -1.
        -11    1    6    6    0    0  0.14023275660E+03 -0.94210612846E+02  0.65597879269E+03  0.67738396944E+03  0.00000000000E+00 0.  1.
         12    1    6    6    0    0  0.25582001319E+02 -0.42361543079E+02  0.85800490051E+02  0.99048792100E+02  0.00000000000E+00 0. -1.
         -5    1    3    3    0  503 -0.12695441606E+03  0.42827361035E+02  0.29281507974E+03  0.32204715111E+03  0.47000000000E+01 0.  1.
         11    1    4    4    0    0 -0.23455378918E+01  0.18363702597E+02  0.15667512606E+03  0.15776508564E+03  0.00000000000E+00 0. -1.
        -12    1    4    4    0    0 -0.56930946589E+02  0.14927665115E+03  0.33589977666E+03  0.37195874935E+03  0.00000000000E+00 0.  1.
<mgrwt>
<rscale>  2 0.33005714E+03</rscale>
<asrwt>0</asrwt>
<pdfrwt beam="1">  1       21 0.33895992E+00 0.33018929E+03</pdfrwt>
<pdfrwt beam="2">  1       21 0.81346076E-02 0.33018929E+03</pdfrwt>
<totfact> 0.20608128E+03</totfact>
</mgrwt>
</event>
<event>
12    1  0.1019868E-001  0.2124940E+03  0.7546771E-02  0.1139741E+00
         21   -1    0    0  501  502  0.00000000000E+00  0.00000000000E+00  0.16911530100E+03  0.16911530100E+03  0.00000000000E+00 0. -1.
         21   -1    0    0  502  503 -0.00000000000E+00 -0.00000000000E+00 -0.29736253592E+03  0.29736253592E+03  0.00000000000E+00 0. -1.
         -6    2    1    2    0  503 -0.84237208672E+02  0.91181882009E+02 -0.13980197191E+03  0.25435858688E+03  0.17246349306E+03 0.  0.
        -24    2    3    3    0    0 -0.40644427962E+02  0.11773467650E+03 -0.60126019448E+02  0.15961826375E+03  0.79683300218E+02 0.  0.
          6    2    1    2  501    0  0.84237208672E+02 -0.91181882009E+02  0.11554736988E+02  0.21211925005E+03  0.17161299881E+03 0.  0.
         24    2    5    5    0    0 -0.60909342283E+01 -0.73958143660E+02  0.31326879980E+01  0.11965925074E+03  0.93816928432E+02 0.  0.
          5    1    5    5  501    0  0.90328142900E+02 -0.17223738349E+02  0.84220489898E+01  0.92459999306E+02  0.47000000000E+01 0. -1.
        -11    1    6    6    0    0  0.40907956070E+02 -0.18001698542E+02  0.11380538370E+02  0.46119829508E+02  0.00000000000E+00 0.  1.
         12    1    6    6    0    0 -0.46998890299E+02 -0.55956445118E+02 -0.82478503717E+01  0.73539421233E+02  0.00000000000E+00 0. -1.
         -5    1    3    3    0  503 -0.43592780710E+02 -0.26552794493E+02 -0.79675952462E+02  0.94740323126E+02  0.47000000000E+01 0.  1.
         11    1    4    4    0    0 -0.15102539445E+02  0.49096746300E+02  0.16178561213E+02  0.53854647319E+02  0.00000000000E+00 0. -1.
        -12    1    4    4    0    0 -0.25541888517E+02  0.68637930203E+02 -0.76304580661E+02  0.10576361643E+03  0.00000000000E+00 0.  1.
<mgrwt>
<rscale>  2 0.21232137E+03</rscale>
<asrwt>0</asrwt>
<pdfrwt beam="1">  1       21 0.26017739E-01 0.21249400E+03</pdfrwt>
<pdfrwt beam="2">  1       21 0.45748082E-01 0.21249400E+03</pdfrwt>
<totfact> 0.63709287E+04</totfact>
</mgrwt>
</event>
<event>
12    1  0.1019868E-001  0.1826733E+03  0.7546771E-02  0.1165381E+00
         21   -1    0    0  501  502  0.00000000000E+00  0.00000000000E+00  0.27053767231E+02  0.27053767231E+02  0.00000000000E+00 0.  1.
         21   -1    0    0  502  503 -0.00000000000E+00 -0.00000000000E+00 -0.17070674491E+04  0.17070674491E+04  0.00000000000E+00 0.  1.
         -6    2    1    2    0  503 -0.52725969636E+02  0.23195661124E+02 -0.12995987767E+04  0.13123743822E+04  0.17335360415E+03 0.  0.
        -24    2    3    3    0    0 -0.45393938333E+02 -0.31380737882E+01 -0.12632817999E+04  0.12666771494E+04  0.80744274117E+02 0.  0.
          6    2    1    2  501    0  0.52725969636E+02 -0.23195661124E+02 -0.38041490519E+03  0.42174683415E+03  0.17273339417E+03 0.  0.
         24    2    5    5    0    0 -0.13548215289E+00 -0.27255596812E+01 -0.72870861114E+02  0.10898688278E+03  0.80997106045E+02 0.  0.
          5    1    5    5  501    0  0.52861451789E+02 -0.20470101443E+02 -0.30754404407E+03  0.31275995137E+03  0.47000000000E+01 0. -1.
        -11    1    6    6    0    0  0.34316902865E+02  0.87566152990E+01 -0.10718850344E+02  0.37002998344E+02  0.00000000000E+00 0.  1.
         12    1    6    6    0    0 -0.34452385018E+02 -0.11482174980E+02 -0.62152010770E+02  0.71983884436E+02  0.00000000000E+00 0. -1.
         -5    1    3    3    0  503 -0.73320313032E+01  0.26333734912E+02 -0.36316976777E+02  0.45697232735E+02  0.47000000000E+01 0.  1.
         11    1    4    4    0    0 -0.24107968120E+02 -0.38250511663E+02 -0.42681166904E+03  0.42919983294E+03  0.00000000000E+00 0. -1.
        -12    1    4    4    0    0 -0.21285970213E+02  0.35112437875E+02 -0.83647013085E+03  0.83747731649E+03  0.00000000000E+00 0.  1.
<mgrwt>
<rscale>  2 0.18252602E+03</rscale>
<asrwt>0</asrwt>
<pdfrwt beam="1">  1       21 0.41621173E-02 0.18267331E+03</pdfrwt>
<pdfrwt beam="2">  1       21 0.26262581E+00 0.18267331E+03</pdfrwt>
<totfact> 0.20754418E+04</totfact>
</mgrwt>
</event>
<event>
12    1  0.1019868E-001  0.1941566E+03  0.7546771E-02  0.1155279E+00
         21   -1    0    0  501  502  0.00000000000E+00  0.00000000000E+00  0.99735694762E+03  0.99735694762E+03  0.00000000000E+00 0.  1.
         21   -1    0    0  502  503 -0.00000000000E+00 -0.00000000000E+00 -0.71476441764E+02  0.71476441764E+02  0.00000000000E+00 0.  1.
         -6    2    1    2    0  503  0.80621671515E+02 -0.36467404386E+02  0.95102903617E+02  0.21619751832E+03  0.17282094535E+03 0.  0.
        -24    2    3    3    0    0  0.72510240601E+02 -0.19206169348E+02 -0.95031274271E+01  0.10976323213E+03  0.79567868916E+02 0.  0.
          6    2    1    2  501    0 -0.80621671515E+02  0.36467404386E+02  0.83077760224E+03  0.85263587106E+03  0.17019629472E+03 0.  0.
         24    2    5    5    0    0 -0.98114388143E+02  0.35718448089E+02  0.37040366253E+03  0.39190513577E+03  0.74084556683E+02 0.  0.
          5    1    5    5  501    0  0.17492716629E+02  0.74895629660E+00  0.46037393971E+03  0.46073073529E+03  0.47000000000E+01 0. -1.
        -11    1    6    6    0    0 -0.44986730528E+02  0.24320051953E+02  0.29242055370E+03  0.29685863820E+03  0.00000000000E+00 0.  1.
         12    1    6    6    0    0 -0.53127657615E+02  0.11398396136E+02  0.77983108830E+02  0.95046497573E+02  0.00000000000E+00 0. -1.
         -5    1    3    3    0  503  0.81114309136E+01 -0.17261235038E+02  0.10460603104E+03  0.10643428619E+03  0.47000000000E+01 0.  1.
         13    1    4    4    0    0 -0.43498276342E+01 -0.29722148968E+02  0.60535310336E+01  0.30642656179E+02  0.00000000000E+00 0. -1.
        -14    1    4    4    0    0  0.76860068235E+02  0.10515979621E+02 -0.15556658461E+02  0.79120575952E+02  0.00000000000E+00 0.  1.
<mgrwt>
<rscale>  2 0.19357088E+03</rscale>
<asrwt>0</asrwt>
<pdfrwt beam="1">  1       21 0.15343952E+00 0.19415665E+03</pdfrwt>
<pdfrwt beam="2">  1       21 0.10996376E-01 0.19415665E+03</pdfrwt>
<totfact> 0.19286535E+04</totfact>
</mgrwt>
</event>
<event>
12    1  0.1019868E-001  0.2059385E+03  0.7546771E-02  0.1145134E+00
         21   -1    0    0  501  502  0.00000000000E+00  0.00000000000E+00  0.14553291396E+03  0.14553291396E+03  0.00000000000E+00 0. -1.
         21   -1    0    0  502  503 -0.00000000000E+00 -0.00000000000E+00 -0.64633633127E+03  0.64633633127E+03  0.00000000000E+00 0. -1.
         -6    2    1    2    0  503  0.52153804418E+02 -0.95565925127E+02 -0.54510515617E+03  0.58270945664E+03  0.17480793522E+03 0.  0.
        -24    2    3    3    0    0 -0.49699341604E+01 -0.11349057420E+03 -0.43973454542E+03  0.46142685211E+03  0.81507415187E+02 0.  0.
          6    2    1    2  501    0 -0.52153804418E+02  0.95565925127E+02  0.44301738852E+02  0.20915978859E+03  0.17300955967E+03 0.  0.
         24    2    5    5    0    0 -0.76920815135E+02  0.29840520951E+02 -0.19712089610E+02  0.11401204134E+03  0.76176837693E+02 0.  0.
          5    1    5    5  501    0  0.24767010717E+02  0.65725404175E+02  0.64013828462E+02  0.95147747258E+02  0.47000000000E+01 0. -1.
        -11    1    6    6    0    0 -0.45233764554E+02  0.50714193221E+02 -0.30612629580E+02  0.74532918496E+02  0.00000000000E+00 0.  1.
         12    1    6    6    0    0 -0.31687050581E+02 -0.20873672269E+02  0.10900539970E+02  0.39479122839E+02  0.00000000000E+00 0. -1.
         -5    1    3    3    0  503  0.57123738579E+02  0.17924649070E+02 -0.10537061075E+03  0.12128260453E+03  0.47000000000E+01 0.  1.
         13    1    4    4    0    0  0.32809112253E+02 -0.80839380972E+02 -0.23444419604E+03  0.25015100323E+03  0.00000000000E+00 0. -1.
        -14    1    4    4    0    0 -0.37779046413E+02 -0.32651193225E+02 -0.20529034938E+03  0.21127584887E+03  0.00000000000E+00 0.  1.
<mgrwt>
<rscale>  2 0.20555639E+03</rscale>
<asrwt>0</asrwt>
<pdfrwt beam="1">  1       21 0.22389679E-01 0.20593853E+03</pdfrwt>
<pdfrwt beam="2">  1       21 0.99436359E-01 0.20593853E+03</pdfrwt>
<totfact> 0.15403931E+04</totfact>
</mgrwt>
</event>
<event>
12    1  0.1019868E-001  0.4519965E+03  0.7546771E-02  0.1027614E+00
         21   -1    0    0  503  502  0.00000000000E+00  0.00000000000E+00  0.80512693922E+03  0.80512693922E+03  0.00000000000E+00 0. -1.
         21   -1    0    0  501  503 -0.00000000000E+00 -0.00000000000E+00 -0.33640182544E+03  0.33640182544E+03  0.00000000000E+00 0. -1.
          6    2    1    2  501    0 -0.24391477419E+03 -0.33043564203E+03 -0.53444205973E+02  0.45514520712E+03  0.18872929244E+03 0.  0.
         24    2    3    3    0    0 -0.23458682594E+03 -0.21153218691E+03 -0.27452620826E+01  0.32546284452E+03  0.78368882188E+02 0.  0.
         -6    2    1    2    0  502  0.24391477419E+03  0.33043564203E+03  0.52216931975E+03  0.68638355754E+03  0.17256725930E+03 0.  0.
        -24    2    5    5    0    0  0.10524323796E+03  0.20339777874E+03  0.20537194664E+03  0.31793942435E+03  0.80380629256E+02 0.  0.
          5    1    3    3  501    0 -0.93279482473E+01 -0.11890345513E+03 -0.50698943891E+02  0.12968236261E+03  0.47000000000E+01 0. -1.
        -13    1    4    4    0    0 -0.15785320698E+03 -0.94954625891E+02 -0.17890214042E+02  0.18507856626E+03  0.00000000000E+00 0.  1.
         14    1    4    4    0    0 -0.76733618962E+02 -0.11657756101E+03  0.15144951959E+02  0.14038427825E+03  0.00000000000E+00 0. -1.
         -5    1    5    5    0  502  0.13867153623E+03  0.12703786330E+03  0.31679737311E+03  0.36844413319E+03  0.47000000000E+01 0.  1.
         13    1    6    6    0    0  0.77410141819E+02  0.18787849490E+03  0.20092231566E+03  0.28576290142E+03  0.00000000000E+00 0. -1.
        -14    1    6    6    0    0  0.27833096142E+02  0.15519283842E+02  0.44496309771E+01  0.32176522926E+02  0.00000000000E+00 0.  1.
<mgrwt>
<rscale>  2 0.45036112E+03</rscale>
<asrwt>0</asrwt>
<pdfrwt beam="1">  1       21 0.12386568E+00 0.45199654E+03</pdfrwt>
<pdfrwt beam="2">  1       21 0.51754127E-01 0.45199654E+03</pdfrwt>
<totfact> 0.14781754E+03</totfact>
</mgrwt>
</event>
<event>
12    1  0.1019868E-001  0.1913905E+03  0.7546771E-02  0.1158714E+00
         21   -1    0    0  501  502  0.00000000000E+00  0.00000000000E+00  0.99432137466E+02  0.99432137466E+02  0.00000000000E+00 0. -1.
         21   -1    0    0  502  503 -0.00000000000E+00 -0.00000000000E+00 -0.35593635583E+03  0.35593635583E+03  0.00000000000E+00 0. -1.
         -6    2    1    2    0  503 -0.98442144347E+01 -0.69178242230E+02 -0.12167210053E+03  0.22125306220E+03  0.17107390137E+03 0.  0.
        -24    2    3    3    0    0 -0.51342114518E+02 -0.69892111050E+01 -0.10767778517E+03  0.14504622415E+03  0.82213380456E+02 0.  0.
          6    2    1    2  501    0  0.98442144347E+01  0.69178242230E+02 -0.13483211783E+03  0.23411543109E+03  0.17817911584E+03 0.  0.
         24    2    5    5    0    0 -0.60730261773E+02  0.51566840189E+02 -0.48012541713E+02  0.12075473697E+03  0.77001289843E+02 0.  0.
          5    1    5    5  501    0  0.70574476208E+02  0.17611402041E+02 -0.86819576120E+02  0.11336069412E+03  0.47000000000E+01 0. -1.
        -13    1    6    6    0    0  0.78387563871E+00  0.49230756304E+02 -0.20833117703E+02  0.53463077170E+02  0.00000000000E+00 0.  1.
         14    1    6    6    0    0 -0.61514137412E+02  0.23360838849E+01 -0.27179424010E+02  0.67291659802E+02  0.00000000000E+00 0. -1.
         -5    1    3    3    0  503  0.41497900084E+02 -0.62189031125E+02 -0.13994315362E+02  0.76206838053E+02  0.47000000000E+01 0.  1.
         13    1    4    4    0    0 -0.71070220559E+02  0.47428399030E+01 -0.64244301527E+02  0.95920806186E+02  0.00000000000E+00 0. -1.
        -14    1    4    4    0    0  0.19728106041E+02 -0.11732051008E+02 -0.43433483645E+02  0.49125417966E+02  0.00000000000E+00 0.  1.
<mgrwt>
<rscale>  2 0.18971964E+03</rscale>
<asrwt>0</asrwt>
<pdfrwt beam="1">  1       21 0.15297252E-01 0.19139053E+03</pdfrwt>
<pdfrwt beam="2">  1       21 0.54759439E-01 0.19139053E+03</pdfrwt>
<totfact> 0.11922038E+05</totfact>
</mgrwt>
</event>
<event>
12    1  0.1019868E-001  0.1813317E+03  0.7546771E-02  0.1167585E+00
         21   -1    0    0  501  502  0.00000000000E+00  0.00000000000E+00  0.23239641367E+03  0.23239641367E+03  0.00000000000E+00 0. -1.
         21   -1    0    0  502  503 -0.00000000000E+00 -0.00000000000E+00 -0.54446874656E+03  0.54446874656E+03  0.00000000000E+00 0. -1.
         -6    2    1    2    0  503  0.14354452858E+02 -0.32461582982E+02 -0.49112541124E+03  0.52202953697E+03  0.17335184804E+03 0.  0.
        -24    2    3    3    0    0  0.55990016571E+02 -0.57592411629E+02 -0.23409859771E+03  0.26040012045E+03  0.80958640363E+02 0.  0.
          6    2    1    2  501    0 -0.14354452858E+02  0.32461582982E+02  0.17905307835E+03  0.25483562326E+03  0.17782402911E+03 0.  0.
         24    2    5    5    0    0 -0.67802690006E+02  0.49251776539E+02  0.78319343291E+02  0.13947531799E+03  0.79350504281E+02 0.  0.
          5    1    5    5  501    0  0.53448237149E+02 -0.16790193557E+02  0.10073373506E+03  0.11536030527E+03  0.47000000000E+01 0. -1.
        -11    1    6    6    0    0 -0.69132812614E+02  0.33234164900E+01  0.42546418709E+02  0.81244006684E+02  0.00000000000E+00 0.  1.
         12    1    6    6    0    0  0.13301226072E+01  0.45928360049E+02  0.35772924582E+02  0.58231311303E+02  0.00000000000E+00 0. -1.
         -5    1    3    3    0  503 -0.41635563713E+02  0.25130828648E+02 -0.25702681353E+03  0.26162941651E+03  0.47000000000E+01 0.  1.
         13    1    4    4    0    0  0.13725892930E+01  0.18245903914E+02 -0.60972113192E+02  0.63658429120E+02  0.00000000000E+00 0. -1.
        -14    1    4    4    0    0  0.54617427278E+02 -0.75838315543E+02 -0.17312648452E+03  0.19674169133E+03  0.00000000000E+00 0.  1.
<mgrwt>
<rscale>  2 0.18022576E+03</rscale>
<asrwt>0</asrwt>
<pdfrwt beam="1">  1       21 0.35753294E-01 0.18133171E+03</pdfrwt>
<pdfrwt beam="2">  1       21 0.83764422E-01 0.18133171E+03</pdfrwt>
<totfact> 0.94213885E+03</totfact>
</mgrwt>
</event>
<event>
12    1  0.1019868E-001  0.1842000E+03  0.7546771E-02  0.1163869E+00
         21   -1    0    0  503  502  0.00000000000E+00  0.00000000000E+00  0.81875129146E+02  0.81875129146E+02  0.00000000000E+00 0.  1.
         21   -1    0    0  501  503 -0.00000000000E+00 -0.00000000000E+00 -0.66911701236E+03  0.66911701236E+03  0.00000000000E+00 0.  1.
          6    2    1    2  501    0 -0.11000598725E+02 -0.62504878240E+02 -0.52574606025E+03  0.55708038574E+03  0.17292126338E+03 0.  0.
         24    2    3    3    0    0  0.11860816642E+02 -0.94400434884E+02 -0.32751849555E+03  0.35495114922E+03  0.98335305618E+02 0.  0.
         -6    2    1    2    0  502  0.11000598725E+02  0.62504878240E+02 -0.61495822965E+02  0.19391175577E+03  0.17260405501E+03 0.  0.
        -24    2    5    5    0    0 -0.25934437845E+02 -0.19473206826E+02 -0.56256770612E+02  0.10372228284E+03  0.80880695271E+02 0.  0.
          5    1    3    3  501    0 -0.22861415367E+02  0.31895556643E+02 -0.19822756471E+03  0.20212923652E+03  0.47000000000E+01 0. -1.
        -11    1    4    4    0    0  0.46367344832E+02 -0.38832030881E+02 -0.22781380313E+03  0.23570529520E+03  0.00000000000E+00 0.  1.
         12    1    4    4    0    0 -0.34506528190E+02 -0.55568404003E+02 -0.99704692415E+02  0.11924585402E+03  0.00000000000E+00 0. -1.
         -5    1    5    5    0  502  0.36935036570E+02  0.81978085067E+02 -0.52390523530E+01  0.90189472929E+02  0.47000000000E+01 0.  1.
         11    1    6    6    0    0  0.29116187921E+02 -0.23673392380E+01 -0.15043640039E+02  0.32858298795E+02  0.00000000000E+00 0. -1.
        -12    1    6    6    0    0 -0.55050625766E+02 -0.17105867588E+02 -0.41213130573E+02  0.70863984046E+02  0.00000000000E+00 0.  1.
<mgrwt>
<rscale>  2 0.18412551E+03</rscale>
<asrwt>0</asrwt>
<pdfrwt beam="1">  1       21 0.12596174E-01 0.18419999E+03</pdfrwt>
<pdfrwt beam="2">  1       21 0.10294108E+00 0.18419999E+03</pdfrwt>
<totfact> 0.41398676E+04</totfact>
</mgrwt>
</event>
<event>
12    1  0.1019868E-001  0.1859533E+03  0.7546771E-02  0.1162450E+00
         21   -1    0    0  501  502  0.00000000000E+00  0.00000000000E+00  0.42392990127E+03  0.42392990127E+03  0.00000000000E+00 0. -1.
         21   -1    0    0  502  503 -0.00000000000E+00 -0.00000000000E+00 -0.23412438735E+03  0.23412438735E+03  0.00000000000E+00 0. -1.
         -6    2    1    2    0  503 -0.36025405682E+02  0.53804393052E+02 -0.17105524304E+03  0.25266286442E+03  0.17431547356E+03 0.  0.
        -24    2    3    3    0    0  0.21687590251E+02  0.31276447456E+02 -0.16800993151E+03  0.19045625582E+03  0.81226107599E+02 0.  0.
          6    2    1    2  501    0  0.36025405682E+02 -0.53804393052E+02  0.36086075696E+03  0.40539142419E+03  0.17299993736E+03 0.  0.
         24    2    5    5    0    0  0.87706970230E+02 -0.50958537194E+02  0.29397584526E+03  0.32068744304E+03  0.78290187035E+02 0.  0.
          5    1    5    5  501    0 -0.51681564548E+02 -0.28458558577E+01  0.66884911705E+02  0.84703981155E+02  0.47000000000E+01 0. -1.
        -13    1    6    6    0    0  0.13829941560E+02 -0.26599234220E+02  0.20387722705E+02  0.36255286259E+02  0.00000000000E+00 0.  1.
         14    1    6    6    0    0  0.73877028670E+02 -0.24359302974E+02  0.27358812256E+03  0.28443215678E+03  0.00000000000E+00 0. -1.
         -5    1    3    3    0  503 -0.57712995933E+02  0.22527945596E+02 -0.30453115286E+01  0.62206608609E+02  0.47000000000E+01 0.  1.
         13    1    4    4    0    0 -0.10082366126E+02  0.46245489652E+02 -0.57362913501E+02  0.74369370477E+02  0.00000000000E+00 0. -1.
        -14    1    4    4    0    0  0.31769956376E+02 -0.14969042196E+02 -0.11064701801E+03  0.11608688534E+03  0.00000000000E+00 0.  1.
<mgrwt>
<rscale>  2 0.18564436E+03</rscale>
<asrwt>0</asrwt>
<pdfrwt beam="1">  1       21 0.65219985E-01 0.18595329E+03</pdfrwt>
<pdfrwt beam="2">  1       21 0.36019136E-01 0.18595329E+03</pdfrwt>
<totfact> 0.16148395E+04</totfact>
</mgrwt>
</event>
<event>
12    1  0.1019868E-001  0.2969882E+03  0.7546771E-02  0.1086810E+00
         21   -1    0    0  503  502  0.00000000000E+00  0.00000000000E+00  0.12388073630E+03  0.12388073630E+03  0.00000000000E+00 0. -1.
         21   -1    0    0  501  503 -0.00000000000E+00 -0.00000000000E+00 -0.97496090048E+03  0.97496090048E+03  0.00000000000E+00 0. -1.
          6    2    1    2  501    0 -0.10143011339E+02  0.24135175570E+03 -0.71166392412E+03  0.77114689491E+03  0.17276701648E+03 0.  0.
         24    2    3    3    0    0  0.59202710674E+02  0.14253948833E+03 -0.41102711178E+03  0.44714492535E+03  0.84692567369E+02 0.  0.
         -6    2    1    2    0  502  0.10143011339E+02 -0.24135175570E+03 -0.13941624007E+03  0.32769474187E+03  0.17202733851E+03 0.  0.
        -24    2    5    5    0    0  0.32821916078E+02 -0.69385279841E+02 -0.10378722177E+02  0.11145512348E+03  0.80143193358E+02 0.  0.
          5    1    3    3  501    0 -0.69345722013E+02  0.98812267372E+02 -0.30063681234E+03  0.32400196956E+03  0.47000000000E+01 0. -1.
        -11    1    4    4    0    0  0.23330612532E+02  0.13131997763E+03 -0.26930645986E+03  0.30052491299E+03  0.00000000000E+00 0.  1.
         12    1    4    4    0    0  0.35872098142E+02  0.11219510705E+02 -0.14172065191E+03  0.14662001236E+03  0.00000000000E+00 0. -1.
         -5    1    5    5    0  502 -0.22678904739E+02 -0.17196647586E+03 -0.12903751789E+03  0.21623961839E+03  0.47000000000E+01 0.  1.
         11    1    6    6    0    0 -0.85339877189E+01 -0.46744879195E+02  0.23874799356E+02  0.53178178999E+02  0.00000000000E+00 0. -1.
        -12    1    6    6    0    0  0.41355903797E+02 -0.22640400647E+02 -0.34253521533E+02  0.58276944478E+02  0.00000000000E+00 0.  1.
<mgrwt>
<rscale>  2 0.29688072E+03</rscale>
<asrwt>0</asrwt>
<pdfrwt beam="1">  1       21 0.19058575E-01 0.29698820E+03</pdfrwt>
<pdfrwt beam="2">  1       21 0.14999398E+00 0.29698820E+03</pdfrwt>
<totfact> 0.70512099E+03</totfact>
</mgrwt>
</event>
<event>
12    1  0.1019868E-001  0.2085238E+03  0.7546771E-02  0.1143544E+00
         21   -1    0    0  501  502  0.00000000000E+00  0.00000000000E+00  0.73726918337E+02  0.73726918337E+02  0.00000000000E+00 0. -1.
         21   -1    0    0  502  503 -0.00000000000E+00 -0.00000000000E+00 -0.11815837774E+04  0.11815837774E+04  0.00000000000E+00 0. -1.
         -6    2    1    2    0  503  0.10145797745E+03 -0.44344508713E+02 -0.99969172976E+03  0.10204025082E+04  0.17198129990E+03 0.  0.
        -24    2    3    3    0    0  0.53668565801E+02  0.36170685120E+02 -0.38430806574E+03  0.39791903993E+03  0.80363172729E+02 0.  0.
          6    2    1    2  501    0 -0.10145797745E+03  0.44344508713E+02 -0.10816512935E+03  0.23490818760E+03  0.17669749504E+03 0.  0.
         24    2    5    5    0    0  0.90317169875E+00  0.47084818753E+02 -0.92746832170E+02  0.13124947816E+03  0.80041581465E+02 0.  0.
          5    1    5    5  501    0 -0.10236114915E+03 -0.27403100402E+01 -0.15418297176E+02  0.10365870944E+03  0.47000000000E+01 0. -1.
        -11    1    6    6    0    0 -0.62528563683E+01 -0.16248022993E+01 -0.80178114562E+02  0.80437977659E+02  0.00000000000E+00 0.  1.
         12    1    6    6    0    0  0.71560280670E+01  0.48709621052E+02 -0.12568717609E+02  0.50811500500E+02  0.00000000000E+00 0. -1.
         -5    1    3    3    0  503  0.47789411649E+02 -0.80515193832E+02 -0.61538366402E+03  0.62248346825E+03  0.47000000000E+01 0.  1.
         13    1    4    4    0    0  0.60242754999E+02  0.32906513723E+02 -0.16795092940E+03  0.18143743511E+03  0.00000000000E+00 0. -1.
        -14    1    4    4    0    0 -0.65741891981E+01  0.32641713963E+01 -0.21635713634E+03  0.21648160482E+03  0.00000000000E+00 0.  1.
<mgrwt>
<rscale>  2 0.20752130E+03</rscale>
<asrwt>0</asrwt>
<pdfrwt beam="1">  1       21 0.11342603E-01 0.20852377E+03</pdfrwt>
<pdfrwt beam="2">  1       21 0.18178212E+00 0.20852377E+03</pdfrwt>
<totfact> 0.11342089E+04</totfact>
</mgrwt>
</event>
<event>
12    1  0.1019868E-001  0.2907451E+03  0.7546771E-02  0.1089984E+00
         21   -1    0    0  501  502  0.00000000000E+00  0.00000000000E+00  0.64573404880E+02  0.64573404880E+02  0.00000000000E+00 0. -1.
         21   -1    0    0  502  503 -0.00000000000E+00 -0.00000000000E+00 -0.14375090383E+04  0.14375090383E+04  0.00000000000E+00 0.  1.
         -6    2    1    2    0  503  0.11483523507E+03  0.20358319545E+03 -0.91144187055E+03  0.95663841893E+03  0.17261961795E+03 0.  0.
        -24    2    3    3    0    0  0.11714576228E+03  0.12254562774E+03 -0.77218061197E+03  0.79542981476E+03  0.87778882495E+02 0.  0.
          6    2    1    2  501    0 -0.11483523507E+03 -0.20358319545E+03 -0.46149376289E+03  0.54544402427E+03  0.17291455039E+03 0.  0.
         24    2    5    5    0    0 -0.33661068612E+02 -0.34570493513E+02 -0.22364440338E+03  0.24254313860E+03  0.80511914381E+02 0.  0.
          5    1    5    5  501    0 -0.81174166462E+02 -0.16901270194E+03 -0.23784935951E+03  0.30290088567E+03  0.47000000000E+01 0. -1.
        -11    1    6    6    0    0 -0.58294005291E+02 -0.28341938959E+02 -0.18729390611E+03  0.19819299641E+03  0.00000000000E+00 0.  1.
         12    1    6    6    0    0  0.24632936679E+02 -0.62285545534E+01 -0.36350497268E+02  0.44350142197E+02  0.00000000000E+00 0. -1.
         -5    1    3    3    0  503 -0.23105272042E+01  0.81037567714E+02 -0.13926125857E+03  0.16120860416E+03  0.47000000000E+01 0.  1.
         11    1    4    4    0    0  0.49523680749E+02  0.12754432714E+02 -0.11711081737E+03  0.12778972593E+03  0.00000000000E+00 0. -1.
        -12    1    4    4    0    0  0.67622081529E+02  0.10979119502E+03 -0.65506979460E+03  0.66764008883E+03  0.00000000000E+00 0.  1.
<mgrwt>
<rscale>  2 0.29070122E+03</rscale>
<asrwt>0</asrwt>
<pdfrwt beam="1">  1       21 0.99343701E-02 0.29074506E+03</pdfrwt>
<pdfrwt beam="2">  1       21 0.22115523E+00 0.29074506E+03</pdfrwt>
<totfact> 0.75436848E+03</totfact>
</mgrwt>
</event>
<event>
12    1  0.1019868E-001  0.2145798E+03  0.7546771E-02  0.1138163E+00
         21   -1    0    0  501  502  0.00000000000E+00  0.00000000000E+00  0.29821929142E+04  0.29821929142E+04  0.00000000000E+00 0. -1.
         21   -1    0    0  502  503 -0.00000000000E+00 -0.00000000000E+00 -0.15375369608E+02  0.15375369608E+02  0.00000000000E+00 0.  1.
         -6    2    1    2    0  503 -0.74407331590E+01 -0.12662163112E+03  0.14828513263E+04  0.14981683213E+04  0.17196470838E+03 0.  0.
        -24    2    3    3    0    0 -0.54646588490E+02 -0.11389615759E+03  0.86304540000E+03  0.87641933112E+03  0.85468691090E+02 0.  0.
          6    2    1    2  501    0  0.74407331590E+01  0.12662163112E+03  0.14839662183E+04  0.14993999625E+04  0.17307833109E+03 0.  0.
         24    2    5    5    0    0 -0.41196816138E+01  0.11894320442E+03  0.66623429420E+03  0.68153677649E+03  0.80372789513E+02 0.  0.
          5    1    5    5  501    0  0.11560414773E+02  0.76784266945E+01  0.81773192408E+03  0.81786318604E+03  0.47000000000E+01 0. -1.
        -13    1    6    6    0    0  0.21746697608E+02  0.72916406262E+02  0.52992014834E+03  0.53535510157E+03  0.00000000000E+00 0.  1.
         14    1    6    6    0    0 -0.25866379222E+02  0.46026798162E+02  0.13631414585E+03  0.14618167492E+03  0.00000000000E+00 0. -1.
         -5    1    3    3    0  503  0.47205855331E+02 -0.12725473524E+02  0.61980592633E+03  0.62174899016E+03  0.47000000000E+01 0.  1.
         11    1    4    4    0    0 -0.36860405240E+02 -0.43619896053E+02  0.62440995420E+03  0.62701608888E+03  0.00000000000E+00 0. -1.
        -12    1    4    4    0    0 -0.17786183249E+02 -0.70276261542E+02  0.23863544580E+03  0.24940324225E+03  0.00000000000E+00 0.  1.
<mgrwt>
<rscale>  2 0.21435519E+03</rscale>
<asrwt>0</asrwt>
<pdfrwt beam="1">  1       21 0.45879845E+00 0.21457985E+03</pdfrwt>
<pdfrwt beam="2">  1       21 0.23654438E-02 0.21457985E+03</pdfrwt>
<totfact> 0.33000008E+03</totfact>
</mgrwt>
</event>
<event>
12    1  0.1019868E-001  0.3000283E+03  0.7546771E-02  0.1085321E+00
         21   -1    0    0  501  502  0.00000000000E+00  0.00000000000E+00  0.11108049774E+03  0.11108049774E+03  0.00000000000E+00 0. -1.
         21   -1    0    0  502  503 -0.00000000000E+00 -0.00000000000E+00 -0.80833329805E+03  0.80833329805E+03  0.00000000000E+00 0. -1.
         -6    2    1    2    0  503 -0.22420445562E+03  0.10440480674E+03 -0.34872092733E+03  0.45953181444E+03  0.16850875861E+03 0.  0.
        -24    2    3    3    0    0 -0.20242449100E+03  0.43108216737E+02 -0.31657572205E+03  0.38681975885E+03  0.81088501883E+02 0.  0.
          6    2    1    2  501    0  0.22420445562E+03 -0.10440480674E+03 -0.34853187298E+03  0.45988198135E+03  0.16984984160E+03 0.  0.
         24    2    5    5    0    0  0.16875335628E+03 -0.10309114208E+02 -0.18276230325E+03  0.26131092600E+03  0.79355954209E+02 0.  0.
          5    1    5    5  501    0  0.55451099349E+02 -0.94095692536E+02 -0.16576956973E+03  0.19857105534E+03  0.47000000000E+01 0. -1.
        -13    1    6    6    0    0 -0.79486511611E+01 -0.10789821691E+01 -0.17249064061E+02  0.19023024701E+02  0.00000000000E+00 0.  1.
         14    1    6    6    0    0  0.17670200744E+03 -0.92301320393E+01 -0.16551323919E+03  0.24228790130E+03  0.00000000000E+00 0. -1.
         -5    1    3    3    0  503 -0.21779964624E+02  0.61296590007E+02 -0.32145205285E+02  0.72712055591E+02  0.47000000000E+01 0.  1.
         11    1    4    4    0    0 -0.55911009577E+02  0.31675146789E+02 -0.46397137435E+02  0.79259386057E+02  0.00000000000E+00 0. -1.
        -12    1    4    4    0    0 -0.14651348142E+03  0.11433069948E+02 -0.27017858461E+03  0.30756037279E+03  0.00000000000E+00 0.  1.
<mgrwt>
<rscale>  2 0.29983881E+03</rscale>
<asrwt>0</asrwt>
<pdfrwt beam="1">  1       21 0.17089307E-01 0.30002828E+03</pdfrwt>
<pdfrwt beam="2">  1       21 0.12435897E+00 0.30002828E+03</pdfrwt>
<totfact> 0.14057709E+04</totfact>
</mgrwt>
</event>
<event>
12    1  0.1019868E-001  0.2631261E+03  0.7546771E-02  0.1105400E+00
         21   -1    0    0  503  502  0.00000000000E+00  0.00000000000E+00  0.52038462606E+03  0.52038462606E+03  0.00000000000E+00 0. -1.
         21   -1    0    0  501  503 -0.00000000000E+00 -0.00000000000E+00 -0.27351397297E+03  0.27351397297E+03  0.00000000000E+00 0.  1.
          6    2    1    2  501    0 -0.19660446163E+03 -0.16132461660E+02 -0.16154169261E+03  0.30806323513E+03  0.17289785347E+03 0.  0.
         24    2    3    3    0    0 -0.21448266356E+03 -0.39200100359E+02 -0.14101906198E+03  0.27207692624E+03  0.81240489383E+02 0.  0.
         -6    2    1    2    0  502  0.19660446163E+03  0.16132461660E+02  0.40841234571E+03  0.48583536390E+03  0.17413151938E+03 0.  0.
        -24    2    5    5    0    0  0.22288127695E+02  0.89852894359E+01  0.98126415863E+02  0.12983436024E+03  0.81551649570E+02 0.  0.
          5    1    3    3  501    0  0.17878201929E+02  0.23067638699E+02 -0.20522630628E+02  0.35986308887E+02  0.47000000000E+01 0. -1.
        -11    1    4    4    0    0 -0.14542282272E+03 -0.86426172131E+01 -0.13096237645E+03  0.19589189938E+03  0.00000000000E+00 0.  1.
         12    1    4    4    0    0 -0.69059840842E+02 -0.30557483146E+02 -0.10056685534E+02  0.76185026858E+02  0.00000000000E+00 0. -1.
         -5    1    5    5    0  502  0.17431633394E+03  0.71471722242E+01  0.31028592984E+03  0.35600100366E+03  0.47000000000E+01 0.  1.
         13    1    6    6    0    0  0.29268756345E+02  0.14357504577E+02  0.11018192834E+03  0.11490367865E+03  0.00000000000E+00 0. -1.
        -14    1    6    6    0    0 -0.69806286495E+01 -0.53722151409E+01 -0.12055512473E+02  0.14930681594E+02  0.00000000000E+00 0.  1.
<mgrwt>
<rscale>  2 0.26292219E+03</rscale>
<asrwt>0</asrwt>
<pdfrwt beam="1">  1       21 0.80059173E-01 0.26312612E+03</pdfrwt>
<pdfrwt beam="2">  1       21 0.42079073E-01 0.26312612E+03</pdfrwt>
<totfact> 0.71308629E+03</totfact>
</mgrwt>
</event>
<event>
12    1  0.1019868E-001  0.3016795E+03  0.7546771E-02  0.1085307E+00
         21   -1    0    0  503  502  0.00000000000E+00  0.00000000000E+00  0.30549028443E+04  0.30549028443E+04  0.00000000000E+00 0.  1.
         21   -1    0    0  501  503 -0.00000000000E+00 -0.00000000000E+00 -0.30093014089E+02  0.30093014089E+02  0.00000000000E+00 0.  1.
          6    2    1    2  501    0 -0.62085389567E+02  0.23932438839E+03  0.12478956182E+04  0.12838434410E+04  0.17285759652E+03 0.  0.
         24    2    3    3    0    0 -0.83366302824E+02  0.17656144590E+03  0.11196840900E+04  0.11394400124E+04  0.80667192715E+02 0.  0.
         -6    2    1    2    0  502  0.62085389567E+02 -0.23932438839E+03  0.17769142120E+04  0.18011524174E+04  0.15998485941E+03 0.  0.
        -24    2    5    5    0    0  0.30991958441E+02 -0.38088741589E+02  0.48803154011E+03  0.49627571095E+03  0.75521807539E+02 0.  0.
          5    1    3    3  501    0  0.21280913257E+02  0.62762942484E+02  0.12821152823E+03  0.14440342859E+03  0.47000000000E+01 0. -1.
        -11    1    4    4    0    0 -0.60408189439E+02  0.14005946466E+03  0.64451052459E+03  0.66231383747E+03  0.00000000000E+00 0.  1.
         12    1    4    4    0    0 -0.22958113385E+02  0.36501981245E+02  0.47517356536E+03  0.47712617495E+03  0.00000000000E+00 0. -1.
         -5    1    5    5    0  502  0.31093431126E+02 -0.20123564680E+03  0.12888826719E+04  0.13048767064E+04  0.47000000000E+01 0.  1.
         11    1    6    6    0    0 -0.50407269730E+01 -0.15641451933E+02  0.18166104579E+02  0.24496352842E+02  0.00000000000E+00 0. -1.
        -12    1    6    6    0    0  0.36032685414E+02 -0.22447289656E+02  0.46986543553E+03  0.47177935811E+03  0.00000000000E+00 0.  1.
<mgrwt>
<rscale>  2 0.29986649E+03</rscale>
<asrwt>0</asrwt>
<pdfrwt beam="1">  1       21 0.46998481E+00 0.30167948E+03</pdfrwt>
<pdfrwt beam="2">  1       21 0.46296969E-02 0.30167948E+03</pdfrwt>
<totfact> 0.81574811E+02</totfact>
</mgrwt>
</event>
<event>
12    1  0.1019868E-001  0.2095408E+03  0.7546771E-02  0.1141945E+00
         21   -1    0    0  503  502  0.00000000000E+00  0.00000000000E+00  0.94493115934E+02  0.94493115934E+02  0.00000000000E+00 0. -1.
         21   -1    0    0  501  503 -0.00000000000E+00 -0.00000000000E+00 -0.46601339040E+03  0.46601339040E+03  0.00000000000E+00 0.  1.
          6    2    1    2  501    0  0.16960014850E+02 -0.11719946798E+03 -0.16972769754E+03  0.26959827936E+03  0.17277842319E+03 0.  0.
         24    2    3    3    0    0  0.60523544443E+02 -0.49320849287E+02 -0.45204075627E+02  0.12116138906E+03  0.80876622946E+02 0.  0.
         -6    2    1    2    0  502 -0.16960014850E+02  0.11719946798E+03 -0.20179257692E+03  0.29090822698E+03  0.17286987888E+03 0.  0.
        -24    2    5    5    0    0 -0.45228188979E+02  0.19957997837E+02 -0.15048091175E+03  0.17728617732E+03  0.79636506162E+02 0.  0.
          5    1    3    3  501    0 -0.43563529594E+02 -0.67878618694E+02 -0.12452362191E+03  0.14843689030E+03  0.47000000000E+01 0. -1.
        -11    1    4    4    0    0  0.45760621048E+02 -0.54169017438E+02 -0.64863942730E+02  0.96102278618E+02  0.00000000000E+00 0.  1.
         12    1    4    4    0    0  0.14762923395E+02  0.48481681516E+01  0.19659867104E+02  0.25059110442E+02  0.00000000000E+00 0. -1.
         -5    1    5    5    0  502  0.28268174130E+02  0.97241470144E+02 -0.51311665176E+02  0.11362204965E+03  0.47000000000E+01 0.  1.
         13    1    6    6    0    0  0.11986679799E+02  0.22486219686E+02 -0.13548117880E+02  0.28859349724E+02  0.00000000000E+00 0. -1.
        -14    1    6    6    0    0 -0.57214868778E+02 -0.25282218492E+01 -0.13693279387E+03  0.14842682760E+03  0.00000000000E+00 0.  1.
<mgrwt>
<rscale>  2 0.20952195E+03</rscale>
<asrwt>0</asrwt>
<pdfrwt beam="1">  1       21 0.14537402E-01 0.20954081E+03</pdfrwt>
<pdfrwt beam="2">  1       21 0.71694368E-01 0.20954081E+03</pdfrwt>
<totfact> 0.72436564E+04</totfact>
</mgrwt>
</event>
<event>
12    1  0.1019868E-001  0.2026374E+03  0.7546771E-02  0.1147705E+00
         21   -1    0    0  501  502  0.00000000000E+00  0.00000000000E+00  0.64770752734E+02  0.64770752734E+02  0.00000000000E+00 0. -1.
         21   -1    0    0  502  503 -0.00000000000E+00 -0.00000000000E+00 -0.63316274152E+03  0.63316274152E+03  0.00000000000E+00 0.  1.
         -6    2    1    2    0  503 -0.86075523763E+02 -0.60754229650E+02 -0.26499389031E+03  0.33308787871E+03  0.17212118067E+03 0.  0.
        -24    2    3    3    0    0 -0.10277172706E+03 -0.80620162738E+02 -0.26567976686E+03  0.30670646616E+03  0.80134133433E+02 0.  0.
          6    2    1    2  501    0  0.86075523763E+02  0.60754229650E+02 -0.30339809848E+03  0.36484561554E+03  0.17309490116E+03 0.  0.
         24    2    5    5    0    0  0.28850592235E+01 -0.21232581458E+02 -0.15574198777E+03  0.17651901727E+03  0.80276089974E+02 0.  0.
          5    1    5    5  501    0  0.83190464540E+02  0.81986811109E+02 -0.14765611071E+03  0.18832659827E+03  0.47000000000E+01 0. -1.
        -11    1    6    6    0    0 -0.33449011873E+02  0.98556837281E+01 -0.74306338501E+02  0.82081683940E+02  0.00000000000E+00 0.  1.
         12    1    6    6    0    0  0.36334071096E+02 -0.31088265186E+02 -0.81435649270E+02  0.94437333331E+02  0.00000000000E+00 0. -1.
         -5    1    3    3    0  503  0.16696203292E+02  0.19865933088E+02  0.68587655439E+00  0.26381412557E+02  0.47000000000E+01 0.  1.
         13    1    4    4    0    0 -0.63190571622E+02 -0.16579240564E+02 -0.18575041547E+03  0.19690387606E+03  0.00000000000E+00 0. -1.
        -14    1    4    4    0    0 -0.39581155434E+02 -0.64040922174E+02 -0.79929351389E+02  0.10980259010E+03  0.00000000000E+00 0.  1.
<mgrwt>
<rscale>  2 0.20242930E+03</rscale>
<asrwt>0</asrwt>
<pdfrwt beam="1">  1       21 0.99647313E-02 0.20263740E+03</pdfrwt>
<pdfrwt beam="2">  1       21 0.97409651E-01 0.20263740E+03</pdfrwt>
<totfact> 0.70985172E+04</totfact>
</mgrwt>
</event>
<event>
12    1  0.1019868E-001  0.2044783E+03  0.7546771E-02  0.1146223E+00
         21   -1    0    0  501  502  0.00000000000E+00  0.00000000000E+00  0.30479454368E+03  0.30479454368E+03  0.00000000000E+00 0.  1.
         21   -1    0    0  502  503 -0.00000000000E+00 -0.00000000000E+00 -0.25768136732E+03  0.25768136732E+03  0.00000000000E+00 0.  1.
         -6    2    1    2    0  503  0.41190485897E+02  0.10041822292E+03 -0.16927633426E+03  0.26545407427E+03  0.17329429473E+03 0.  0.
        -24    2    3    3    0    0  0.12298217689E+02  0.41075718450E+02 -0.87181966039E+01  0.91795496693E+02  0.80696626055E+02 0.  0.
          6    2    1    2  501    0 -0.41190485897E+02 -0.10041822292E+03  0.21638951062E+03  0.29702183673E+03  0.17209612304E+03 0.  0.
         24    2    5    5    0    0 -0.40771567611E+02 -0.10867022034E+03  0.23617471760E+03  0.27507154359E+03  0.80089445881E+02 0.  0.
          5    1    5    5  501    0 -0.41891828553E+00  0.82519974168E+01 -0.19785206980E+02  0.21950293145E+02  0.47000000000E+01 0. -1.
        -11    1    6    6    0    0 -0.20790977705E+02 -0.72509251203E+02  0.66886409166E+02  0.10081491951E+03  0.00000000000E+00 0.  1.
         12    1    6    6    0    0 -0.19980589906E+02 -0.36160969137E+02  0.16928830844E+03  0.17425662408E+03  0.00000000000E+00 0. -1.
         -5    1    3    3    0  503  0.28892268207E+02  0.59342504473E+02 -0.16055813766E+03  0.17365857758E+03  0.47000000000E+01 0.  1.
         13    1    4    4    0    0  0.45553855203E+02  0.35292865180E+02 -0.54784460348E+01  0.57885692770E+02  0.00000000000E+00 0. -1.
        -14    1    4    4    0    0 -0.33255637514E+02  0.57828532699E+01 -0.32397505692E+01  0.33909803924E+02  0.00000000000E+00 0.  1.
<mgrwt>
<rscale>  2 0.20422425E+03</rscale>
<asrwt>0</asrwt>
<pdfrwt beam="1">  1       21 0.46891468E-01 0.20447833E+03</pdfrwt>
<pdfrwt beam="2">  1       21 0.39643287E-01 0.20447833E+03</pdfrwt>
<totfact> 0.26523554E+04</totfact>
</mgrwt>
</event>
<event>
12    1  0.1019868E-001  0.2071546E+03  0.7546771E-02  0.1144306E+00
         21   -1    0    0  501  502  0.00000000000E+00  0.00000000000E+00  0.86229970195E+03  0.86229970195E+03  0.00000000000E+00 0. -1.
         21   -1    0    0  502  503 -0.00000000000E+00 -0.00000000000E+00 -0.64504686443E+02  0.64504686443E+02  0.00000000000E+00 0. -1.
         -6    2    1    2    0  503 -0.75208998475E+02  0.79164584565E+02  0.17158069037E+03  0.26721556598E+03  0.17332282161E+03 0.  0.
        -24    2    3    3    0    0 -0.24177007431E+02  0.93153423675E+02  0.50883076049E+02  0.13534458421E+03  0.80417541716E+02 0.  0.
          6    2    1    2  501    0  0.75208998475E+02 -0.79164584565E+02  0.62621432514E+03  0.65958882242E+03  0.17603865698E+03 0.  0.
         24    2    5    5    0    0  0.17522943624E+02 -0.78144931130E+02  0.20602943762E+03  0.23543537104E+03  0.81043204261E+02 0.  0.
          5    1    5    5  501    0  0.57686054850E+02 -0.10196534351E+01  0.42018488751E+03  0.42415345137E+03  0.47000000000E+01 0. -1.
        -13    1    6    6    0    0  0.48975493255E+02 -0.40575815305E+02  0.98210585461E+02  0.11700561877E+03  0.00000000000E+00 0.  1.
         14    1    6    6    0    0 -0.31452549630E+02 -0.37569115824E+02  0.10781885216E+03  0.11842975227E+03  0.00000000000E+00 0. -1.
         -5    1    3    3    0  503 -0.51031991043E+02 -0.13988839110E+02  0.12069761432E+03  0.13187098177E+03  0.47000000000E+01 0.  1.
         11    1    4    4    0    0  0.20910796309E+02 -0.10740342109E+01  0.76451874847E+01  0.22290442872E+02  0.00000000000E+00 0. -1.
        -12    1    4    4    0    0 -0.45087803740E+02  0.94227457886E+02  0.43237888564E+02  0.11305414134E+03  0.00000000000E+00 0.  1.
<mgrwt>
<rscale>  2 0.20657647E+03</rscale>
<asrwt>0</asrwt>
<pdfrwt beam="1">  1       21 0.13266148E+00 0.20715461E+03</pdfrwt>
<pdfrwt beam="2">  1       21 0.99237985E-02 0.20715461E+03</pdfrwt>
<totfact> 0.33489342E+04</totfact>
</mgrwt>
</event>
<event>
12    1  0.1019868E-001  0.2318442E+03  0.7546771E-02  0.1125799E+00
         21   -1    0    0  501  502  0.00000000000E+00  0.00000000000E+00  0.55451351901E+03  0.55451351901E+03  0.00000000000E+00 0.  1.
         21   -1    0    0  502  503 -0.00000000000E+00 -0.00000000000E+00 -0.21048173509E+03  0.21048173509E+03  0.00000000000E+00 0. -1.
         -6    2    1    2    0  503 -0.14657397159E+03 -0.49895245971E+02 -0.10980498377E+03  0.25653240697E+03  0.17256383354E+03 0.  0.
        -24    2    3    3    0    0 -0.44200939269E+02 -0.76360820265E+02 -0.89206174848E+02  0.14870353654E+03  0.79814173210E+02 0.  0.
          6    2    1    2  501    0  0.14657397159E+03  0.49895245971E+02  0.45383676770E+03  0.50846284713E+03  0.16909521129E+03 0.  0.
         24    2    5    5    0    0  0.79464025735E+02 -0.36896662089E+02  0.22066421429E+03  0.25072633477E+03  0.80592210690E+02 0.  0.
          5    1    5    5  501    0  0.67109945851E+02  0.86791908060E+02  0.23317255341E+03  0.25773651236E+03  0.47000000000E+01 0. -1.
        -13    1    6    6    0    0  0.32295810139E+02  0.23239817669E+02  0.51345078141E+02  0.64957105286E+02  0.00000000000E+00 0.  1.
         14    1    6    6    0    0  0.47168215596E+02 -0.60136479757E+02  0.16931913614E+03  0.18576922949E+03  0.00000000000E+00 0. -1.
         -5    1    3    3    0  503 -0.10237303232E+03  0.26465574295E+02 -0.20598808922E+02  0.10782887043E+03  0.47000000000E+01 0.  1.
         13    1    4    4    0    0 -0.58508825371E+02 -0.41112715839E+02 -0.28324989753E+02  0.76914518100E+02  0.00000000000E+00 0. -1.
        -14    1    4    4    0    0  0.14307886102E+02 -0.35248104426E+02 -0.60881185095E+02  0.71789018442E+02  0.00000000000E+00 0.  1.
<mgrwt>
<rscale>  2 0.23119902E+03</rscale>
<asrwt>0</asrwt>
<pdfrwt beam="1">  1       21 0.85309771E-01 0.23184422E+03</pdfrwt>
<pdfrwt beam="2">  1       21 0.32381806E-01 0.23184422E+03</pdfrwt>
<totfact> 0.10629496E+04</totfact>
</mgrwt>
</event>
<event>
12    1  0.1019868E-001  0.1961705E+03  0.7546771E-02  0.1153324E+00
         21   -1    0    0  501  502  0.00000000000E+00  0.00000000000E+00  0.11902664891E+04  0.11902664891E+04  0.00000000000E+00 0.  1.
         21   -1    0    0  502  503 -0.00000000000E+00 -0.00000000000E+00 -0.92221122153E+02  0.92221122153E+02  0.00000000000E+00 0.  1.
         -6    2    1    2    0  503 -0.64992269585E+02  0.61322004658E+02  0.30542992729E+02  0.19711016595E+03  0.17301780185E+03 0.  0.
        -24    2    3    3    0    0 -0.10096612438E+01 -0.45137929170E+00 -0.34214703745E+02  0.86994888235E+02  0.79976505722E+02 0.  0.
          6    2    1    2  501    0  0.64992269585E+02 -0.61322004658E+02  0.10675023742E+04  0.10853774453E+04  0.17463818723E+03 0.  0.
         24    2    5    5    0    0  0.37858108800E+02 -0.10897548082E+03  0.73248819648E+03  0.74587235585E+03  0.80484293034E+02 0.  0.
          5    1    5    5  501    0  0.27134160785E+02  0.47653476160E+02  0.33501417770E+03  0.33950508940E+03  0.47000000000E+01 0. -1.
        -13    1    6    6    0    0 -0.12476471719E+00 -0.33710403868E+02  0.44506935800E+03  0.44634419490E+03  0.00000000000E+00 0.  1.
         14    1    6    6    0    0  0.37982873517E+02 -0.75265076949E+02  0.28741883848E+03  0.29952816095E+03  0.00000000000E+00 0. -1.
         -5    1    3    3    0  503 -0.63982608341E+02  0.61773383949E+02  0.64757696474E+02  0.11011527772E+03  0.47000000000E+01 0.  1.
         11    1    4    4    0    0  0.16195958445E+02  0.44053167797E+01 -0.56203026746E+02  0.58655742270E+02  0.00000000000E+00 0. -1.
        -12    1    4    4    0    0 -0.17205619689E+02 -0.48566960714E+01  0.21988323001E+02  0.28339145964E+02  0.00000000000E+00 0.  1.
<mgrwt>
<rscale>  2 0.19580926E+03</rscale>
<asrwt>0</asrwt>
<pdfrwt beam="1">  1       21 0.18311791E+00 0.19617054E+03</pdfrwt>
<pdfrwt beam="2">  1       21 0.14187866E-01 0.19617054E+03</pdfrwt>
<totfact> 0.75007101E+03</totfact>
</mgrwt>
</event>
<event>
12    1  0.1019868E-001  0.2939223E+03  0.7546771E-02  0.1088320E+00
         21   -1    0    0  503  502  0.00000000000E+00  0.00000000000E+00  0.56216470002E+03  0.56216470002E+03  0.00000000000E+00 0.  1.
         21   -1    0    0  501  503 -0.00000000000E+00 -0.00000000000E+00 -0.35223104575E+03  0.35223104575E+03  0.00000000000E+00 0. -1.
          6    2    1    2  501    0  0.20078149169E+03  0.12680287105E+03 -0.23830285673E+03  0.37838946115E+03  0.17319976117E+03 0.  0.
         24    2    3    3    0    0  0.21241681759E+03  0.14584306575E+03 -0.20641679401E+03  0.33918843031E+03  0.77780422896E+02 0.  0.
         -6    2    1    2    0  502 -0.20078149169E+03 -0.12680287105E+03  0.44823651100E+03  0.53600628463E+03  0.17318946807E+03 0.  0.
        -24    2    5    5    0    0 -0.18132040559E+03 -0.43115938875E+02  0.27059118289E+03  0.33861786275E+03  0.81892582372E+02 0.  0.
          5    1    3    3  501    0 -0.11635325894E+02 -0.19040194698E+02 -0.31886062722E+02  0.39201030838E+02  0.47000000000E+01 0. -1.
        -11    1    4    4    0    0  0.59253048643E+02  0.58838359666E+02 -0.27015963535E+02  0.87765247265E+02  0.00000000000E+00 0.  1.
         12    1    4    4    0    0  0.15316376894E+03  0.87004706085E+02 -0.17940083047E+03  0.25142318304E+03  0.00000000000E+00 0. -1.
         -5    1    5    5    0  502 -0.19461086099E+02 -0.83686932179E+02  0.17764532811E+03  0.19738842187E+03  0.47000000000E+01 0.  1.
         13    1    6    6    0    0 -0.84993691541E+01 -0.10094037344E+02 -0.28118796589E+01  0.13492054445E+02  0.00000000000E+00 0. -1.
        -14    1    6    6    0    0 -0.17282103644E+03 -0.33021901531E+02  0.27340306255E+03  0.32512580831E+03  0.00000000000E+00 0.  1.
<mgrwt>
<rscale>  2 0.29392081E+03</rscale>
<asrwt>0</asrwt>
<pdfrwt beam="1">  1       21 0.86486877E-01 0.29392232E+03</pdfrwt>
<pdfrwt beam="2">  1       21 0.54189391E-01 0.29392232E+03</pdfrwt>
<totfact> 0.34589920E+03</totfact>
</mgrwt>
</event>
<event>
12    1  0.1019868E-001  0.1903389E+03  0.7546771E-02  0.1158161E+00
         21   -1    0    0  503  502  0.00000000000E+00  0.00000000000E+00  0.92280919930E+02  0.92280919930E+02  0.00000000000E+00 0.  1.
         21   -1    0    0  501  503 -0.00000000000E+00 -0.00000000000E+00 -0.12556357906E+04  0.12556357906E+04  0.00000000000E+00 0. -1.
          6    2    1    2  501    0  0.35952727636E+02  0.71469298917E+02 -0.11404529016E+04  0.11562273571E+04  0.17270906527E+03 0.  0.
         24    2    3    3    0    0 -0.19052086636E+02  0.57170707322E+02 -0.36401953065E+03  0.37770256697E+03  0.80731274134E+02 0.  0.
         -6    2    1    2    0  502 -0.35952727636E+02 -0.71469298917E+02 -0.22901969058E+02  0.19168935342E+03  0.17268424571E+03 0.  0.
        -24    2    5    5    0    0 -0.37851800969E+01 -0.99814298450E+02 -0.52477590169E+02  0.13939215008E+03  0.81847738332E+02 0.  0.
          5    1    3    3  501    0  0.55004814272E+02  0.14298591595E+02 -0.77643337096E+03  0.77852479013E+03  0.47000000000E+01 0. -1.
        -11    1    4    4    0    0  0.10879863098E+02  0.68005291588E+02 -0.25382661611E+03  0.26300388239E+03  0.00000000000E+00 0.  1.
         12    1    4    4    0    0 -0.29931949733E+02 -0.10834584267E+02 -0.11019291454E+03  0.11469868458E+03  0.00000000000E+00 0. -1.
         -5    1    5    5    0  502 -0.32167547539E+02  0.28344999533E+02  0.29575621111E+02  0.52297203341E+02  0.47000000000E+01 0.  1.
         13    1    6    6    0    0  0.21622618415E+02  0.25392871142E+01 -0.18569895497E+02  0.28615146774E+02  0.00000000000E+00 0. -1.
        -14    1    6    6    0    0 -0.25407798511E+02 -0.10235358556E+03 -0.33907694672E+02  0.11077700330E+03  0.00000000000E+00 0.  1.
<mgrwt>
<rscale>  2 0.19033323E+03</rscale>
<asrwt>0</asrwt>
<pdfrwt beam="1">  1       21 0.14197065E-01 0.19033886E+03</pdfrwt>
<pdfrwt beam="2">  1       21 0.19317473E+00 0.19033886E+03</pdfrwt>
<totfact> 0.64581987E+03</totfact>
</mgrwt>
</event>
<event>
12    1  0.1019868E-001  0.2174198E+03  0.7546771E-02  0.1135900E+00
         21   -1    0    0  503  502  0.00000000000E+00  0.00000000000E+00  0.91366998904E+02  0.91366998904E+02  0.00000000000E+00 0. -1.
         21   -1    0    0  501  503 -0.00000000000E+00 -0.00000000000E+00 -0.66794088243E+03  0.66794088243E+03  0.00000000000E+00 0.  1.
          6    2    1    2  501    0 -0.47662107891E+02  0.12282522689E+03 -0.46891474265E+03  0.51669320636E+03  0.17243294564E+03 0.  0.
         24    2    3    3    0    0 -0.99107620881E+02  0.89013028488E+02 -0.35775177290E+03  0.38953503160E+03  0.77495613230E+02 0.  0.
         -6    2    1    2    0  502  0.47662107891E+02 -0.12282522689E+03 -0.10765914088E+03  0.24261467497E+03  0.17295570822E+03 0.  0.
        -24    2    5    5    0    0  0.86857356869E+01 -0.12463707473E+03 -0.22554834410E+02  0.14887421752E+03  0.77749403122E+02 0.  0.
          5    1    3    3  501    0  0.51445512990E+02  0.33812198398E+02 -0.11116296974E+03  0.12715817476E+03  0.47000000000E+01 0. -1.
        -11    1    4    4    0    0 -0.87189129926E+01 -0.10145162960E+02 -0.79565920661E+02  0.80682584899E+02  0.00000000000E+00 0.  1.
         12    1    4    4    0    0 -0.90388707889E+02  0.99158191448E+02 -0.27818585224E+03  0.30885244670E+03  0.00000000000E+00 0. -1.
         -5    1    5    5    0  502  0.38976372204E+02  0.18118478434E+01 -0.85104306466E+02  0.93740457445E+02  0.47000000000E+01 0.  1.
         13    1    6    6    0    0  0.40477256091E+02 -0.69240765825E+02  0.25558827059E+01  0.80244778329E+02  0.00000000000E+00 0. -1.
        -14    1    6    6    0    0 -0.31791520404E+02 -0.55396308905E+02 -0.25110717116E+02  0.68629439193E+02  0.00000000000E+00 0.  1.
<mgrwt>
<rscale>  2 0.21731587E+03</rscale>
<asrwt>0</asrwt>
<pdfrwt beam="1">  1       21 0.14056462E-01 0.21741985E+03</pdfrwt>
<pdfrwt beam="2">  1       21 0.10276013E+00 0.21741985E+03</pdfrwt>
<totfact> 0.33501945E+04</totfact>
</mgrwt>
</event>
<event>
12    1  0.1019868E-001  0.2252297E+03  0.7546771E-02  0.1130279E+00
         21   -1    0    0  501  502  0.00000000000E+00  0.00000000000E+00  0.23787186131E+04  0.23787186131E+04  0.00000000000E+00 0.  1.
         21   -1    0    0  502  503 -0.00000000000E+00 -0.00000000000E+00 -0.40631658040E+02  0.40631658040E+02  0.00000000000E+00 0.  1.
         -6    2    1    2    0  503  0.56531854827E+02  0.13098500014E+03  0.33078614534E+03  0.39945301046E+03  0.17259870435E+03 0.  0.
        -24    2    3    3    0    0  0.65199709067E+02  0.14462351045E+03  0.33753475681E+03  0.38132087276E+03  0.79428798972E+02 0.  0.
          6    2    1    2  501    0 -0.56531854827E+02 -0.13098500014E+03  0.20073008098E+04  0.20198972607E+04  0.17428563377E+03 0.  0.
         24    2    5    5    0    0  0.25882683581E+01 -0.25357425128E+02  0.12609051570E+04  0.12637352847E+04  0.80593775373E+02 0.  0.
          5    1    5    5  501    0 -0.59120123185E+02 -0.10562757501E+03  0.74639565278E+03  0.75616197607E+03  0.47000000000E+01 0. -1.
        -11    1    6    6    0    0 -0.21501335456E+02  0.22269298085E+02  0.42168914387E+03  0.42282379678E+03  0.00000000000E+00 0.  1.
         12    1    6    6    0    0  0.24089603814E+02 -0.47626723212E+02  0.83921601312E+03  0.84091148788E+03  0.00000000000E+00 0. -1.
         -5    1    3    3    0  503 -0.86678542399E+01 -0.13638510313E+02 -0.67486114752E+01  0.18132137699E+02  0.47000000000E+01 0.  1.
         11    1    4    4    0    0  0.45221251988E+02  0.41828166171E+02  0.65937190547E+02  0.90234528945E+02  0.00000000000E+00 0. -1.
        -12    1    4    4    0    0  0.19978457079E+02  0.10279534428E+03  0.27159756627E+03  0.29108634381E+03  0.00000000000E+00 0.  1.
<mgrwt>
<rscale>  2 0.22490325E+03</rscale>
<asrwt>0</asrwt>
<pdfrwt beam="1">  1       21 0.36595660E+00 0.22522967E+03</pdfrwt>
<pdfrwt beam="2">  1       21 0.62510262E-02 0.22522967E+03</pdfrwt>
<totfact> 0.24771433E+03</totfact>
</mgrwt>
</event>
<event>
11    1  0.1019868E-001  0.1967192E+03  0.7546771E-02  0.1153023E+00
         21   -1    0    0  503  502  0.00000000000E+00  0.00000000000E+00  0.17789270675E+03  0.17789270675E+03  0.00000000000E+00 0. -1.
         21   -1    0    0  501  503 -0.00000000000E+00 -0.00000000000E+00 -0.33157979903E+03  0.33157979903E+03  0.00000000000E+00 0. -1.
          6    2    1    2  501    0 -0.88537663769E+02  0.37358629307E+01 -0.22755814805E+03  0.29934069805E+03  0.17311634292E+03 0.  0.
         24    2    3    3    0    0 -0.52814627437E+02 -0.57104052899E+01 -0.33575677924E+02  0.10181435544E+03  0.80105200986E+02 0.  0.
         -6    2    1    2    0  502  0.88537663769E+02 -0.37358629307E+01  0.73871055775E+02  0.21013180773E+03  0.17562906696E+03 0.  0.
          5    1    3    3  501    0 -0.35723036332E+02  0.94462682205E+01 -0.19398247013E+03  0.19752634261E+03  0.47000000000E+01 0. -1.
        -11    1    4    4    0    0 -0.56524019258E+02 -0.44001275001E+01 -0.55619644645E+02  0.79422104893E+02  0.00000000000E+00 0.  1.
         12    1    4    4    0    0  0.37093918215E+01 -0.13102777898E+01  0.22043966722E+02  0.22392250543E+02  0.00000000000E+00 0. -1.
         -5    1    5    5    0  502  0.41337242076E+02  0.41756565269E+02 -0.39597680334E+02  0.71010172605E+02  0.47000000000E+01 0.  1.
         11    1    5    5    0    0  0.59196082322E+01 -0.25490702316E+02  0.74398520001E+02  0.78866706820E+02  0.00000000000E+00 0. -1.
        -12    1    5    5    0    0  0.41280813461E+02 -0.20001725884E+02  0.39070216108E+02  0.60254928305E+02  0.00000000000E+00 0.  1.
<mgrwt>
<rscale>  2 0.19615678E+03</rscale>
<asrwt>0</asrwt>
<pdfrwt beam="1">  1       21 0.27368109E-01 0.19671920E+03</pdfrwt>
<pdfrwt beam="2">  1       21 0.51012276E-01 0.19671920E+03</pdfrwt>
<totfact> 0.46434986E+04</totfact>
</mgrwt>
</event>
<event>
12    1  0.1019868E-001  0.2278424E+03  0.7546771E-02  0.1128495E+00
         21   -1    0    0  501  502  0.00000000000E+00  0.00000000000E+00  0.64603280601E+03  0.64603280601E+03  0.00000000000E+00 0. -1.
         21   -1    0    0  502  503 -0.00000000000E+00 -0.00000000000E+00 -0.11019092697E+03  0.11019092697E+03  0.00000000000E+00 0. -1.
         -6    2    1    2    0  503  0.10661857009E+03  0.10175683180E+03  0.68275586410E+02  0.23609837592E+03  0.17134443412E+03 0.  0.
        -24    2    3    3    0    0  0.62531006596E+02  0.14967632604E+02 -0.19399721581E+02  0.10500631672E+03  0.80720632690E+02 0.  0.
          6    2    1    2  501    0 -0.10661857009E+03 -0.10175683180E+03  0.46756629263E+03  0.52012535706E+03  0.17375320642E+03 0.  0.
         24    2    5    5    0    0 -0.23423825030E+02 -0.11704958898E+03  0.30933305594E+03  0.34063975535E+03  0.78097513178E+02 0.  0.
          5    1    5    5  501    0 -0.83194745064E+02  0.15292757179E+02  0.15823323669E+03  0.17948560171E+03  0.47000000000E+01 0. -1.
        -13    1    6    6    0    0  0.11626557897E+02 -0.38141784328E+02  0.18511938102E+03  0.18936514408E+03  0.00000000000E+00 0.  1.
         14    1    6    6    0    0 -0.35050382927E+02 -0.78907804655E+02  0.12421367492E+03  0.15127461127E+03  0.00000000000E+00 0. -1.
         -5    1    3    3    0  503  0.44087563498E+02  0.86789199200E+02  0.87675307991E+02  0.13109205920E+03  0.47000000000E+01 0.  1.
         13    1    4    4    0    0  0.57133169169E+02  0.37050533157E+02  0.89356367603E+01  0.68678865969E+02  0.00000000000E+00 0. -1.
        -14    1    4    4    0    0  0.53978374279E+01 -0.22082900553E+02 -0.28335358341E+02  0.36327450751E+02  0.00000000000E+00 0.  1.
<mgrwt>
<rscale>  2 0.22738310E+03</rscale>
<asrwt>0</asrwt>
<pdfrwt beam="1">  1       21 0.99389660E-01 0.22784238E+03</pdfrwt>
<pdfrwt beam="2">  1       21 0.16952451E-01 0.22784238E+03</pdfrwt>
<totfact> 0.25606037E+04</totfact>
</mgrwt>
</event>
<event>
12    1  0.1019868E-001  0.1879003E+03  0.7546771E-02  0.1160815E+00
         21   -1    0    0  501  502  0.00000000000E+00  0.00000000000E+00  0.89073607163E+03  0.89073607163E+03  0.00000000000E+00 0. -1.
         21   -1    0    0  502  503 -0.00000000000E+00 -0.00000000000E+00 -0.35296977166E+03  0.35296977166E+03  0.00000000000E+00 0. -1.
         -6    2    1    2    0  503 -0.19300010174E+02  0.69678222549E+02 -0.31723968984E+03  0.36871062743E+03  0.17343287139E+03 0.  0.
        -24    2    3    3    0    0 -0.36979254760E+02 -0.22731269870E+02 -0.15040425715E+03  0.17711672988E+03  0.82853602944E+02 0.  0.
          6    2    1    2  501    0  0.19300010174E+02 -0.69678222549E+02  0.85500598982E+03  0.87499521586E+03  0.17132962401E+03 0.  0.
         24    2    5    5    0    0 -0.48322839215E+02 -0.67529044220E+02  0.44337175280E+03  0.45781143883E+03  0.78214664510E+02 0.  0.
          5    1    5    5  501    0  0.67622849389E+02 -0.21491783289E+01  0.41163423702E+03  0.41718377703E+03  0.47000000000E+01 0. -1.
        -11    1    6    6    0    0 -0.28233586091E+02 -0.78235915745E+02  0.40272383609E+03  0.41122315359E+03  0.00000000000E+00 0.  1.
         12    1    6    6    0    0 -0.20089253124E+02  0.10706871525E+02  0.40647916708E+02  0.46588285241E+02  0.00000000000E+00 0. -1.
         -5    1    3    3    0  503  0.17679244587E+02  0.92409492419E+02 -0.16683543269E+03  0.19159389755E+03  0.47000000000E+01 0.  1.
         13    1    4    4    0    0 -0.23604008550E+02 -0.44032142487E+02 -0.14210416701E+03  0.15063058479E+03  0.00000000000E+00 0. -1.
        -14    1    4    4    0    0 -0.13375246211E+02  0.21300872617E+02 -0.83000901427E+01  0.26486145092E+02  0.00000000000E+00 0.  1.
<mgrwt>
<rscale>  2 0.18741348E+03</rscale>
<asrwt>0</asrwt>
<pdfrwt beam="1">  1       21 0.13703632E+00 0.18790026E+03</pdfrwt>
<pdfrwt beam="2">  1       21 0.54303042E-01 0.18790026E+03</pdfrwt>
<totfact> 0.12175341E+03</totfact>
</mgrwt>
</event>
<event>
12    1  0.1019868E-001  0.2495300E+03  0.7546771E-02  0.1113899E+00
         21   -1    0    0  503  502  0.00000000000E+00  0.00000000000E+00  0.19379802675E+03  0.19379802675E+03  0.00000000000E+00 0. -1.
         21   -1    0    0  501  503 -0.00000000000E+00 -0.00000000000E+00 -0.33086454593E+03  0.33086454593E+03  0.00000000000E+00 0. -1.
          6    2    1    2  501    0 -0.10226677865E+03  0.14725232180E+03 -0.11868464375E+03  0.27631732683E+03  0.17356117121E+03 0.  0.
         24    2    3    3    0    0 -0.11391551861E+03  0.70143916320E+02 -0.31687365529E+02  0.15938993159E+03  0.80648290626E+02 0.  0.
         -6    2    1    2    0  502  0.10226677865E+03 -0.14725232180E+03 -0.18381875441E+02  0.24834524586E+03  0.17086757300E+03 0.  0.
        -24    2    5    5    0    0  0.14096464985E+02 -0.11429441871E+03  0.26914373351E+02  0.14377915315E+03  0.81768801600E+02 0.  0.
          5    1    3    3  501    0  0.11648739961E+02  0.77108405484E+02 -0.86997278217E+02  0.11692739523E+03  0.47000000000E+01 0. -1.
        -11    1    4    4    0    0  0.12392318371E+02  0.17533861088E+01 -0.37291425767E+01  0.13059495465E+02  0.00000000000E+00 0.  1.
         12    1    4    4    0    0 -0.12630783699E+03  0.68390530212E+02 -0.27958222952E+02  0.14633043613E+03  0.00000000000E+00 0. -1.
         -5    1    5    5    0  502  0.88170313668E+02 -0.32957903096E+02 -0.45296248792E+02  0.10456609270E+03  0.47000000000E+01 0.  1.
         13    1    6    6    0    0  0.40426432695E+02 -0.25699301582E+02  0.15139226047E+01  0.47927471495E+02  0.00000000000E+00 0. -1.
        -14    1    6    6    0    0 -0.26329967710E+02 -0.88595117126E+02  0.25400450746E+02  0.95851681656E+02  0.00000000000E+00 0.  1.
<mgrwt>
<rscale>  2 0.24906219E+03</rscale>
<asrwt>0</asrwt>
<pdfrwt beam="1">  1       21 0.29815081E-01 0.24953000E+03</pdfrwt>
<pdfrwt beam="2">  1       21 0.50902237E-01 0.24953000E+03</pdfrwt>
<totfact> 0.38537947E+04</totfact>
</mgrwt>
</event>
<event>
12    1  0.1019868E-001  0.2096553E+03  0.7546771E-02  0.1141983E+00
         21   -1    0    0  501  502  0.00000000000E+00  0.00000000000E+00  0.32252534559E+03  0.32252534559E+03  0.00000000000E+00 0.  1.
         21   -1    0    0  502  503 -0.00000000000E+00 -0.00000000000E+00 -0.48317801750E+03  0.48317801750E+03  0.00000000000E+00 0.  1.
         -6    2    1    2    0  503  0.95687087384E+01 -0.11580783411E+03 -0.42186047193E+03  0.47076327935E+03  0.17363407724E+03 0.  0.
        -24    2    3    3    0    0 -0.61224164873E+02 -0.70158026810E+02 -0.27616972700E+03  0.30240824076E+03  0.80687538551E+02 0.  0.
          6    2    1    2  501    0 -0.95687087384E+01  0.11580783411E+03  0.26120780002E+03  0.33494008374E+03  0.17450596058E+03 0.  0.
         24    2    5    5    0    0 -0.23353313881E+02  0.21503054535E+02  0.20818094727E+03  0.22577349590E+03  0.81403968088E+02 0.  0.
          5    1    5    5  501    0  0.13784605143E+02  0.94304779570E+02  0.53026852746E+02  0.10916658784E+03  0.47000000000E+01 0. -1.
        -11    1    6    6    0    0 -0.30430086795E+02  0.49658157289E+02  0.14403046475E+03  0.15535989684E+03  0.00000000000E+00 0.  1.
         12    1    6    6    0    0  0.70767729137E+01 -0.28155102754E+02  0.64150482516E+02  0.70413599063E+02  0.00000000000E+00 0. -1.
         -5    1    3    3    0  503  0.70792873611E+02 -0.45649807295E+02 -0.14569074493E+03  0.16835503859E+03  0.47000000000E+01 0.  1.
         11    1    4    4    0    0 -0.81685823974E+01  0.17896943222E+02 -0.33304757845E+02  0.38681173847E+02  0.00000000000E+00 0. -1.
        -12    1    4    4    0    0 -0.53055582475E+02 -0.88054970032E+02 -0.24286496916E+03  0.26372706691E+03  0.00000000000E+00 0.  1.
<mgrwt>
<rscale>  2 0.20947378E+03</rscale>
<asrwt>0</asrwt>
<pdfrwt beam="1">  1       21 0.49619284E-01 0.20965530E+03</pdfrwt>
<pdfrwt beam="2">  1       21 0.74335079E-01 0.20965530E+03</pdfrwt>
<totfact> 0.62002777E+03</totfact>
</mgrwt>
</event>
<event>
12    1  0.1019868E-001  0.1877113E+03  0.7546771E-02  0.1160828E+00
         21   -1    0    0  503  502  0.00000000000E+00  0.00000000000E+00  0.24665102834E+03  0.24665102834E+03  0.00000000000E+00 0.  1.
         21   -1    0    0  501  503 -0.00000000000E+00 -0.00000000000E+00 -0.14947591535E+03  0.14947591535E+03  0.00000000000E+00 0.  1.
          6    2    1    2  501    0  0.69231316356E+02 -0.25762894755E+02  0.41828213446E+01  0.18775793109E+03  0.17256547390E+03 0.  0.
         24    2    3    3    0    0  0.46866305697E+02 -0.79402712538E+02  0.26422304865E+02  0.12535513964E+03  0.80712647535E+02 0.  0.
         -6    2    1    2    0  502 -0.69231316356E+02  0.25762894755E+02  0.92992291644E+02  0.20836901260E+03  0.17121149843E+03 0.  0.
        -24    2    5    5    0    0  0.11199012858E+02  0.38208398440E+02  0.80951798951E+02  0.12596153791E+03  0.87907995540E+02 0.  0.
          5    1    3    3  501    0  0.22365010659E+02  0.53639817783E+02 -0.22239483520E+02  0.62402791450E+02  0.47000000000E+01 0. -1.
        -13    1    4    4    0    0  0.54126612204E+02 -0.51689946899E+02 -0.13667747401E+02  0.76081193984E+02  0.00000000000E+00 0.  1.
         14    1    4    4    0    0 -0.72603065069E+01 -0.27712765639E+02  0.40090052266E+02  0.49273945657E+02  0.00000000000E+00 0. -1.
         -5    1    5    5    0  502 -0.80430329215E+02 -0.12445503685E+02  0.12040492693E+02  0.82407474684E+02  0.47000000000E+01 0.  1.
         11    1    6    6    0    0  0.19815292661E+02  0.45564907997E+02  0.95422238678E+02  0.10758350384E+03  0.00000000000E+00 0. -1.
        -12    1    6    6    0    0 -0.86162798032E+01 -0.73565095571E+01 -0.14470439727E+02  0.18378034074E+02  0.00000000000E+00 0.  1.
<mgrwt>
<rscale>  2 0.18739957E+03</rscale>
<asrwt>0</asrwt>
<pdfrwt beam="1">  1       21 0.37946312E-01 0.18771133E+03</pdfrwt>
<pdfrwt beam="2">  1       21 0.22996295E-01 0.18771133E+03</pdfrwt>
<totfact> 0.11911530E+05</totfact>
</mgrwt>
</event>
<event>
12    1  0.1019868E-001  0.1899281E+03  0.7546771E-02  0.1159108E+00
         21   -1    0    0  501  502  0.00000000000E+00  0.00000000000E+00  0.65755695172E+02  0.65755695172E+02  0.00000000000E+00 0. -1.
         21   -1    0    0  502  503 -0.00000000000E+00 -0.00000000000E+00 -0.67214887520E+03  0.67214887520E+03  0.00000000000E+00 0.  1.
         -6    2    1    2    0  503 -0.25117617752E+02 -0.73654833475E+02 -0.46769443930E+03  0.50478784886E+03  0.17325344034E+03 0.  0.
        -24    2    3    3    0    0 -0.79588678088E+01 -0.38095000642E+02 -0.45412699557E+03  0.46277487538E+03  0.80091725744E+02 0.  0.
          6    2    1    2  501    0  0.25117617752E+02  0.73654833475E+02 -0.13869874073E+03  0.23311672151E+03  0.17044100432E+03 0.  0.
         24    2    5    5    0    0 -0.39519531981E+02  0.71309613015E+02 -0.50328366236E+02  0.12350433958E+03  0.77932811646E+02 0.  0.
          5    1    5    5  501    0  0.64637149733E+02  0.23452204604E+01 -0.88370374495E+02  0.10961238193E+03  0.47000000000E+01 0. -1.
        -11    1    6    6    0    0  0.13011780942E+02 -0.92169331099E+01 -0.12186130636E+02  0.20068883355E+02  0.00000000000E+00 0.  1.
         12    1    6    6    0    0 -0.52531312923E+02  0.80526546125E+02 -0.38142235599E+02  0.10343545623E+03  0.00000000000E+00 0. -1.
         -5    1    3    3    0  503 -0.17158749943E+02 -0.35559832833E+02 -0.13567443727E+02  0.42012973473E+02  0.47000000000E+01 0.  1.
         13    1    4    4    0    0  0.14281141986E+02 -0.40656488271E+01 -0.12871924160E+02  0.19651130970E+02  0.00000000000E+00 0. -1.
        -14    1    4    4    0    0 -0.22240009795E+02 -0.34029351815E+02 -0.44125507141E+03  0.44312374441E+03  0.00000000000E+00 0.  1.
<mgrwt>
<rscale>  2 0.18928434E+03</rscale>
<asrwt>0</asrwt>
<pdfrwt beam="1">  1       21 0.10116261E-01 0.18992810E+03</pdfrwt>
<pdfrwt beam="2">  1       21 0.10340751E+00 0.18992810E+03</pdfrwt>
<totfact> 0.60334059E+04</totfact>
</mgrwt>
</event>
<event>
12    1  0.1019868E-001  0.1790385E+03  0.7546771E-02  0.1169142E+00
         21   -1    0    0  501  502  0.00000000000E+00  0.00000000000E+00  0.85618443988E+03  0.85618443988E+03  0.00000000000E+00 0. -1.
         21   -1    0    0  502  503 -0.00000000000E+00 -0.00000000000E+00 -0.15246513987E+03  0.15246513987E+03  0.00000000000E+00 0. -1.
         -6    2    1    2    0  503  0.35206096213E+02  0.13653266966E+02 -0.86447955614E+02  0.19881659833E+03  0.17501117059E+03 0.  0.
        -24    2    3    3    0    0  0.16757219168E+02 -0.18039220199E+02  0.20053156553E+02  0.86080837809E+02  0.80009772469E+02 0.  0.
          6    2    1    2  501    0 -0.35206096213E+02 -0.13653266966E+02  0.79016725562E+03  0.80983298142E+03  0.17331844980E+03 0.  0.
         24    2    5    5    0    0 -0.70444138382E+02 -0.33910071707E+02  0.33050413766E+03  0.34835239704E+03  0.77486372452E+02 0.  0.
          5    1    5    5  501    0  0.35238042168E+02  0.20256804741E+02  0.45966311796E+03  0.46148058438E+03  0.47000000000E+01 0. -1.
        -13    1    6    6    0    0 -0.11553668402E+02 -0.40754420729E+02  0.75742832994E+02  0.86783563031E+02  0.00000000000E+00 0.  1.
         14    1    6    6    0    0 -0.58890469980E+02  0.68443490221E+01  0.25476130467E+03  0.26156883401E+03  0.00000000000E+00 0. -1.
         -5    1    3    3    0  503  0.18448877045E+02  0.31692487165E+02 -0.10650111217E+03  0.11273576052E+03  0.47000000000E+01 0.  1.
         11    1    4    4    0    0  0.32686211139E+02 -0.26977546267E+02 -0.16291356177E+02  0.45404676932E+02  0.00000000000E+00 0. -1.
        -12    1    4    4    0    0 -0.15928991971E+02  0.89383260686E+01  0.36344512729E+02  0.40676160877E+02  0.00000000000E+00 0.  1.
<mgrwt>
<rscale>  2 0.17862351E+03</rscale>
<asrwt>0</asrwt>
<pdfrwt beam="1">  1       21 0.13172068E+00 0.17903852E+03</pdfrwt>
<pdfrwt beam="2">  1       21 0.23456176E-01 0.17903852E+03</pdfrwt>
<totfact> 0.72271105E+03</totfact>
</mgrwt>
</event>
<event>
12    1  0.1019868E-001  0.3816503E+03  0.7546771E-02  0.1050396E+00
         21   -1    0    0  503  502  0.00000000000E+00  0.00000000000E+00  0.22492924755E+04  0.22492924755E+04  0.00000000000E+00 0. -1.
         21   -1    0    0  501  503 -0.00000000000E+00 -0.00000000000E+00 -0.67243081357E+02  0.67243081357E+02  0.00000000000E+00 0.  1.
          6    2    1    2  501    0  0.28954226603E+03  0.17774549005E+03  0.13184596908E+04  0.13723723822E+04  0.17216798846E+03 0.  0.
         24    2    3    3    0    0  0.28738096348E+03  0.12044896694E+03  0.11568835311E+04  0.12008599682E+04  0.81175038624E+02 0.  0.
         -6    2    1    2    0  502 -0.28954226603E+03 -0.17774549005E+03  0.86358970338E+03  0.94416317464E+03  0.17386414673E+03 0.  0.
        -24    2    5    5    0    0 -0.23959843075E+03 -0.14281114343E+03  0.81845492160E+03  0.86817611139E+03  0.77838749920E+02 0.  0.
          5    1    3    3  501    0  0.21613025506E+01  0.57296523110E+02  0.16157615968E+03  0.17151241403E+03  0.47000000000E+01 0. -1.
        -13    1    4    4    0    0  0.58158659988E+02  0.30668046882E+02  0.14103432410E+03  0.15560732439E+03  0.00000000000E+00 0.  1.
         14    1    4    4    0    0  0.22922230349E+03  0.89780920056E+02  0.10158492070E+04  0.10452526438E+04  0.00000000000E+00 0. -1.
         -5    1    5    5    0  502 -0.49943835279E+02 -0.34934346613E+02  0.45134781780E+02  0.75987063254E+02  0.47000000000E+01 0.  1.
         11    1    6    6    0    0 -0.83566426566E+02 -0.82112830789E+02  0.26026232125E+03  0.28541608310E+03  0.00000000000E+00 0. -1.
        -12    1    6    6    0    0 -0.15603200418E+03 -0.60698312646E+02  0.55819260035E+03  0.58276002829E+03  0.00000000000E+00 0.  1.
<mgrwt>
<rscale>  2 0.38145769E+03</rscale>
<asrwt>0</asrwt>
<pdfrwt beam="1">  1       21 0.34604494E+00 0.38165026E+03</pdfrwt>
<pdfrwt beam="2">  1       21 0.10345091E-01 0.38165026E+03</pdfrwt>
<totfact> 0.11733053E+03</totfact>
</mgrwt>
</event>
<event>
12    1  0.1019868E-001  0.1882528E+03  0.7546771E-02  0.1160063E+00
         21   -1    0    0  503  502  0.00000000000E+00  0.00000000000E+00  0.11913550092E+03  0.11913550092E+03  0.00000000000E+00 0. -1.
         21   -1    0    0  501  503 -0.00000000000E+00 -0.00000000000E+00 -0.37053039308E+03  0.37053039308E+03  0.00000000000E+00 0.  1.
          6    2    1    2  501    0  0.31634370343E+02 -0.68023262932E+02 -0.23447838825E+03  0.30065459728E+03  0.17258381913E+03 0.  0.
         24    2    3    3    0    0 -0.29838824978E+02  0.10147289021E+02 -0.11483873572E+03  0.14500972781E+03  0.82743960430E+02 0.  0.
         -6    2    1    2    0  502 -0.31634370343E+02  0.68023262932E+02 -0.16916503912E+02  0.18901129672E+03  0.17265921492E+03 0.  0.
        -24    2    5    5    0    0  0.38189765662E+02  0.64191325119E+02  0.18028613951E+02  0.11069562154E+03  0.79683783078E+02 0.  0.
          5    1    3    3  501    0  0.61473195321E+02 -0.78170551953E+02 -0.11963965253E+03  0.15564486947E+03  0.47000000000E+01 0. -1.
        -13    1    4    4    0    0 -0.32352468692E+02  0.38660789745E+02 -0.38351050020E+02  0.63341470869E+02  0.00000000000E+00 0.  1.
         14    1    4    4    0    0  0.25136437145E+01 -0.28513500724E+02 -0.76487685701E+02  0.81668256943E+02  0.00000000000E+00 0. -1.
         -5    1    5    5    0  502 -0.69824136005E+02  0.38319378136E+01 -0.34945117863E+02  0.78315675179E+02  0.47000000000E+01 0.  1.
         11    1    6    6    0    0 -0.15036931605E+02  0.47067420053E+02  0.23116670422E+02  0.54551185083E+02  0.00000000000E+00 0. -1.
        -12    1    6    6    0    0  0.53226697267E+02  0.17123905066E+02 -0.50880564704E+01  0.56144436459E+02  0.00000000000E+00 0.  1.
<mgrwt>
<rscale>  2 0.18823547E+03</rscale>
<asrwt>0</asrwt>
<pdfrwt beam="1">  1       21 0.18328538E-01 0.18825276E+03</pdfrwt>
<pdfrwt beam="2">  1       21 0.57004676E-01 0.18825276E+03</pdfrwt>
<totfact> 0.78639360E+04</totfact>
</mgrwt>
</event>
<event>
12    1  0.1019868E-001  0.2863619E+03  0.7546771E-02  0.1092897E+00
         21   -1    0    0  501  502  0.00000000000E+00  0.00000000000E+00  0.30663943638E+03  0.30663943638E+03  0.00000000000E+00 0. -1.
         21   -1    0    0  502  503 -0.00000000000E+00 -0.00000000000E+00 -0.28721697729E+03  0.28721697729E+03  0.00000000000E+00 0. -1.
         -6    2    1    2    0  503 -0.20142530484E+03 -0.10758706170E+03 -0.76528043238E+02  0.29184710025E+03  0.16483646214E+03 0.  0.
        -24    2    3    3    0    0 -0.20450227045E+03 -0.68284261763E+02 -0.10052979604E+03  0.24545365311E+03  0.60475920110E+02 0.  0.
          6    2    1    2  501    0  0.20142530484E+03  0.10758706170E+03  0.95950502330E+02  0.30200931341E+03  0.17278888048E+03 0.  0.
         24    2    5    5    0    0  0.10007712637E+03  0.71441614197E+02  0.11807343236E+03  0.19205722982E+03  0.88460774555E+02 0.  0.
          5    1    5    5  501    0  0.10134817847E+03  0.36145447500E+02 -0.22122930029E+02  0.10995208360E+03  0.47000000000E+01 0. -1.
        -11    1    6    6    0    0  0.41809838790E+02  0.80167866620E+00 -0.10196298200E+01  0.41829952824E+02  0.00000000000E+00 0.  1.
         12    1    6    6    0    0  0.58267287576E+02  0.70639935531E+02  0.11909306218E+03  0.15022727699E+03  0.00000000000E+00 0. -1.
         -5    1    3    3    0  503  0.30769656111E+01 -0.39302799934E+02  0.24001752798E+02  0.46393447138E+02  0.47000000000E+01 0.  1.
         11    1    4    4    0    0 -0.17162750216E+03 -0.33024367205E+02 -0.69297330376E+02  0.18801257491E+03  0.00000000000E+00 0. -1.
        -12    1    4    4    0    0 -0.32874768292E+02 -0.35259894558E+02 -0.31232465660E+02  0.57441078208E+02  0.00000000000E+00 0.  1.
<mgrwt>
<rscale>  2 0.28517274E+03</rscale>
<asrwt>0</asrwt>
<pdfrwt beam="1">  1       21 0.47175298E-01 0.28636188E+03</pdfrwt>
<pdfrwt beam="2">  1       21 0.44187227E-01 0.28636188E+03</pdfrwt>
<totfact> 0.20172085E+04</totfact>
</mgrwt>
</event>
<event>
12    1  0.1019868E-001  0.3710375E+03  0.7546771E-02  0.1054399E+00
         21   -1    0    0  501  502  0.00000000000E+00  0.00000000000E+00  0.22141138503E+03  0.22141138503E+03  0.00000000000E+00 0. -1.
         21   -1    0    0  502  503 -0.00000000000E+00 -0.00000000000E+00 -0.62418891955E+03  0.62418891955E+03  0.00000000000E+00 0.  1.
         -6    2    1    2    0  503  0.70883283877E+02 -0.31986261208E+03 -0.23634109268E+03  0.43991581379E+03  0.17416165076E+03 0.  0.
        -24    2    3    3    0    0  0.98045365214E+02 -0.27605367866E+03 -0.14923030810E+03  0.33858773229E+03  0.80953322747E+02 0.  0.
          6    2    1    2  501    0 -0.70883283877E+02  0.31986261208E+03 -0.16643644185E+03  0.40568449079E+03  0.17187869662E+03 0.  0.
         24    2    5    5    0    0 -0.62411866126E+02  0.22666728148E+03 -0.18391114622E+03  0.31037137597E+03  0.85051653655E+02 0.  0.
          5    1    5    5  501    0 -0.84714177517E+01  0.93195330596E+02  0.17474704369E+02  0.95313114818E+02  0.47000000000E+01 0. -1.
        -11    1    6    6    0    0 -0.15649481152E+02  0.15144816136E+03 -0.74205520637E+02  0.16937506054E+03  0.00000000000E+00 0.  1.
         12    1    6    6    0    0 -0.46762384973E+02  0.75219120122E+02 -0.10970562558E+03  0.14099631543E+03  0.00000000000E+00 0. -1.
         -5    1    3    3    0  503 -0.27162081337E+02 -0.43808933423E+02 -0.87110784579E+02  0.10132808150E+03  0.47000000000E+01 0.  1.
         11    1    4    4    0    0  0.62480860620E+02 -0.17241340368E+03 -0.48359447027E+02  0.18965462248E+03  0.00000000000E+00 0. -1.
        -12    1    4    4    0    0  0.35564504594E+02 -0.10364027498E+03 -0.10087086107E+03  0.14893310981E+03  0.00000000000E+00 0.  1.
<mgrwt>
<rscale>  2 0.37077067E+03</rscale>
<asrwt>0</asrwt>
<pdfrwt beam="1">  1       21 0.34063290E-01 0.37103748E+03</pdfrwt>
<pdfrwt beam="2">  1       21 0.96029065E-01 0.37103748E+03</pdfrwt>
<totfact> 0.68125221E+03</totfact>
</mgrwt>
</event>
<event>
12    1  0.1019868E-001  0.2032509E+03  0.7546771E-02  0.1148963E+00
         21   -1    0    0  503  502  0.00000000000E+00  0.00000000000E+00  0.76626618556E+02  0.76626618556E+02  0.00000000000E+00 0. -1.
         21   -1    0    0  501  503 -0.00000000000E+00 -0.00000000000E+00 -0.51742465225E+03  0.51742465225E+03  0.00000000000E+00 0. -1.
          6    2    1    2  501    0  0.14352894471E+02  0.87634775763E+02 -0.23518584667E+03  0.30493662096E+03  0.17259229654E+03 0.  0.
         24    2    3    3    0    0  0.66299383969E+02  0.48186293189E+02 -0.93073958233E+02  0.14849973470E+03  0.81681591183E+02 0.  0.
         -6    2    1    2    0  502 -0.14352894471E+02 -0.87634775763E+02 -0.20561218703E+03  0.28911464985E+03  0.18282518919E+03 0.  0.
        -24    2    5    5    0    0 -0.40326157767E+02  0.18010220133E+02 -0.89971281052E+02  0.13027389721E+03  0.83221931309E+02 0.  0.
          5    1    3    3  501    0 -0.51946489498E+02  0.39448482574E+02 -0.14211188844E+03  0.15643688626E+03  0.47000000000E+01 0. -1.
        -13    1    4    4    0    0 -0.22213065074E+00  0.12271828480E+02 -0.67630935418E+02  0.68735656990E+02  0.00000000000E+00 0.  1.
         14    1    4    4    0    0  0.66521514620E+02  0.35914464708E+02 -0.25443022815E+02  0.79764077707E+02  0.00000000000E+00 0. -1.
         -5    1    5    5    0  502  0.25973263296E+02 -0.10564499590E+03 -0.11564090598E+03  0.15884075264E+03  0.47000000000E+01 0.  1.
         11    1    6    6    0    0  0.10525414692E+02  0.92267591602E+01 -0.75348506996E+02  0.76637555713E+02  0.00000000000E+00 0. -1.
        -12    1    6    6    0    0 -0.50851572459E+02  0.87834609723E+01 -0.14622774056E+02  0.53636341498E+02  0.00000000000E+00 0.  1.
<mgrwt>
<rscale>  2 0.20092290E+03</rscale>
<asrwt>0</asrwt>
<pdfrwt beam="1">  1       21 0.11788711E-01 0.20325085E+03</pdfrwt>
<pdfrwt beam="2">  1       21 0.79603790E-01 0.20325085E+03</pdfrwt>
<totfact> 0.83861859E+04</totfact>
</mgrwt>
</event>
<event>
12    1  0.1019868E-001  0.1762754E+03  0.7546771E-02  0.1171630E+00
         21   -1    0    0  503  502  0.00000000000E+00  0.00000000000E+00  0.10893270767E+03  0.10893270767E+03  0.00000000000E+00 0.  1.
         21   -1    0    0  501  503 -0.00000000000E+00 -0.00000000000E+00 -0.28424936195E+03  0.28424936195E+03  0.00000000000E+00 0.  1.
          6    2    1    2  501    0  0.32815992978E+02 -0.38925070296E+01 -0.83464626310E+02  0.19441129605E+03  0.17244525851E+03 0.  0.
         24    2    3    3    0    0  0.31728976991E+02  0.47172209987E+02 -0.10037975010E+03  0.14040205295E+03  0.80029350034E+02 0.  0.
         -6    2    1    2    0  502 -0.32815992978E+02  0.38925070296E+01 -0.91852027974E+02  0.19877077357E+03  0.17315017868E+03 0.  0.
        -24    2    5    5    0    0 -0.72889500035E+02  0.10109580337E+02 -0.10818935511E+03  0.15479877991E+03  0.82720268818E+02 0.  0.
          5    1    3    3  501    0  0.10870159865E+01 -0.51064717016E+02  0.16915123788E+02  0.54009243102E+02  0.47000000000E+01 0. -1.
        -13    1    4    4    0    0  0.17261435367E+02  0.37608164992E+01  0.10430365963E+02  0.20515687309E+02  0.00000000000E+00 0.  1.
         14    1    4    4    0    0  0.14467541624E+02  0.43411393487E+02 -0.11081011606E+03  0.11988636564E+03  0.00000000000E+00 0. -1.
         -5    1    5    5    0  502  0.40073507057E+02 -0.62170733077E+01  0.16337327134E+02  0.43971993658E+02  0.47000000000E+01 0.  1.
         13    1    6    6    0    0 -0.16018219541E+02 -0.20957318420E+02  0.25404893623E+01  0.26499936581E+02  0.00000000000E+00 0. -1.
        -14    1    6    6    0    0 -0.56871280494E+02  0.31066898757E+02 -0.11072984447E+03  0.12829884333E+03  0.00000000000E+00 0.  1.
<mgrwt>
<rscale>  2 0.17610208E+03</rscale>
<asrwt>0</asrwt>
<pdfrwt beam="1">  1       21 0.16758878E-01 0.17627542E+03</pdfrwt>
<pdfrwt beam="2">  1       21 0.43730672E-01 0.17627542E+03</pdfrwt>
<totfact> 0.16176573E+05</totfact>
</mgrwt>
</event>
<event>
12    1  0.1019868E-001  0.1786054E+03  0.7546771E-02  0.1169469E+00
         21   -1    0    0  503  502  0.00000000000E+00  0.00000000000E+00  0.23471144777E+03  0.23471144777E+03  0.00000000000E+00 0.  1.
         21   -1    0    0  501  503 -0.00000000000E+00 -0.00000000000E+00 -0.14068882378E+03  0.14068882378E+03  0.00000000000E+00 0.  1.
          6    2    1    2  501    0  0.36722180215E+02 -0.11647763814E+00  0.92745345310E+01  0.17884603873E+03  0.17478946333E+03 0.  0.
         24    2    3    3    0    0  0.34003444871E+02  0.53173760259E+02  0.35615952953E+02  0.11915348223E+03  0.94579982972E+02 0.  0.
         -6    2    1    2    0  502 -0.36722180215E+02  0.11647763814E+00  0.84748089453E+02  0.19655423282E+03  0.17350157258E+03 0.  0.
        -24    2    5    5    0    0  0.14667819399E+02  0.37208679058E+02 -0.93072999773E+01  0.83040930749E+02  0.72177140589E+02 0.  0.
          5    1    3    3  501    0  0.27187353435E+01 -0.53290237897E+02 -0.26341418422E+02  0.59692556499E+02  0.47000000000E+01 0. -1.
        -11    1    4    4    0    0  0.53566118026E+02  0.14517401518E+02 -0.98333796872E+01  0.56362924900E+02  0.00000000000E+00 0.  1.
         12    1    4    4    0    0 -0.19562673154E+02  0.38656358741E+02  0.45449332640E+02  0.62790557327E+02  0.00000000000E+00 0. -1.
         -5    1    5    5    0  502 -0.51389999614E+02 -0.37092201420E+02  0.94055389431E+02  0.11351330207E+03  0.47000000000E+01 0.  1.
         13    1    6    6    0    0 -0.17726524360E+02 -0.12275509272E+02 -0.10282734922E+02  0.23888332534E+02  0.00000000000E+00 0. -1.
        -14    1    6    6    0    0  0.32394343759E+02  0.49484188330E+02  0.97543494447E+00  0.59152598215E+02  0.00000000000E+00 0.  1.
<mgrwt>
<rscale>  2 0.17828952E+03</rscale>
<asrwt>0</asrwt>
<pdfrwt beam="1">  1       21 0.36109453E-01 0.17860540E+03</pdfrwt>
<pdfrwt beam="2">  1       21 0.21644434E-01 0.17860540E+03</pdfrwt>
<totfact> 0.14788370E+05</totfact>
</mgrwt>
</event>
<event>
12    1  0.1019868E-001  0.2896601E+03  0.7546771E-02  0.1090557E+00
         21   -1    0    0  503  502  0.00000000000E+00  0.00000000000E+00  0.19029692499E+03  0.19029692499E+03  0.00000000000E+00 0.  1.
         21   -1    0    0  501  503 -0.00000000000E+00 -0.00000000000E+00 -0.80588084960E+03  0.80588084960E+03  0.00000000000E+00 0. -1.
          6    2    1    2  501    0 -0.45340088749E+02 -0.22832353477E+03 -0.64322182678E+03  0.70543411465E+03  0.17238216695E+03 0.  0.
         24    2    3    3    0    0  0.45739152340E+01 -0.22401545206E+03 -0.55461303698E+03  0.60353428638E+03  0.80337852794E+02 0.  0.
         -6    2    1    2    0  502  0.45340088749E+02  0.22832353477E+03  0.27637902170E+02  0.29074365994E+03  0.17199029618E+03 0.  0.
        -24    2    5    5    0    0  0.48139909301E+02  0.21471305253E+03  0.69227425413E+02  0.24664306283E+03  0.87299588872E+02 0.  0.
          5    1    3    3  501    0 -0.49914003983E+02 -0.43080827168E+01 -0.88608789808E+02  0.10189982827E+03  0.47000000000E+01 0. -1.
        -11    1    4    4    0    0  0.36819202343E+02 -0.10054825509E+03 -0.20351069162E+03  0.22996131602E+03  0.00000000000E+00 0.  1.
         12    1    4    4    0    0 -0.32245287109E+02 -0.12346719697E+03 -0.35110234536E+03  0.37357297036E+03  0.00000000000E+00 0. -1.
         -5    1    5    5    0  502 -0.27998205520E+01  0.13610482245E+02 -0.41589523243E+02  0.44100597112E+02  0.47000000000E+01 0.  1.
         13    1    6    6    0    0  0.35453001924E+02  0.98057189878E+02 -0.10469865340E+02  0.10479382574E+03  0.00000000000E+00 0. -1.
        -14    1    6    6    0    0  0.12686907377E+02  0.11665586265E+03  0.79697290753E+02  0.14184923709E+03  0.00000000000E+00 0.  1.
<mgrwt>
<rscale>  2 0.28960182E+03</rscale>
<asrwt>0</asrwt>
<pdfrwt beam="1">  1       21 0.29276450E-01 0.28966010E+03</pdfrwt>
<pdfrwt beam="2">  1       21 0.12398167E+00 0.28966010E+03</pdfrwt>
<totfact> 0.50981103E+03</totfact>
</mgrwt>
</event>
<event>
12    1  0.1019868E-001  0.2152685E+03  0.7546771E-02  0.1137667E+00
         21   -1    0    0  501  502  0.00000000000E+00  0.00000000000E+00  0.93937545770E+03  0.93937545770E+03  0.00000000000E+00 0. -1.
         21   -1    0    0  502  503 -0.00000000000E+00 -0.00000000000E+00 -0.53130141946E+02  0.53130141946E+02  0.00000000000E+00 0.  1.
         -6    2    1    2    0  503  0.41331359713E+02 -0.12010984784E+03  0.30722610652E+03  0.37513782706E+03  0.17379830816E+03 0.  0.
        -24    2    3    3    0    0  0.74993887830E+02 -0.33057870731E+02  0.20896103115E+03  0.23953057226E+03  0.83625812261E+02 0.  0.
          6    2    1    2  501    0 -0.41331359713E+02  0.12010984784E+03  0.57901920923E+03  0.61736777259E+03  0.17246757701E+03 0.  0.
         24    2    5    5    0    0 -0.30516967301E+02  0.15533149971E+02  0.13009678184E+03  0.15627486151E+03  0.79524182832E+02 0.  0.
          5    1    5    5  501    0 -0.10814392412E+02  0.10457669787E+03  0.44892242740E+03  0.46109291107E+03  0.47000000000E+01 0. -1.
        -11    1    6    6    0    0 -0.12662600183E+02  0.47839395397E+02  0.69428551278E+02  0.85260031245E+02  0.00000000000E+00 0.  1.
         12    1    6    6    0    0 -0.17854367118E+02 -0.32306245426E+02  0.60668230560E+02  0.71014830268E+02  0.00000000000E+00 0. -1.
         -5    1    3    3    0  503 -0.33662528117E+02 -0.87051977114E+02  0.98265075367E+02  0.13560725480E+03  0.47000000000E+01 0.  1.
         13    1    4    4    0    0  0.21942865606E+02  0.23916822720E+02  0.10335450199E+03  0.10833123669E+03  0.00000000000E+00 0. -1.
        -14    1    4    4    0    0  0.53051022223E+02 -0.56974693450E+02  0.10560652916E+03  0.13119933557E+03  0.00000000000E+00 0.  1.
<mgrwt>
<rscale>  2 0.21499972E+03</rscale>
<asrwt>0</asrwt>
<pdfrwt beam="1">  1       21 0.14451929E+00 0.21526846E+03</pdfrwt>
<pdfrwt beam="2">  1       21 0.81738687E-02 0.21526846E+03</pdfrwt>
<totfact> 0.37590812E+04</totfact>
</mgrwt>
</event>
<event>
12    1  0.1019868E-001  0.2695620E+03  0.7546771E-02  0.1101571E+00
         21   -1    0    0  501  502  0.00000000000E+00  0.00000000000E+00  0.12633896611E+04  0.12633896611E+04  0.00000000000E+00 0. -1.
         21   -1    0    0  502  503 -0.00000000000E+00 -0.00000000000E+00 -0.12108647145E+03  0.12108647145E+03  0.00000000000E+00 0.  1.
         -6    2    1    2    0  503 -0.96511461453E+02  0.18247695225E+03  0.69477002622E+02  0.27837157844E+03  0.17335334290E+03 0.  0.
        -24    2    3    3    0    0 -0.12735411515E+03  0.17534668286E+03  0.39650249524E+02  0.23462417590E+03  0.80689725434E+02 0.  0.
          6    2    1    2  501    0  0.96511461453E+02 -0.18247695225E+03  0.10728261871E+04  0.11061045542E+04  0.17291314802E+03 0.  0.
         24    2    5    5    0    0  0.68968958674E+02 -0.20671683555E+03  0.94272359290E+03  0.97084577842E+03  0.79531034911E+02 0.  0.
          5    1    5    5  501    0  0.27542502779E+02  0.24239883297E+02  0.13010259417E+03  0.13525877573E+03  0.47000000000E+01 0. -1.
        -13    1    6    6    0    0 -0.71106363378E+01 -0.16568580807E+02  0.26775082290E+02  0.32279777737E+02  0.00000000000E+00 0.  1.
         14    1    6    6    0    0  0.76079595012E+02 -0.19014825474E+03  0.91594851061E+03  0.93856600069E+03  0.00000000000E+00 0. -1.
         -5    1    3    3    0  503  0.30842653698E+02  0.71302693896E+01  0.29826753098E+02  0.43747402541E+02  0.47000000000E+01 0.  1.
         13    1    4    4    0    0 -0.95809088732E+02  0.79791384814E+02 -0.44365069481E+01  0.12476269141E+03  0.00000000000E+00 0. -1.
        -14    1    4    4    0    0 -0.31545026419E+02  0.95555298050E+02  0.44086756472E+02  0.10986148449E+03  0.00000000000E+00 0.  1.
<mgrwt>
<rscale>  2 0.26949127E+03</rscale>
<asrwt>0</asrwt>
<pdfrwt beam="1">  1       21 0.19436763E+00 0.26956202E+03</pdfrwt>
<pdfrwt beam="2">  1       21 0.18628689E-01 0.26956202E+03</pdfrwt>
<totfact> 0.36123895E+03</totfact>
</mgrwt>
</event>
<event>
12    1  0.1019868E-001  0.1822054E+03  0.7546771E-02  0.1165851E+00
         21   -1    0    0  503  502  0.00000000000E+00  0.00000000000E+00  0.79268664359E+03  0.79268664359E+03  0.00000000000E+00 0. -1.
         21   -1    0    0  501  503 -0.00000000000E+00 -0.00000000000E+00 -0.75711476353E+03  0.75711476353E+03  0.00000000000E+00 0. -1.
          6    2    1    2  501    0  0.13201211628E+02  0.56184518645E+02 -0.73545906077E+03  0.75769310913E+03  0.17282316232E+03 0.  0.
         24    2    3    3    0    0  0.50941011796E+02  0.22501506541E+01 -0.57500787227E+03  0.58419993216E+03  0.89752201613E+02 0.  0.
         -6    2    1    2    0  502 -0.13201211628E+02 -0.56184518645E+02  0.77103094083E+03  0.79210829798E+03  0.17209262592E+03 0.  0.
        -24    2    5    5    0    0  0.33014256919E+02 -0.76120816201E+02  0.35859924098E+03  0.37659016056E+03  0.79639271563E+02 0.  0.
          5    1    3    3  501    0 -0.37739800167E+02  0.53934367991E+02 -0.16045118850E+03  0.17349317698E+03  0.47000000000E+01 0. -1.
        -13    1    4    4    0    0  0.61127343016E+02  0.30594412059E+02 -0.30774177813E+03  0.31524208495E+03  0.00000000000E+00 0.  1.
         14    1    4    4    0    0 -0.10186331220E+02 -0.28344261405E+02 -0.26726609414E+03  0.26895784721E+03  0.00000000000E+00 0. -1.
         -5    1    5    5    0  502 -0.46215468547E+02  0.19936297556E+02  0.41243169984E+03  0.41551813743E+03  0.47000000000E+01 0.  1.
         13    1    6    6    0    0  0.38078196638E+01  0.16991020172E+02  0.52532861954E+02  0.55343435403E+02  0.00000000000E+00 0. -1.
        -14    1    6    6    0    0  0.29206437255E+02 -0.93111836373E+02  0.30606637903E+03  0.32124672515E+03  0.00000000000E+00 0.  1.
<mgrwt>
<rscale>  2 0.18203199E+03</rscale>
<asrwt>0</asrwt>
<pdfrwt beam="1">  1       21 0.12195179E+00 0.18220543E+03</pdfrwt>
<pdfrwt beam="2">  1       21 0.11647919E+00 0.18220543E+03</pdfrwt>
<totfact> 0.29206585E+02</totfact>
</mgrwt>
</event>
<event>
12    1  0.1019868E-001  0.1771101E+03  0.7546771E-02  0.1170817E+00
         21   -1    0    0  503  502  0.00000000000E+00  0.00000000000E+00  0.18285295403E+03  0.18285295403E+03  0.00000000000E+00 0.  1.
         21   -1    0    0  501  503 -0.00000000000E+00 -0.00000000000E+00 -0.17086801993E+03  0.17086801993E+03  0.00000000000E+00 0. -1.
          6    2    1    2  501    0 -0.24480820626E+02 -0.26514765272E+02  0.90576697250E+01  0.17658672876E+03  0.17262238568E+03 0.  0.
         24    2    3    3    0    0  0.51658814240E+02  0.13594646710E+01 -0.57530410088E+01  0.94029694873E+02  0.78345419803E+02 0.  0.
         -6    2    1    2    0  502  0.24480820626E+02  0.26514765272E+02  0.29272643707E+01  0.17713424519E+03  0.17339443067E+03 0.  0.
        -24    2    5    5    0    0 -0.31174068070E+02  0.87601742353E+01 -0.48246956937E+02  0.99329469857E+02  0.80560607965E+02 0.  0.
          5    1    3    3  501    0 -0.76139634866E+02 -0.27874229943E+02  0.14810710734E+02  0.82557033891E+02  0.47000000000E+01 0. -1.
        -13    1    4    4    0    0  0.52318010663E+02 -0.25206137348E+02  0.15381925715E+02  0.60076012171E+02  0.00000000000E+00 0.  1.
         14    1    4    4    0    0 -0.65919642227E+00  0.26565602019E+02 -0.21134966724E+02  0.33953682701E+02  0.00000000000E+00 0. -1.
         -5    1    5    5    0  502  0.55654888696E+02  0.17754591037E+02  0.51174221308E+02  0.77804775336E+02  0.47000000000E+01 0.  1.
         11    1    6    6    0    0 -0.14451186362E+02  0.41299995143E+02 -0.44734876347E+02  0.62575838371E+02  0.00000000000E+00 0. -1.
        -12    1    6    6    0    0 -0.16722881708E+02 -0.32539820908E+02 -0.35120805906E+01  0.36753631486E+02  0.00000000000E+00 0.  1.
<mgrwt>
<rscale>  2 0.17692081E+03</rscale>
<asrwt>0</asrwt>
<pdfrwt beam="1">  1       21 0.28131224E-01 0.17711006E+03</pdfrwt>
<pdfrwt beam="2">  1       21 0.26287388E-01 0.17711006E+03</pdfrwt>
<totfact> 0.16691598E+05</totfact>
</mgrwt>
</event>
<event>
12    1  0.1019868E-001  0.1739009E+03  0.7546771E-02  0.1174359E+00
         21   -1    0    0  501  502  0.00000000000E+00  0.00000000000E+00  0.23646496472E+03  0.23646496472E+03  0.00000000000E+00 0. -1.
         21   -1    0    0  502  503 -0.00000000000E+00 -0.00000000000E+00 -0.17448796916E+03  0.17448796916E+03  0.00000000000E+00 0. -1.
         -6    2    1    2    0  503  0.57746964914E+01  0.37961539102E+01 -0.76751452008E+02  0.19008502218E+03  0.17376355305E+03 0.  0.
        -24    2    3    3    0    0  0.27633380645E+02  0.65725646385E+02 -0.53752960139E+02  0.12034203157E+03  0.80680601885E+02 0.  0.
          6    2    1    2  501    0 -0.57746964914E+01 -0.37961539102E+01  0.13872844757E+03  0.22086791170E+03  0.17172447219E+03 0.  0.
         24    2    5    5    0    0 -0.33279188707E+02  0.54149177229E+02  0.11723762508E+03  0.15305859121E+03  0.75117466775E+02 0.  0.
          5    1    5    5  501    0  0.27504492216E+02 -0.57945331140E+02  0.21490822489E+02  0.67809320482E+02  0.47000000000E+01 0. -1.
        -13    1    6    6    0    0 -0.43229539216E+02  0.49540269909E+01  0.78132573996E+02  0.89431731301E+02  0.00000000000E+00 0.  1.
         14    1    6    6    0    0  0.99503505085E+01  0.49195150238E+02  0.39105051082E+02  0.63626859913E+02  0.00000000000E+00 0. -1.
         -5    1    3    3    0  503 -0.21858684154E+02 -0.61929492475E+02 -0.22998491869E+02  0.69742990611E+02  0.47000000000E+01 0.  1.
         13    1    4    4    0    0 -0.20281288675E+02  0.23999214607E+01  0.56294033845E+01  0.21184439473E+02  0.00000000000E+00 0. -1.
        -14    1    4    4    0    0  0.47914669320E+02  0.63325724924E+02 -0.59382363523E+02  0.99157592099E+02  0.00000000000E+00 0.  1.
<mgrwt>
<rscale>  2 0.17338930E+03</rscale>
<asrwt>0</asrwt>
<pdfrwt beam="1">  1       21 0.36379225E-01 0.17390092E+03</pdfrwt>
<pdfrwt beam="2">  1       21 0.26844303E-01 0.17390092E+03</pdfrwt>
<totfact> 0.96997267E+04</totfact>
</mgrwt>
</event>
<event>
12    1  0.1019868E-001  0.1854829E+03  0.7546771E-02  0.1162682E+00
         21   -1    0    0  503  502  0.00000000000E+00  0.00000000000E+00  0.13030138191E+03  0.13030138191E+03  0.00000000000E+00 0. -1.
         21   -1    0    0  501  503 -0.00000000000E+00 -0.00000000000E+00 -0.39223194371E+03  0.39223194371E+03  0.00000000000E+00 0. -1.
          6    2    1    2  501    0 -0.19142721542E+02  0.64943324087E+02 -0.28070785649E+03  0.33645328238E+03  0.17268419555E+03 0.  0.
         24    2    3    3    0    0 -0.28371355530E+02 -0.84599845363E+01 -0.59418111513E+02  0.10307707400E+03  0.78853446696E+02 0.  0.
         -6    2    1    2    0  502  0.19142721542E+02 -0.64943324087E+02  0.18777294696E+02  0.18608004325E+03  0.17230530046E+03 0.  0.
        -24    2    5    5    0    0 -0.30623852493E+01 -0.10102545898E+03  0.44001415522E+02  0.13654890661E+03  0.80585096406E+02 0.  0.
          5    1    3    3  501    0  0.92286339882E+01  0.73403308623E+02 -0.22128974498E+03  0.23337620838E+03  0.47000000000E+01 0. -1.
        -11    1    4    4    0    0  0.22330078904E+02  0.19646203952E+01  0.22910614847E+01  0.22533111634E+02  0.00000000000E+00 0.  1.
         12    1    4    4    0    0 -0.50701434434E+02 -0.10424604932E+02 -0.61709172998E+02  0.80543962367E+02  0.00000000000E+00 0. -1.
         -5    1    5    5    0  502  0.22205106791E+02  0.36082134889E+02 -0.25224120826E+02  0.49531136643E+02  0.47000000000E+01 0.  1.
         13    1    6    6    0    0  0.37666884118E+02 -0.46362427840E+02  0.10717189709E+02  0.60688771858E+02  0.00000000000E+00 0. -1.
        -14    1    6    6    0    0 -0.40729269367E+02 -0.54663031135E+02  0.33284225813E+02  0.75860134748E+02  0.00000000000E+00 0.  1.
<mgrwt>
<rscale>  2 0.18539467E+03</rscale>
<asrwt>0</asrwt>
<pdfrwt beam="1">  1       21 0.20046367E-01 0.18548291E+03</pdfrwt>
<pdfrwt beam="2">  1       21 0.60343375E-01 0.18548291E+03</pdfrwt>
<totfact> 0.59019033E+04</totfact>
</mgrwt>
</event>
<event>
12    1  0.1019868E-001  0.1733829E+03  0.7546771E-02  0.1174648E+00
         21   -1    0    0  501  502  0.00000000000E+00  0.00000000000E+00  0.24106521439E+03  0.24106521439E+03  0.00000000000E+00 0. -1.
         21   -1    0    0  502  503 -0.00000000000E+00 -0.00000000000E+00 -0.54848784734E+03  0.54848784734E+03  0.00000000000E+00 0. -1.
         -6    2    1    2    0  503 -0.10421477624E+02  0.35985140510E+01 -0.50115708738E+03  0.53030185879E+03  0.17303201644E+03 0.  0.
        -24    2    3    3    0    0  0.30429522048E+02 -0.50807266730E+02 -0.35207437597E+03  0.36636120491E+03  0.82199951827E+02 0.  0.
          6    2    1    2  501    0  0.10421477624E+02 -0.35985140510E+01  0.19373445443E+03  0.25925120294E+03  0.17192030391E+03 0.  0.
         24    2    5    5    0    0  0.69801720417E+02  0.11346735999E+02  0.11448669493E+03  0.15899318023E+03  0.84679392136E+02 0.  0.
          5    1    5    5  501    0 -0.59380242793E+02 -0.14945250050E+02  0.79247759494E+02  0.10025802271E+03  0.47000000000E+01 0. -1.
        -13    1    6    6    0    0  0.47478092144E+01 -0.31762805596E+02  0.29461865202E+02  0.43582324546E+02  0.00000000000E+00 0.  1.
         14    1    6    6    0    0  0.65053911203E+02  0.43109541595E+02  0.85024829733E+02  0.11541085569E+03  0.00000000000E+00 0. -1.
         -5    1    3    3    0  503 -0.40850999672E+02  0.54405780781E+02 -0.14908271140E+03  0.16394065389E+03  0.47000000000E+01 0.  1.
         11    1    4    4    0    0 -0.13460031077E+02  0.81196242771E+01 -0.15905632488E+03  0.15983120853E+03  0.00000000000E+00 0. -1.
        -12    1    4    4    0    0  0.43889553125E+02 -0.58926891008E+02 -0.19301805109E+03  0.20652999638E+03  0.00000000000E+00 0.  1.
<mgrwt>
<rscale>  2 0.17310488E+03</rscale>
<asrwt>0</asrwt>
<pdfrwt beam="1">  1       21 0.37086956E-01 0.17338291E+03</pdfrwt>
<pdfrwt beam="2">  1       21 0.84382746E-01 0.17338291E+03</pdfrwt>
<totfact> 0.86646231E+03</totfact>
</mgrwt>
</event>
<event>
12    1  0.1019868E-001  0.1961583E+03  0.7546771E-02  0.1153193E+00
         21   -1    0    0  503  502  0.00000000000E+00  0.00000000000E+00  0.71036452546E+02  0.71036452546E+02  0.00000000000E+00 0.  1.
         21   -1    0    0  501  503 -0.00000000000E+00 -0.00000000000E+00 -0.71032969246E+03  0.71032969246E+03  0.00000000000E+00 0.  1.
          6    2    1    2  501    0  0.90084100207E+01  0.92819517184E+02 -0.51075753200E+03  0.54684637713E+03  0.17167145791E+03 0.  0.
         24    2    3    3    0    0 -0.25356340339E+02  0.85873507809E+02 -0.49269214726E+03  0.50712697080E+03  0.80093752541E+02 0.  0.
         -6    2    1    2    0  502 -0.90084100207E+01 -0.92819517184E+02 -0.12853570791E+03  0.23451976788E+03  0.17257311232E+03 0.  0.
        -24    2    5    5    0    0  0.22071129771E+02 -0.12526285322E+03 -0.89825020067E+02  0.17502930477E+03  0.79930007701E+02 0.  0.
          5    1    3    3  501    0  0.34364750360E+02  0.69460093753E+01 -0.18065384736E+02  0.39719406330E+02  0.47000000000E+01 0. -1.
        -13    1    4    4    0    0  0.49700364683E+01  0.84728039920E+02 -0.28963366782E+03  0.30181319313E+03  0.00000000000E+00 0.  1.
         14    1    4    4    0    0 -0.30326376807E+02  0.11454678888E+01 -0.20305847945E+03  0.20531377767E+03  0.00000000000E+00 0. -1.
         -5    1    5    5    0  502 -0.31079539792E+02  0.32443336041E+02 -0.38710687847E+02  0.59490463108E+02  0.47000000000E+01 0.  1.
         13    1    6    6    0    0  0.19317332813E+01 -0.48495622812E+02 -0.81990522332E+02  0.95278553609E+02  0.00000000000E+00 0. -1.
        -14    1    6    6    0    0  0.20139396490E+02 -0.76767230412E+02 -0.78344977351E+01  0.79750751162E+02  0.00000000000E+00 0.  1.
<mgrwt>
<rscale>  2 0.19595984E+03</rscale>
<asrwt>0</asrwt>
<pdfrwt beam="1">  1       21 0.10928685E-01 0.19615834E+03</pdfrwt>
<pdfrwt beam="2">  1       21 0.10928150E+00 0.19615834E+03</pdfrwt>
<totfact> 0.45918696E+04</totfact>
</mgrwt>
</event>
<event>
12    1  0.1019868E-001  0.2542319E+03  0.7546771E-02  0.1111504E+00
         21   -1    0    0  503  502  0.00000000000E+00  0.00000000000E+00  0.24103333431E+03  0.24103333431E+03  0.00000000000E+00 0. -1.
         21   -1    0    0  501  503 -0.00000000000E+00 -0.00000000000E+00 -0.45278380634E+03  0.45278380634E+03  0.00000000000E+00 0.  1.
          6    2    1    2  501    0  0.17173091854E+03 -0.59950400691E+02 -0.33010603798E+03  0.41338552856E+03  0.16979999996E+03 0.  0.
         24    2    3    3    0    0  0.50795091783E+02 -0.82085958654E+02 -0.17347988303E+03  0.21421399562E+03  0.80461917361E+02 0.  0.
         -6    2    1    2    0  502 -0.17173091854E+03  0.59950400691E+02  0.11835556594E+03  0.28043161209E+03  0.17761838346E+03 0.  0.
        -24    2    5    5    0    0 -0.16883040763E+03  0.94214660709E+02  0.12597687058E+03  0.24489815233E+03  0.82005025832E+02 0.  0.
          5    1    3    3  501    0  0.12093582676E+03  0.22135557963E+02 -0.15662615494E+03  0.19917153294E+03  0.47000000000E+01 0. -1.
        -13    1    4    4    0    0  0.89827764290E+01  0.92030111071E+01 -0.65552655839E+02  0.66802218327E+02  0.00000000000E+00 0.  1.
         14    1    4    4    0    0  0.41812315354E+02 -0.91288969761E+02 -0.10792722720E+03  0.14741177730E+03  0.00000000000E+00 0. -1.
         -5    1    5    5    0  502 -0.29005109079E+01 -0.34264260017E+02 -0.76213046322E+01  0.35533459758E+02  0.47000000000E+01 0.  1.
         11    1    6    6    0    0 -0.11033924040E+03  0.37942908901E+02  0.11350366176E+03  0.16278050725E+03  0.00000000000E+00 0. -1.
        -12    1    6    6    0    0 -0.58491167231E+02  0.56271751807E+02  0.12473208818E+02  0.82117645081E+02  0.00000000000E+00 0.  1.
<mgrwt>
<rscale>  2 0.25287114E+03</rscale>
<asrwt>0</asrwt>
<pdfrwt beam="1">  1       21 0.37082052E-01 0.25423188E+03</pdfrwt>
<pdfrwt beam="2">  1       21 0.69659046E-01 0.25423188E+03</pdfrwt>
<totfact> 0.12665422E+04</totfact>
</mgrwt>
</event>
<event>
12    1  0.1019868E-001  0.2231849E+03  0.7546771E-02  0.1131937E+00
         21   -1    0    0  503  502  0.00000000000E+00  0.00000000000E+00  0.31127662570E+03  0.31127662570E+03  0.00000000000E+00 0.  1.
         21   -1    0    0  501  503 -0.00000000000E+00 -0.00000000000E+00 -0.18413494133E+03  0.18413494133E+03  0.00000000000E+00 0.  1.
          6    2    1    2  501    0  0.13232800691E+03 -0.41315843567E+02 -0.28679914541E+02  0.22502007367E+03  0.17491082217E+03 0.  0.
         24    2    3    3    0    0  0.56509772457E+02 -0.84942684854E+02 -0.41399238809E+02  0.13650127811E+03  0.80685115470E+02 0.  0.
         -6    2    1    2    0  502 -0.13232800691E+03  0.41315843567E+02  0.15582159891E+03  0.27039149336E+03  0.17208570147E+03 0.  0.
        -24    2    5    5    0    0 -0.13074218453E+03  0.72844558548E+02  0.16614834012E+03  0.23684590818E+03  0.78043992515E+02 0.  0.
          5    1    3    3  501    0  0.75818234455E+02  0.43626841287E+02  0.12719324269E+02  0.88518795554E+02  0.47000000000E+01 0. -1.
        -13    1    4    4    0    0  0.25430956016E+02  0.86333791393E+01  0.53403399131E+01  0.27382256840E+02  0.00000000000E+00 0.  1.
         14    1    4    4    0    0  0.31078816441E+02 -0.93576063994E+02 -0.46739578722E+02  0.10911902127E+03  0.00000000000E+00 0. -1.
         -5    1    5    5    0  502 -0.15858223777E+01 -0.31528714981E+02 -0.10326741217E+02  0.33545585181E+02  0.47000000000E+01 0.  1.
         13    1    6    6    0    0 -0.61227885221E+01 -0.13954964290E+02  0.67022934934E+01  0.16647831861E+02  0.00000000000E+00 0. -1.
        -14    1    6    6    0    0 -0.12461939601E+03  0.86799522838E+02  0.15944604663E+03  0.22019807632E+03  0.00000000000E+00 0.  1.
<mgrwt>
<rscale>  2 0.22263106E+03</rscale>
<asrwt>0</asrwt>
<pdfrwt beam="1">  1       21 0.47888712E-01 0.22318489E+03</pdfrwt>
<pdfrwt beam="2">  1       21 0.28328453E-01 0.22318489E+03</pdfrwt>
<totfact> 0.48934179E+04</totfact>
</mgrwt>
</event>
<event>
12    1  0.1019868E-001  0.2265077E+03  0.7546771E-02  0.1129199E+00
         21   -1    0    0  503  502  0.00000000000E+00  0.00000000000E+00  0.81719147513E+03  0.81719147513E+03  0.00000000000E+00 0.  1.
         21   -1    0    0  501  503 -0.00000000000E+00 -0.00000000000E+00 -0.21303938147E+03  0.21303938147E+03  0.00000000000E+00 0.  1.
          6    2    1    2  501    0 -0.12798865224E+03  0.64604458371E+02 -0.13078369121E+03  0.26118187518E+03  0.17480493956E+03 0.  0.
         24    2    3    3    0    0 -0.61845960784E+02  0.80835210290E+02 -0.18532880454E+02  0.12980216801E+03  0.78395670002E+02 0.  0.
         -6    2    1    2    0  502  0.12798865224E+03 -0.64604458371E+02  0.73493578486E+03  0.76904898142E+03  0.17535933625E+03 0.  0.
        -24    2    5    5    0    0  0.10401966610E+03 -0.63437145190E+02  0.72971449225E+03  0.74404444556E+03  0.79211958975E+02 0.  0.
          5    1    3    3  501    0 -0.66142691459E+02 -0.16230751919E+02 -0.11225081075E+03  0.13137970717E+03  0.47000000000E+01 0. -1.
        -11    1    4    4    0    0 -0.33259990839E+02  0.25198446805E+01  0.18985055160E+02  0.38379798426E+02  0.00000000000E+00 0.  1.
         12    1    4    4    0    0 -0.28585969945E+02  0.78315365610E+02 -0.37517935613E+02  0.91422369588E+02  0.00000000000E+00 0. -1.
         -5    1    5    5    0  502  0.23968986148E+02 -0.11673131810E+01  0.52212926084E+01  0.25004535859E+02  0.47000000000E+01 0.  1.
         13    1    6    6    0    0 -0.31750140899E+00 -0.37868769518E+02  0.18374086689E+03  0.18760290690E+03  0.00000000000E+00 0. -1.
        -14    1    6    6    0    0  0.10433716750E+03 -0.25568375672E+02  0.54597362536E+03  0.55644153866E+03  0.00000000000E+00 0.  1.
<mgrwt>
<rscale>  2 0.22640037E+03</rscale>
<asrwt>0</asrwt>
<pdfrwt beam="1">  1       21 0.12572176E+00 0.22650768E+03</pdfrwt>
<pdfrwt beam="2">  1       21 0.32775290E-01 0.22650768E+03</pdfrwt>
<totfact> 0.41011138E+03</totfact>
</mgrwt>
</event>
<event>
12    1  0.1019868E-001  0.1766179E+03  0.7546771E-02  0.1171902E+00
         21   -1    0    0  501  502  0.00000000000E+00  0.00000000000E+00  0.75742336987E+02  0.75742336987E+02  0.00000000000E+00 0. -1.
         21   -1    0    0  502  503 -0.00000000000E+00 -0.00000000000E+00 -0.44131089151E+03  0.44131089151E+03  0.00000000000E+00 0. -1.
         -6    2    1    2    0  503  0.91500249280E+01 -0.35861364089E+02 -0.25887714646E+03  0.31338675367E+03  0.17269661267E+03 0.  0.
        -24    2    3    3    0    0 -0.37974075314E+02 -0.73967630587E+02 -0.19489864040E+03  0.22513649810E+03  0.76077079195E+02 0.  0.
          6    2    1    2  501    0 -0.91500249280E+01  0.35861364089E+02 -0.10669140806E+03  0.20366647482E+03  0.16949104998E+03 0.  0.
         24    2    5    5    0    0  0.31269305330E+02 -0.33697226576E+02 -0.68443608556E+02  0.11446387419E+03  0.79398856457E+02 0.  0.
          5    1    5    5  501    0 -0.40419330258E+02  0.69558590664E+02 -0.38247799506E+02  0.89202600639E+02  0.47000000000E+01 0. -1.
        -11    1    6    6    0    0 -0.81705406389E+01 -0.30448730296E+02 -0.67927877452E+02  0.74887111348E+02  0.00000000000E+00 0.  1.
         12    1    6    6    0    0  0.39439845969E+02 -0.32484962801E+01 -0.51573110436E+00  0.39576762837E+02  0.00000000000E+00 0. -1.
         -5    1    3    3    0  503  0.47124100242E+02  0.38106266499E+02 -0.63978506064E+02  0.88250255571E+02  0.47000000000E+01 0.  1.
         11    1    4    4    0    0  0.21023086701E+02 -0.22772854152E+02 -0.83618781135E+02  0.89177764152E+02  0.00000000000E+00 0. -1.
        -12    1    4    4    0    0 -0.58997162016E+02 -0.51194776435E+02 -0.11127985926E+03  0.13595873395E+03  0.00000000000E+00 0.  1.
<mgrwt>
<rscale>  2 0.17582936E+03</rscale>
<asrwt>0</asrwt>
<pdfrwt beam="1">  1       21 0.11652667E-01 0.17661789E+03</pdfrwt>
<pdfrwt beam="2">  1       21 0.67893982E-01 0.17661789E+03</pdfrwt>
<totfact> 0.12326754E+05</totfact>
</mgrwt>
</event>
<event>
12    1  0.1019868E-001  0.2454279E+03  0.7546771E-02  0.1116410E+00
         21   -1    0    0  503  502  0.00000000000E+00  0.00000000000E+00  0.29689049068E+03  0.29689049068E+03  0.00000000000E+00 0. -1.
         21   -1    0    0  501  503 -0.00000000000E+00 -0.00000000000E+00 -0.20691692594E+03  0.20691692594E+03  0.00000000000E+00 0. -1.
          6    2    1    2  501    0  0.13529766926E+03 -0.10891826738E+03  0.61062795838E+01  0.24550382301E+03  0.17339605586E+03 0.  0.
         24    2    3    3    0    0  0.12487394314E+03 -0.89210380208E+02 -0.54072926437E+02  0.18115569390E+03  0.79633601235E+02 0.  0.
         -6    2    1    2    0  502 -0.13529766926E+03  0.10891826738E+03  0.83867285154E+02  0.25830359361E+03  0.17180912863E+03 0.  0.
        -24    2    5    5    0    0 -0.98991725211E+02  0.79301949051E+02 -0.18908511755E+02  0.14525403672E+03  0.68213214135E+02 0.  0.
          5    1    3    3  501    0  0.10423726115E+02 -0.19707887169E+02  0.60179206021E+02  0.64348129111E+02  0.47000000000E+01 0. -1.
        -11    1    4    4    0    0  0.52001237047E+02  0.58100489386E+01 -0.84020954244E+01  0.52995099119E+02  0.00000000000E+00 0.  1.
         12    1    4    4    0    0  0.72872706093E+02 -0.95020429146E+02 -0.45670831013E+02  0.12816059478E+03  0.00000000000E+00 0. -1.
         -5    1    5    5    0  502 -0.36305944044E+02  0.29616318326E+02  0.10277579691E+03  0.11304955690E+03  0.47000000000E+01 0.  1.
         11    1    6    6    0    0 -0.10243620885E+03  0.77882479460E+02 -0.27909248683E+01  0.12871148648E+03  0.00000000000E+00 0. -1.
        -12    1    6    6    0    0  0.34444836348E+01  0.14194695906E+01 -0.16117586887E+02  0.16542550241E+02  0.00000000000E+00 0.  1.
<mgrwt>
<rscale>  2 0.24514775E+03</rscale>
<asrwt>0</asrwt>
<pdfrwt beam="1">  1       21 0.45675460E-01 0.24542787E+03</pdfrwt>
<pdfrwt beam="2">  1       21 0.31833373E-01 0.24542787E+03</pdfrwt>
<totfact> 0.42548752E+04</totfact>
</mgrwt>
</event>
<event>
12    1  0.1019868E-001  0.2720299E+03  0.7546771E-02  0.1100172E+00
         21   -1    0    0  503  502  0.00000000000E+00  0.00000000000E+00  0.27342477825E+04  0.27342477825E+04  0.00000000000E+00 0. -1.
         21   -1    0    0  501  503 -0.00000000000E+00 -0.00000000000E+00 -0.27195033910E+02  0.27195033910E+02  0.00000000000E+00 0.  1.
          6    2    1    2  501    0  0.18293450653E+03 -0.10457259657E+03  0.12452000170E+04  0.12744950387E+04  0.17150527623E+03 0.  0.
         24    2    3    3    0    0  0.91723710745E+02 -0.10858369281E+03  0.99334758688E+03  0.10065636394E+04  0.78913081606E+02 0.  0.
         -6    2    1    2    0  502 -0.18293450653E+03  0.10457259657E+03  0.14618527316E+04  0.14869477777E+04  0.17204599112E+03 0.  0.
        -24    2    5    5    0    0 -0.16752079813E+03  0.43526459279E+02  0.81464459000E+03  0.83666731371E+03  0.80053827812E+02 0.  0.
          5    1    3    3  501    0  0.91210795788E+02  0.40110962372E+01  0.25185243011E+03  0.26793139927E+03  0.47000000000E+01 0. -1.
        -13    1    4    4    0    0  0.35402474338E+01 -0.51704365550E+02  0.21414793330E+03  0.22032978034E+03  0.00000000000E+00 0.  1.
         14    1    4    4    0    0  0.88183463312E+02 -0.56879327256E+02  0.77919965358E+03  0.78623385911E+03  0.00000000000E+00 0. -1.
         -5    1    5    5    0  502 -0.15413708403E+02  0.61046137290E+02  0.64720814165E+03  0.65028046403E+03  0.47000000000E+01 0.  1.
         13    1    6    6    0    0 -0.45460132187E+02  0.27953850910E+02  0.41749375851E+03  0.42089081695E+03  0.00000000000E+00 0. -1.
        -14    1    6    6    0    0 -0.12206066594E+03  0.15572608369E+02  0.39715083149E+03  0.41577649676E+03  0.00000000000E+00 0.  1.
<mgrwt>
<rscale>  2 0.27194448E+03</rscale>
<asrwt>0</asrwt>
<pdfrwt beam="1">  1       21 0.42065329E+00 0.27202993E+03</pdfrwt>
<pdfrwt beam="2">  1       21 0.41838535E-02 0.27202993E+03</pdfrwt>
<totfact> 0.21271959E+03</totfact>
</mgrwt>
</event>
<event>
12    1  0.1019868E-001  0.2030642E+03  0.7546771E-02  0.1147263E+00
         21   -1    0    0  501  502  0.00000000000E+00  0.00000000000E+00  0.61608053552E+02  0.61608053552E+02  0.00000000000E+00 0. -1.
         21   -1    0    0  502  503 -0.00000000000E+00 -0.00000000000E+00 -0.93251432593E+03  0.93251432593E+03  0.00000000000E+00 0. -1.
         -6    2    1    2    0  503 -0.95624073289E+02  0.42833632171E+02 -0.69988592998E+03  0.72863600227E+03  0.17346880232E+03 0.  0.
        -24    2    3    3    0    0  0.24098834417E+02  0.36333764507E+02 -0.27850800795E+03  0.29050672217E+03  0.70189378590E+02 0.  0.
          6    2    1    2  501    0  0.95624073289E+02 -0.42833632171E+02 -0.17102034239E+03  0.26548637721E+03  0.17394359872E+03 0.  0.
         24    2    5    5    0    0  0.26573528205E+02 -0.77727775247E+02 -0.14173195900E+03  0.18262819476E+03  0.80730105121E+02 0.  0.
          5    1    5    5  501    0  0.69050545084E+02  0.34894143076E+02 -0.29288383392E+02  0.82858182451E+02  0.47000000000E+01 0. -1.
        -13    1    6    6    0    0 -0.56945655931E+01  0.62357086087E+01 -0.61554985557E+02  0.62131540992E+02  0.00000000000E+00 0.  1.
         14    1    6    6    0    0  0.32268093798E+02 -0.83963483856E+02 -0.80176973445E+02  0.12049665377E+03  0.00000000000E+00 0. -1.
         -5    1    3    3    0  503 -0.11972290771E+03  0.64998676643E+01 -0.42137792203E+03  0.43812928010E+03  0.47000000000E+01 0.  1.
         13    1    4    4    0    0  0.50527038141E+01  0.23505350555E+02 -0.25973719824E+03  0.26084754833E+03  0.00000000000E+00 0. -1.
        -14    1    4    4    0    0  0.19046130603E+02  0.12828413952E+02 -0.18770809717E+02  0.29659173840E+02  0.00000000000E+00 0.  1.
<mgrwt>
<rscale>  2 0.20296246E+03</rscale>
<asrwt>0</asrwt>
<pdfrwt beam="1">  1       21 0.94781622E-02 0.20306417E+03</pdfrwt>
<pdfrwt beam="2">  1       21 0.14346374E+00 0.20306417E+03</pdfrwt>
<totfact> 0.29762216E+04</totfact>
</mgrwt>
</event>
<event>
12    1  0.1019868E-001  0.1907715E+03  0.7546771E-02  0.1158054E+00
         21   -1    0    0  501  502  0.00000000000E+00  0.00000000000E+00  0.12573905016E+03  0.12573905016E+03  0.00000000000E+00 0. -1.
         21   -1    0    0  502  503 -0.00000000000E+00 -0.00000000000E+00 -0.33071600236E+03  0.33071600236E+03  0.00000000000E+00 0.  1.
         -6    2    1    2    0  503 -0.13447893447E+02  0.77308792487E+02 -0.18467951779E+03  0.26460680934E+03  0.17248983745E+03 0.  0.
        -24    2    3    3    0    0 -0.14112206920E+02  0.75501917302E+01 -0.17609746524E+02  0.83496063764E+02  0.80033303768E+02 0.  0.
          6    2    1    2  501    0  0.13447893447E+02 -0.77308792487E+02 -0.20297434408E+02  0.19184824319E+03  0.17388578820E+03 0.  0.
         24    2    5    5    0    0  0.12254717629E+02  0.26126932019E+02 -0.85470656481E+01  0.87634357651E+02  0.82303910167E+02 0.  0.
          5    1    5    5  501    0  0.11931758182E+01 -0.10343572451E+03 -0.11750368760E+02  0.10421388554E+03  0.47000000000E+01 0. -1.
        -11    1    6    6    0    0  0.12822869127E+02 -0.10069352548E+01 -0.42364025947E+02  0.44273587902E+02  0.00000000000E+00 0.  1.
         12    1    6    6    0    0 -0.56815149863E+00  0.27133867274E+02  0.33816960299E+02  0.43360769749E+02  0.00000000000E+00 0. -1.
         -5    1    3    3    0  503  0.66431347329E+00  0.69758600756E+02 -0.16706977127E+03  0.18111074558E+03  0.47000000000E+01 0.  1.
         13    1    4    4    0    0 -0.29834077414E+02 -0.29004748993E+02 -0.12034956875E+02  0.43314983854E+02  0.00000000000E+00 0. -1.
        -14    1    4    4    0    0  0.15721870494E+02  0.36554940723E+02 -0.55747896482E+01  0.40181079910E+02  0.00000000000E+00 0.  1.
<mgrwt>
<rscale>  2 0.19045282E+03</rscale>
<asrwt>0</asrwt>
<pdfrwt beam="1">  1       21 0.19344469E-01 0.19077149E+03</pdfrwt>
<pdfrwt beam="2">  1       21 0.50879385E-01 0.19077149E+03</pdfrwt>
<totfact> 0.90320437E+04</totfact>
</mgrwt>
</event>
<event>
12    1  0.1019868E-001  0.1782596E+03  0.7546771E-02  0.1169567E+00
         21   -1    0    0  503  502  0.00000000000E+00  0.00000000000E+00  0.24578511987E+03  0.24578511987E+03  0.00000000000E+00 0. -1.
         21   -1    0    0  501  503 -0.00000000000E+00 -0.00000000000E+00 -0.17248708670E+03  0.17248708670E+03  0.00000000000E+00 0.  1.
          6    2    1    2  501    0  0.22983830125E+01 -0.41609609332E+02 -0.68282007811E+02  0.19062906954E+03  0.17303285066E+03 0.  0.
         24    2    3    3    0    0 -0.56359762418E+02 -0.18368147638E+01 -0.27112186927E+02  0.10853340969E+03  0.88682769643E+02 0.  0.
         -6    2    1    2    0  502 -0.22983830125E+01  0.41609609332E+02  0.14158004099E+03  0.22764313703E+03  0.17332007293E+03 0.  0.
        -24    2    5    5    0    0 -0.63077204841E+01 -0.32006907777E+02  0.11477378456E+03  0.14905476791E+03  0.89331252824E+02 0.  0.
          5    1    3    3  501    0  0.58658145431E+02 -0.39772794568E+02 -0.41169820884E+02  0.82095659841E+02  0.47000000000E+01 0. -1.
        -13    1    4    4    0    0 -0.31247291119E+02 -0.24580545174E+02 -0.52743882589E+02  0.66049326673E+02  0.00000000000E+00 0.  1.
         14    1    4    4    0    0 -0.25112471299E+02  0.22743730410E+02  0.25631695662E+02  0.42484083022E+02  0.00000000000E+00 0. -1.
         -5    1    5    5    0  502  0.40093374716E+01  0.73616517109E+02  0.26806256432E+02  0.78588369127E+02  0.47000000000E+01 0.  1.
         11    1    6    6    0    0  0.22477894076E+02 -0.35888852833E+02  0.14660372773E+02  0.44812855406E+02  0.00000000000E+00 0. -1.
        -12    1    6    6    0    0 -0.28785614560E+02  0.38819450560E+01  0.10011341178E+03  0.10424191250E+03  0.00000000000E+00 0.  1.
<mgrwt>
<rscale>  2 0.17818976E+03</rscale>
<asrwt>0</asrwt>
<pdfrwt beam="1">  1       21 0.37813095E-01 0.17825961E+03</pdfrwt>
<pdfrwt beam="2">  1       21 0.26536475E-01 0.17825961E+03</pdfrwt>
<totfact> 0.91647539E+04</totfact>
</mgrwt>
</event>
<event>
12    1  0.1019868E-001  0.1833635E+03  0.7546771E-02  0.1165126E+00
         21   -1    0    0  503  502  0.00000000000E+00  0.00000000000E+00  0.30874481152E+03  0.30874481152E+03  0.00000000000E+00 0. -1.
         21   -1    0    0  501  503 -0.00000000000E+00 -0.00000000000E+00 -0.12259856435E+03  0.12259856435E+03  0.00000000000E+00 0. -1.
          6    2    1    2  501    0 -0.50562038099E+02 -0.26367151564E+02  0.17027162212E+02  0.18189711073E+03  0.17188626548E+03 0.  0.
         24    2    3    3    0    0 -0.21803800774E+02 -0.16257665599E+02 -0.56019042598E+02  0.10260602701E+03  0.81548428713E+02 0.  0.
         -6    2    1    2    0  502  0.50562038099E+02  0.26367151564E+02  0.16911908496E+03  0.24944626514E+03  0.17427113334E+03 0.  0.
        -24    2    5    5    0    0  0.91560114968E+01  0.46248111657E+02  0.17935667879E+03  0.20215345447E+03  0.80464156918E+02 0.  0.
          5    1    3    3  501    0 -0.28758237324E+02 -0.10109485965E+02  0.73046204810E+02  0.79291083721E+02  0.47000000000E+01 0. -1.
        -13    1    4    4    0    0 -0.60368750809E+00  0.28338148825E+02 -0.55995935287E+00  0.28350108852E+02  0.00000000000E+00 0.  1.
         14    1    4    4    0    0 -0.21200113266E+02 -0.44595814424E+02 -0.55459083245E+02  0.74255918155E+02  0.00000000000E+00 0. -1.
         -5    1    5    5    0  502  0.41406026602E+02 -0.19880960093E+02 -0.10237593833E+02  0.47292810666E+02  0.47000000000E+01 0.  1.
         11    1    6    6    0    0  0.42856090556E+02  0.36039773966E+02  0.88673485849E+02  0.10487371881E+03  0.00000000000E+00 0. -1.
        -12    1    6    6    0    0 -0.33700079059E+02  0.10208337691E+02  0.90683192946E+02  0.97279735659E+02  0.00000000000E+00 0.  1.
<mgrwt>
<rscale>  2 0.18279459E+03</rscale>
<asrwt>0</asrwt>
<pdfrwt beam="1">  1       21 0.47499201E-01 0.18336350E+03</pdfrwt>
<pdfrwt beam="2">  1       21 0.18861318E-01 0.18336350E+03</pdfrwt>
<totfact> 0.10950937E+05</totfact>
</mgrwt>
</event>
<event>
12    1  0.1019868E-001  0.1994041E+03  0.7546771E-02  0.1151977E+00
         21   -1    0    0  503  502  0.00000000000E+00  0.00000000000E+00  0.44072601746E+02  0.44072601746E+02  0.00000000000E+00 0.  1.
         21   -1    0    0  501  503 -0.00000000000E+00 -0.00000000000E+00 -0.13682272768E+04  0.13682272768E+04  0.00000000000E+00 0.  1.
          6    2    1    2  501    0 -0.73535666927E+02 -0.65345260506E+02 -0.10811221496E+04  0.10979325918E+04  0.16417483491E+03 0.  0.
         24    2    3    3    0    0 -0.85340385008E+02  0.73749662199E+01 -0.65430177575E+03  0.66477522516E+03  0.80485494365E+02 0.  0.
         -6    2    1    2    0  502  0.73535666927E+02  0.65345260506E+02 -0.24303252540E+03  0.31436728669E+03  0.17344879692E+03 0.  0.
        -24    2    5    5    0    0  0.11007187794E+03  0.14479310598E+02 -0.15317735380E+03  0.20473936397E+03  0.78290719086E+02 0.  0.
          5    1    3    3  501    0  0.11804718081E+02 -0.72720226726E+02 -0.42682037389E+03  0.43315736669E+03  0.47000000000E+01 0. -1.
        -13    1    4    4    0    0 -0.33594722525E+02 -0.29012035067E+02 -0.41078447144E+03  0.41317573203E+03  0.00000000000E+00 0.  1.
         14    1    4    4    0    0 -0.51745662483E+02  0.36387001287E+02 -0.24351730431E+03  0.25159949314E+03  0.00000000000E+00 0. -1.
         -5    1    5    5    0  502 -0.36536211008E+02  0.50865949908E+02 -0.89855171603E+02  0.10962792271E+03  0.47000000000E+01 0.  1.
         13    1    6    6    0    0  0.23919146016E+02 -0.27250695528E+02 -0.22223415724E+02  0.42527710488E+02  0.00000000000E+00 0. -1.
        -14    1    6    6    0    0  0.86152731919E+02  0.41730006127E+02 -0.13095393807E+03  0.16221165348E+03  0.00000000000E+00 0.  1.
<mgrwt>
<rscale>  2 0.19737013E+03</rscale>
<asrwt>0</asrwt>
<pdfrwt beam="1">  1       21 0.67804001E-02 0.19940407E+03</pdfrwt>
<pdfrwt beam="2">  1       21 0.21049651E+00 0.19940407E+03</pdfrwt>
<totfact> 0.18315137E+04</totfact>
</mgrwt>
</event>
<event>
12    1  0.1019868E-001  0.2258340E+03  0.7546771E-02  0.1130593E+00
         21   -1    0    0  501  502  0.00000000000E+00  0.00000000000E+00  0.12084651301E+04  0.12084651301E+04  0.00000000000E+00 0.  1.
         21   -1    0    0  502  503 -0.00000000000E+00 -0.00000000000E+00 -0.43859358565E+02  0.43859358565E+02  0.00000000000E+00 0. -1.
         -6    2    1    2    0  503 -0.12979931177E+03  0.41310709459E+02  0.42147281100E+03  0.47563434514E+03  0.17330396363E+03 0.  0.
        -24    2    3    3    0    0 -0.13278364232E+03 -0.12605071272E+02  0.36662161819E+03  0.39852039703E+03  0.81343176925E+02 0.  0.
          6    2    1    2  501    0  0.12979931177E+03 -0.41310709459E+02  0.74313296052E+03  0.77669014351E+03  0.18012924794E+03 0.  0.
         24    2    5    5    0    0  0.14453968660E+03 -0.43423876773E+02  0.74165343326E+03  0.76100501912E+03  0.79381798777E+02 0.  0.
          5    1    5    5  501    0 -0.14740374829E+02  0.21131673135E+01  0.14795272532E+01  0.15685124389E+02  0.47000000000E+01 0. -1.
        -11    1    6    6    0    0  0.11815637796E+03 -0.40499150210E+02  0.41794323366E+03  0.43620827294E+03  0.00000000000E+00 0.  1.
         12    1    6    6    0    0  0.26383308639E+02 -0.29247265626E+01  0.32371019961E+03  0.32479674618E+03  0.00000000000E+00 0. -1.
         -5    1    3    3    0  503  0.29843305505E+01  0.53915780731E+02  0.54851192810E+02  0.77113948112E+02  0.47000000000E+01 0.  1.
         11    1    4    4    0    0 -0.91053751951E+02  0.72230933993E+01  0.32040933630E+03  0.33317428114E+03  0.00000000000E+00 0. -1.
        -12    1    4    4    0    0 -0.41729890369E+02 -0.19828164671E+02  0.46212281891E+02  0.65346115891E+02  0.00000000000E+00 0.  1.
<mgrwt>
<rscale>  2 0.22447029E+03</rscale>
<asrwt>0</asrwt>
<pdfrwt beam="1">  1       21 0.18591769E+00 0.22583397E+03</pdfrwt>
<pdfrwt beam="2">  1       21 0.67475945E-02 0.22583397E+03</pdfrwt>
<totfact> 0.26163059E+04</totfact>
</mgrwt>
</event>
<event>
12    1  0.1019868E-001  0.1956749E+03  0.7546771E-02  0.1154152E+00
         21   -1    0    0  503  502  0.00000000000E+00  0.00000000000E+00  0.12552702304E+03  0.12552702304E+03  0.00000000000E+00 0.  1.
         21   -1    0    0  501  503 -0.00000000000E+00 -0.00000000000E+00 -0.32062170178E+03  0.32062170178E+03  0.00000000000E+00 0.  1.
          6    2    1    2  501    0 -0.40086323820E+02 -0.75904996862E+02 -0.15491075543E+03  0.24957163935E+03  0.17584134643E+03 0.  0.
         24    2    3    3    0    0  0.37937043700E+02 -0.30417609530E+02 -0.12090789079E+03  0.15295366437E+03  0.80072811459E+02 0.  0.
         -6    2    1    2    0  502  0.40086323820E+02  0.75904996862E+02 -0.40183923305E+02  0.19657708546E+03  0.17221881700E+03 0.  0.
        -24    2    5    5    0    0  0.90303862583E+02  0.41950885409E+02 -0.46398093603E+02  0.13545925830E+03  0.79257574941E+02 0.  0.
          5    1    3    3  501    0 -0.78023367520E+02 -0.45487387332E+02 -0.34002864639E+02  0.96617974980E+02  0.47000000000E+01 0. -1.
        -11    1    4    4    0    0  0.65234575503E+01 -0.52934327904E+02 -0.84066731850E+02  0.99558093458E+02  0.00000000000E+00 0.  1.
         12    1    4    4    0    0  0.31413586150E+02  0.22516718374E+02 -0.36841158945E+02  0.53395570917E+02  0.00000000000E+00 0. -1.
         -5    1    5    5    0  502 -0.50217538762E+02  0.33954111453E+02  0.62141702974E+01  0.61117827157E+02  0.47000000000E+01 0.  1.
         13    1    6    6    0    0 -0.11676556184E+02 -0.57170238719E+01  0.15677989341E+01  0.13095202166E+02  0.00000000000E+00 0. -1.
        -14    1    6    6    0    0  0.10198041877E+03  0.47667909280E+02 -0.47965892537E+02  0.12236405613E+03  0.00000000000E+00 0.  1.
<mgrwt>
<rscale>  2 0.19485758E+03</rscale>
<asrwt>0</asrwt>
<pdfrwt beam="1">  1       21 0.19311850E-01 0.19567489E+03</pdfrwt>
<pdfrwt beam="2">  1       21 0.49326415E-01 0.19567489E+03</pdfrwt>
<totfact> 0.96465971E+04</totfact>
</mgrwt>
</event>
<event>
12    1  0.1019868E-001  0.2917946E+03  0.7546771E-02  0.1089550E+00
         21   -1    0    0  501  502  0.00000000000E+00  0.00000000000E+00  0.42065893715E+03  0.42065893715E+03  0.00000000000E+00 0.  1.
         21   -1    0    0  502  503 -0.00000000000E+00 -0.00000000000E+00 -0.22882474613E+03  0.22882474613E+03  0.00000000000E+00 0. -1.
         -6    2    1    2    0  503 -0.18391693918E+03  0.14557424247E+03 -0.16056502874E+02  0.29120635879E+03  0.17183140436E+03 0.  0.
        -24    2    3    3    0    0 -0.17280024418E+03  0.57105629382E+02 -0.13347554918E+02  0.20187716530E+03  0.86343820581E+02 0.  0.
          6    2    1    2  501    0  0.18391693918E+03 -0.14557424247E+03  0.20789069390E+03  0.35827732449E+03  0.17357073499E+03 0.  0.
         24    2    5    5    0    0  0.14403907547E+03 -0.37764696959E+02  0.77448599332E+02  0.18435098332E+03  0.76246782983E+02 0.  0.
          5    1    5    5  501    0  0.39877863717E+02 -0.10780954551E+03  0.13044209456E+03  0.17392634117E+03  0.47000000000E+01 0. -1.
        -11    1    6    6    0    0  0.91690612164E+02 -0.12665762813E+02  0.85172089855E+02  0.12578503407E+03  0.00000000000E+00 0.  1.
         12    1    6    6    0    0  0.52348463302E+02 -0.25098934146E+02 -0.77234905226E+01  0.58565949247E+02  0.00000000000E+00 0. -1.
         -5    1    3    3    0  503 -0.11116695004E+02  0.88468613089E+02 -0.27089479562E+01  0.89329193485E+02  0.47000000000E+01 0.  1.
         11    1    4    4    0    0 -0.22863735122E+02  0.32088362352E+02 -0.29203125575E+02  0.49043204682E+02  0.00000000000E+00 0. -1.
        -12    1    4    4    0    0 -0.14993650906E+03  0.25017267030E+02  0.15855570657E+02  0.15283396062E+03  0.00000000000E+00 0.  1.
<mgrwt>
<rscale>  2 0.29153646E+03</rscale>
<asrwt>0</asrwt>
<pdfrwt beam="1">  1       21 0.64716759E-01 0.29179462E+03</pdfrwt>
<pdfrwt beam="2">  1       21 0.35203807E-01 0.29179462E+03</pdfrwt>
<totfact> 0.16251043E+04</totfact>
</mgrwt>
</event>
<event>
12    1  0.1019868E-001  0.1844544E+03  0.7546771E-02  0.1164565E+00
         21   -1    0    0  503  502  0.00000000000E+00  0.00000000000E+00  0.47915899712E+02  0.47915899712E+02  0.00000000000E+00 0.  1.
         21   -1    0    0  501  503 -0.00000000000E+00 -0.00000000000E+00 -0.73736856829E+03  0.73736856829E+03  0.00000000000E+00 0. -1.
          6    2    1    2  501    0 -0.48687231424E+02  0.40314298966E+02 -0.44385451778E+03  0.48065606685E+03  0.17328511893E+03 0.  0.
         24    2    3    3    0    0 -0.58040797523E+02  0.43207368971E+02 -0.15913040017E+03  0.19572489586E+03  0.88034877697E+02 0.  0.
         -6    2    1    2    0  502  0.48687231424E+02 -0.40314298966E+02 -0.24559815080E+03  0.30462840115E+03  0.16877298927E+03 0.  0.
        -24    2    5    5    0    0  0.86625350259E+02 -0.63879071435E+02 -0.19785788140E+03  0.23908587538E+03  0.80186205172E+02 0.  0.
          5    1    3    3  501    0  0.93535660985E+01 -0.28930700054E+01 -0.28472411761E+03  0.28493117099E+03  0.47000000000E+01 0. -1.
        -11    1    4    4    0    0 -0.48995383292E+02  0.31288034180E+02 -0.16838067314E+03  0.17813348858E+03  0.00000000000E+00 0.  1.
         12    1    4    4    0    0 -0.90454142310E+01  0.11919334791E+02  0.92502729624E+01  0.17591407287E+02  0.00000000000E+00 0. -1.
         -5    1    5    5    0  502 -0.37938118835E+02  0.23564772470E+02 -0.47740269401E+02  0.65542525774E+02  0.47000000000E+01 0.  1.
         11    1    6    6    0    0  0.19204969477E+02 -0.80777177671E+00 -0.10990846743E+03  0.11157667570E+03  0.00000000000E+00 0. -1.
        -12    1    6    6    0    0  0.67420380782E+02 -0.63071299659E+02 -0.87949413970E+02  0.12750919968E+03  0.00000000000E+00 0.  1.
<mgrwt>
<rscale>  2 0.18338709E+03</rscale>
<asrwt>0</asrwt>
<pdfrwt beam="1">  1       21 0.73716770E-02 0.18445439E+03</pdfrwt>
<pdfrwt beam="2">  1       21 0.11344132E+00 0.18445439E+03</pdfrwt>
<totfact> 0.84136272E+04</totfact>
</mgrwt>
</event>
<event>
12    1  0.1019868E-001  0.2093832E+03  0.7546771E-02  0.1142098E+00
         21   -1    0    0  501  502  0.00000000000E+00  0.00000000000E+00  0.54004451669E+03  0.54004451669E+03  0.00000000000E+00 0.  1.
         21   -1    0    0  502  503 -0.00000000000E+00 -0.00000000000E+00 -0.13012374701E+03  0.13012374701E+03  0.00000000000E+00 0.  1.
         -6    2    1    2    0  503 -0.97162541190E+02  0.68131033088E+02 -0.78428582917E+00  0.20916936880E+03  0.17224637197E+03 0.  0.
        -24    2    3    3    0    0 -0.38509023414E+02  0.28709571621E+02  0.63948712608E+02  0.11321762124E+03  0.80134933261E+02 0.  0.
          6    2    1    2  501    0  0.97162541190E+02 -0.68131033088E+02  0.41070505551E+03  0.46099889491E+03  0.17250780098E+03 0.  0.
         24    2    5    5    0    0  0.50581015700E+02 -0.10988700225E+03  0.24676487659E+03  0.28546578765E+03  0.77228357399E+02 0.  0.
          5    1    5    5  501    0  0.46581525490E+02  0.41755969161E+02  0.16394017892E+03  0.17553310725E+03  0.47000000000E+01 0. -1.
        -11    1    6    6    0    0  0.56159892496E+02 -0.51254309016E+02  0.88942391639E+02  0.11701148127E+03  0.00000000000E+00 0.  1.
         12    1    6    6    0    0 -0.55788767962E+01 -0.58632693232E+02  0.15782248495E+03  0.16845430638E+03  0.00000000000E+00 0. -1.
         -5    1    3    3    0  503 -0.58653517777E+02  0.39421461467E+02 -0.64732998437E+02  0.95951747552E+02  0.47000000000E+01 0.  1.
         13    1    4    4    0    0  0.13055437232E+02  0.16786381820E+02 -0.90005052321E+01  0.23091906599E+02  0.00000000000E+00 0. -1.
        -14    1    4    4    0    0 -0.51564460646E+02  0.11923189801E+02  0.72949217840E+02  0.90125714644E+02  0.00000000000E+00 0.  1.
<mgrwt>
<rscale>  2 0.20932938E+03</rscale>
<asrwt>0</asrwt>
<pdfrwt beam="1">  1       21 0.83083770E-01 0.20938323E+03</pdfrwt>
<pdfrwt beam="2">  1       21 0.20019038E-01 0.20938323E+03</pdfrwt>
<totfact> 0.28813371E+04</totfact>
</mgrwt>
</event>
<event>
12    1  0.1019868E-001  0.2334254E+03  0.7546771E-02  0.1124550E+00
         21   -1    0    0  501  502  0.00000000000E+00  0.00000000000E+00  0.99891849967E+03  0.99891849967E+03  0.00000000000E+00 0.  1.
         21   -1    0    0  502  503 -0.00000000000E+00 -0.00000000000E+00 -0.59286499210E+02  0.59286499210E+02  0.00000000000E+00 0.  1.
         -6    2    1    2    0  503  0.29640900537E+02 -0.15069574916E+03  0.31241438347E+03  0.38895963068E+03  0.17349079370E+03 0.  0.
        -24    2    3    3    0    0 -0.48649721782E+02 -0.86841636531E+02  0.14029683444E+03  0.18932669270E+03  0.79076732032E+02 0.  0.
          6    2    1    2  501    0 -0.29640900537E+02  0.15069574916E+03  0.62721761698E+03  0.66924536820E+03  0.17578291157E+03 0.  0.
         24    2    5    5    0    0 -0.62893203857E+02  0.50421607502E+02  0.42553297959E+03  0.44151877308E+03  0.85805691374E+02 0.  0.
          5    1    5    5  501    0  0.33252303320E+02  0.10027414166E+03  0.20168463740E+03  0.22772659512E+03  0.47000000000E+01 0. -1.
        -11    1    6    6    0    0 -0.29128344044E+02  0.39801510120E+02  0.78656585043E+02  0.92841149310E+02  0.00000000000E+00 0.  1.
         12    1    6    6    0    0 -0.33764859813E+02  0.10620097381E+02  0.34687639454E+03  0.34867762377E+03  0.00000000000E+00 0. -1.
         -5    1    3    3    0  503  0.78290622319E+02 -0.63854112628E+02  0.17211754903E+03  0.19963293798E+03  0.47000000000E+01 0.  1.
         11    1    4    4    0    0 -0.57684199854E+02 -0.27473780547E+02  0.51172771562E+02  0.81859196671E+02  0.00000000000E+00 0. -1.
        -12    1    4    4    0    0  0.90344780714E+01 -0.59367855984E+02  0.89124062879E+02  0.10746749603E+03  0.00000000000E+00 0.  1.
<mgrwt>
<rscale>  2 0.23299392E+03</rscale>
<asrwt>0</asrwt>
<pdfrwt beam="1">  1       21 0.15367976E+00 0.23342541E+03</pdfrwt>
<pdfrwt beam="2">  1       21 0.91210006E-02 0.23342541E+03</pdfrwt>
<totfact> 0.26093235E+04</totfact>
</mgrwt>
</event>
<event>
12    1  0.1019868E-001  0.2049900E+03  0.7546771E-02  0.1145767E+00
         21   -1    0    0  503  502  0.00000000000E+00  0.00000000000E+00  0.88686291392E+03  0.88686291392E+03  0.00000000000E+00 0.  1.
         21   -1    0    0  501  503 -0.00000000000E+00 -0.00000000000E+00 -0.47340159434E+02  0.47340159434E+02  0.00000000000E+00 0.  1.
          6    2    1    2  501    0  0.96229162826E+02 -0.51742408246E+02  0.44707154244E+03  0.49182705918E+03  0.17344614005E+03 0.  0.
         24    2    3    3    0    0  0.13009419352E+03 -0.63455290739E+02  0.39698947661E+03  0.43006675447E+03  0.80035589906E+02 0.  0.
         -6    2    1    2    0  502 -0.96229162826E+02  0.51742408246E+02  0.39245121205E+03  0.44237601417E+03  0.17245653216E+03 0.  0.
        -24    2    5    5    0    0 -0.13477051880E+03  0.50585082588E+02  0.31189245054E+03  0.35294123582E+03  0.81047343676E+02 0.  0.
          5    1    3    3  501    0 -0.33865030698E+02  0.11712882493E+02  0.50082065825E+02  0.61760304709E+02  0.47000000000E+01 0. -1.
        -11    1    4    4    0    0  0.27275525151E+01  0.14987565467E+02  0.48325408948E+02  0.50669634016E+02  0.00000000000E+00 0.  1.
         12    1    4    4    0    0  0.12736664101E+03 -0.78442856206E+02  0.34866406766E+03  0.37939712046E+03  0.00000000000E+00 0. -1.
         -5    1    5    5    0  502  0.38541355978E+02  0.11573256579E+01  0.80558761509E+02  0.89434778354E+02  0.47000000000E+01 0.  1.
         11    1    6    6    0    0 -0.71032382870E+02  0.15905923062E+02  0.72275265563E+02  0.10257832040E+03  0.00000000000E+00 0. -1.
        -12    1    6    6    0    0 -0.63738135934E+02  0.34679159526E+02  0.23961718498E+03  0.25036291541E+03  0.00000000000E+00 0.  1.
<mgrwt>
<rscale>  2 0.20478050E+03</rscale>
<asrwt>0</asrwt>
<pdfrwt beam="1">  1       21 0.13644044E+00 0.20498998E+03</pdfrwt>
<pdfrwt beam="2">  1       21 0.72831021E-02 0.20498998E+03</pdfrwt>
<totfact> 0.53646370E+04</totfact>
</mgrwt>
</event>
<event>
12    1  0.1019868E-001  0.1792480E+03  0.7546771E-02  0.1168815E+00
         21   -1    0    0  501  502  0.00000000000E+00  0.00000000000E+00  0.11382964750E+03  0.11382964750E+03  0.00000000000E+00 0.  1.
         21   -1    0    0  502  503 -0.00000000000E+00 -0.00000000000E+00 -0.43893170230E+03  0.43893170230E+03  0.00000000000E+00 0. -1.
         -6    2    1    2    0  503  0.51115924939E+02 -0.11864710835E+02 -0.32896165369E+03  0.37462728885E+03  0.17139494394E+03 0.  0.
        -24    2    3    3    0    0  0.45931929473E+02 -0.22498528945E+01 -0.70605247679E+02  0.11599735665E+03  0.79721275502E+02 0.  0.
          6    2    1    2  501    0 -0.51115924939E+02  0.11864710835E+02  0.38595988897E+01  0.17813406094E+03  0.17018589254E+03 0.  0.
         24    2    5    5    0    0  0.32928769367E+02 -0.91150237407E+01  0.17779093477E+02  0.90273363055E+02  0.81644328662E+02 0.  0.
          5    1    5    5  501    0 -0.84044694307E+02  0.20979734576E+02 -0.13919494587E+02  0.87860697889E+02  0.47000000000E+01 0. -1.
        -11    1    6    6    0    0  0.16249943768E+02  0.20188233200E+02 -0.24861506404E+02  0.35912670924E+02  0.00000000000E+00 0.  1.
         12    1    6    6    0    0  0.16678825599E+02 -0.29303256941E+02  0.42640599882E+02  0.54360692131E+02  0.00000000000E+00 0. -1.
         -5    1    3    3    0  503  0.51839954664E+01 -0.96148579409E+01 -0.25835640601E+03  0.25862993220E+03  0.47000000000E+01 0.  1.
         13    1    4    4    0    0  0.52821126996E+02 -0.24853554557E+02 -0.71556800008E+02  0.92347962937E+02  0.00000000000E+00 0. -1.
        -14    1    4    4    0    0 -0.68891975227E+01  0.22603701662E+02  0.95155232875E+00  0.23649393717E+02  0.00000000000E+00 0.  1.
<mgrwt>
<rscale>  2 0.17895834E+03</rscale>
<asrwt>0</asrwt>
<pdfrwt beam="1">  1       21 0.17512253E-01 0.17924797E+03</pdfrwt>
<pdfrwt beam="2">  1       21 0.67527955E-01 0.17924797E+03</pdfrwt>
<totfact> 0.59591289E+04</totfact>
</mgrwt>
</event>
<event>
12    1  0.1019868E-001  0.1962605E+03  0.7546771E-02  0.1152958E+00
         21   -1    0    0  501  502  0.00000000000E+00  0.00000000000E+00  0.44062345969E+03  0.44062345969E+03  0.00000000000E+00 0. -1.
         21   -1    0    0  502  503 -0.00000000000E+00 -0.00000000000E+00 -0.93794618424E+02  0.93794618424E+02  0.00000000000E+00 0. -1.
         -6    2    1    2    0  503  0.30476603846E+02 -0.88892408505E+02  0.10350444538E+03  0.22188138627E+03  0.17230059689E+03 0.  0.
        -24    2    3    3    0    0  0.51939775977E+02 -0.36404866424E+02  0.12578821108E+03  0.16077274493E+03  0.77473523460E+02 0.  0.
          6    2    1    2  501    0 -0.30476603846E+02  0.88892408505E+02  0.24332439589E+03  0.31253669185E+03  0.17216776250E+03 0.  0.
         24    2    5    5    0    0  0.22216468114E+02  0.20153966479E+02  0.50972906484E+02  0.10153261909E+03  0.82528066274E+02 0.  0.
          5    1    5    5  501    0 -0.52693071960E+02  0.68738442026E+02  0.19235148941E+03  0.21100407276E+03  0.47000000000E+01 0. -1.
        -13    1    6    6    0    0  0.39390566525E+02 -0.38168420667E+01  0.58934002261E+02  0.70988743030E+02  0.00000000000E+00 0.  1.
         14    1    6    6    0    0 -0.17174098411E+02  0.23970808546E+02 -0.79610957770E+01  0.30543876057E+02  0.00000000000E+00 0. -1.
         -5    1    3    3    0  503 -0.21463172131E+02 -0.52487542082E+02 -0.22283765709E+02  0.61108641336E+02  0.47000000000E+01 0.  1.
         11    1    4    4    0    0  0.77721186907E+01 -0.52470229687E+02  0.69983333079E+02  0.87813425745E+02  0.00000000000E+00 0. -1.
        -12    1    4    4    0    0  0.44167657286E+02  0.16065363263E+02  0.55804878005E+02  0.72959319186E+02  0.00000000000E+00 0.  1.
<mgrwt>
<rscale>  2 0.19623133E+03</rscale>
<asrwt>0</asrwt>
<pdfrwt beam="1">  1       21 0.67788224E-01 0.19626049E+03</pdfrwt>
<pdfrwt beam="2">  1       21 0.14429942E-01 0.19626049E+03</pdfrwt>
<totfact> 0.83567353E+04</totfact>
</mgrwt>
</event>
<event>
12    1  0.1019868E-001  0.2578992E+03  0.7546771E-02  0.1108442E+00
         21   -1    0    0  501  502  0.00000000000E+00  0.00000000000E+00  0.17198281780E+03  0.17198281780E+03  0.00000000000E+00 0. -1.
         21   -1    0    0  502  503 -0.00000000000E+00 -0.00000000000E+00 -0.14184830405E+04  0.14184830405E+04  0.00000000000E+00 0.  1.
         -6    2    1    2    0  503  0.34373656223E+02  0.18711813701E+03 -0.13016283545E+04  0.13269319375E+04  0.17411848905E+03 0.  0.
        -24    2    3    3    0    0  0.71529137806E+01  0.36687745112E+02 -0.71523198707E+03  0.72091786069E+03  0.82271572951E+02 0.  0.
          6    2    1    2  501    0 -0.34373656223E+02 -0.18711813701E+03  0.55128131805E+02  0.26353392074E+03  0.17382828028E+03 0.  0.
         24    2    5    5    0    0  0.43031220402E+02 -0.77997085739E+02  0.50162166602E+02  0.12957247268E+03  0.79608739508E+02 0.  0.
          5    1    5    5  501    0 -0.77404876625E+02 -0.10912105127E+03  0.49659652032E+01  0.13396144806E+03  0.47000000000E+01 0. -1.
        -11    1    6    6    0    0  0.20685912436E+02 -0.47129552399E+02  0.69783236031E+02  0.86711024176E+02  0.00000000000E+00 0.  1.
         12    1    6    6    0    0  0.22345307966E+02 -0.30867533340E+02 -0.19621069429E+02  0.42861448507E+02  0.00000000000E+00 0. -1.
         -5    1    3    3    0  503  0.27220742442E+02  0.15043039190E+03 -0.58639636741E+03  0.60601407684E+03  0.47000000000E+01 0.  1.
         11    1    4    4    0    0  0.10693733179E+02 -0.25101337467E+02 -0.16860834376E+03  0.17080165883E+03  0.00000000000E+00 0. -1.
        -12    1    4    4    0    0 -0.35408193985E+01  0.61789082579E+02 -0.54662364331E+03  0.55011620186E+03  0.00000000000E+00 0.  1.
<mgrwt>
<rscale>  2 0.25785022E+03</rscale>
<asrwt>0</asrwt>
<pdfrwt beam="1">  1       21 0.26458896E-01 0.25789919E+03</pdfrwt>
<pdfrwt beam="2">  1       21 0.21822815E+00 0.25789919E+03</pdfrwt>
<totfact> 0.13144691E+03</totfact>
</mgrwt>
</event>
<event>
12    1  0.1019868E-001  0.2746526E+03  0.7546771E-02  0.1099362E+00
         21   -1    0    0  503  502  0.00000000000E+00  0.00000000000E+00  0.58476291124E+03  0.58476291124E+03  0.00000000000E+00 0. -1.
         21   -1    0    0  501  503 -0.00000000000E+00 -0.00000000000E+00 -0.13107764626E+03  0.13107764626E+03  0.00000000000E+00 0.  1.
          6    2    1    2  501    0  0.76669085914E+02 -0.18984352000E+03  0.16297270931E+03  0.31936521785E+03  0.18307191914E+03 0.  0.
         24    2    3    3    0    0 -0.33618579333E+02 -0.87675452098E+02  0.84693626496E+02  0.14980287531E+03  0.80316233132E+02 0.  0.
         -6    2    1    2    0  502 -0.76669085914E+02  0.18984352000E+03  0.29071255568E+03  0.39647533965E+03  0.17538584350E+03 0.  0.
        -24    2    5    5    0    0  0.20331962966E+02  0.10036105113E+03  0.19156905495E+03  0.23134557415E+03  0.79601146728E+02 0.  0.
          5    1    3    3  501    0  0.11028766525E+03 -0.10216806790E+03  0.78279082810E+02  0.16956234255E+03  0.47000000000E+01 0. -1.
        -13    1    4    4    0    0  0.13378838961E+02 -0.62636917633E+02  0.22407504474E+02  0.67856267501E+02  0.00000000000E+00 0.  1.
         14    1    4    4    0    0 -0.46997418294E+02 -0.25038534466E+02  0.62286122021E+02  0.81946607806E+02  0.00000000000E+00 0. -1.
         -5    1    5    5    0  502 -0.97001048880E+02  0.89482468870E+02  0.99143500722E+02  0.16512976550E+03  0.47000000000E+01 0.  1.
         11    1    6    6    0    0  0.10133307105E+02  0.33612128744E+02  0.14532346248E+03  0.14950373861E+03  0.00000000000E+00 0. -1.
        -12    1    6    6    0    0  0.10198655860E+02  0.66748922386E+02  0.46245592476E+02  0.81841835539E+02  0.00000000000E+00 0.  1.
<mgrwt>
<rscale>  2 0.27337815E+03</rscale>
<asrwt>0</asrwt>
<pdfrwt beam="1">  1       21 0.89963524E-01 0.27465258E+03</pdfrwt>
<pdfrwt beam="2">  1       21 0.20165792E-01 0.27465258E+03</pdfrwt>
<totfact> 0.22910919E+04</totfact>
</mgrwt>
</event>
<event>
12    1  0.1019868E-001  0.2556586E+03  0.7546771E-02  0.1110330E+00
         21   -1    0    0  501  502  0.00000000000E+00  0.00000000000E+00  0.70988212998E+03  0.70988212998E+03  0.00000000000E+00 0.  1.
         21   -1    0    0  502  503 -0.00000000000E+00 -0.00000000000E+00 -0.15079699503E+03  0.15079699503E+03  0.00000000000E+00 0. -1.
         -6    2    1    2    0  503 -0.17905996507E+03 -0.38478669447E+02  0.92767037343E+01  0.25582681446E+03  0.17837663151E+03 0.  0.
        -24    2    3    3    0    0 -0.19859565077E+03 -0.56464703640E+01 -0.56670783113E+01  0.21453513329E+03  0.80753281718E+02 0.  0.
          6    2    1    2  501    0  0.17905996507E+03  0.38478669447E+02  0.54980843121E+03  0.60485231055E+03  0.17324528119E+03 0.  0.
         24    2    5    5    0    0  0.97670976962E+02  0.18096666877E+01  0.45945592833E+03  0.47775216135E+03  0.87203686649E+02 0.  0.
          5    1    5    5  501    0  0.81388988113E+02  0.36669002759E+02  0.90352502879E+02  0.12710014920E+03  0.47000000000E+01 0. -1.
        -11    1    6    6    0    0  0.21462756443E+02  0.30516849466E+02  0.25433625919E+03  0.25705808829E+03  0.00000000000E+00 0.  1.
         12    1    6    6    0    0  0.76208220519E+02 -0.28707182778E+02  0.20511966914E+03  0.22069407307E+03  0.00000000000E+00 0. -1.
         -5    1    3    3    0  503  0.19535685692E+02 -0.32832199083E+02  0.14943782046E+02  0.41291681171E+02  0.47000000000E+01 0.  1.
         13    1    4    4    0    0 -0.55707522061E+01  0.16897089163E+01 -0.20009533855E+02  0.20839142052E+02  0.00000000000E+00 0. -1.
        -14    1    4    4    0    0 -0.19302489856E+03 -0.73361792803E+01  0.14342455544E+02  0.19369599124E+03  0.00000000000E+00 0.  1.
<mgrwt>
<rscale>  2 0.25476554E+03</rscale>
<asrwt>0</asrwt>
<pdfrwt beam="1">  1       21 0.10921263E+00 0.25565856E+03</pdfrwt>
<pdfrwt beam="2">  1       21 0.23199538E-01 0.25565856E+03</pdfrwt>
<totfact> 0.11155463E+04</totfact>
</mgrwt>
</event>
<event>
12    1  0.1019868E-001  0.1844346E+03  0.7546771E-02  0.1164634E+00
         21   -1    0    0  501  502  0.00000000000E+00  0.00000000000E+00  0.38942135877E+02  0.38942135877E+02  0.00000000000E+00 0. -1.
         21   -1    0    0  502  503 -0.00000000000E+00 -0.00000000000E+00 -0.90026771716E+03  0.90026771716E+03  0.00000000000E+00 0. -1.
         -6    2    1    2    0  503 -0.43009171162E+02  0.23616979948E+02 -0.53375535260E+03  0.56328650166E+03  0.17317435137E+03 0.  0.
        -24    2    3    3    0    0 -0.27382228430E+02 -0.45550862398E+02 -0.17969975791E+03  0.20216900570E+03  0.75865910486E+02 0.  0.
          6    2    1    2  501    0  0.43009171162E+02 -0.23616979948E+02 -0.32757022868E+03  0.37592335137E+03  0.17778796598E+03 0.  0.
         24    2    5    5    0    0  0.59551926239E+02 -0.31156254765E+02 -0.95063896645E+02  0.14266000697E+03  0.82447492455E+02 0.  0.
          5    1    5    5  501    0 -0.16542755076E+02  0.75392748170E+01 -0.23250633203E+03  0.23326334441E+03  0.47000000000E+01 0. -1.
        -13    1    6    6    0    0 -0.20338101719E+02 -0.13858486718E+02 -0.23133010874E+02  0.33776208013E+02  0.00000000000E+00 0.  1.
         14    1    6    6    0    0  0.79890027957E+02 -0.17297768047E+02 -0.71930885771E+02  0.10888379895E+03  0.00000000000E+00 0. -1.
         -5    1    3    3    0  503 -0.15626942732E+02  0.69167842346E+02 -0.35405559469E+03  0.36111749596E+03  0.47000000000E+01 0.  1.
         13    1    4    4    0    0 -0.24494306649E+01 -0.17868028438E+02 -0.15805802947E+03  0.15908364728E+03  0.00000000000E+00 0. -1.
        -14    1    4    4    0    0 -0.24932797765E+02 -0.27682833960E+02 -0.21641728436E+02  0.43085358420E+02  0.00000000000E+00 0.  1.
<mgrwt>
<rscale>  2 0.18331360E+03</rscale>
<asrwt>0</asrwt>
<pdfrwt beam="1">  1       21 0.59910978E-02 0.18443457E+03</pdfrwt>
<pdfrwt beam="2">  1       21 0.13850273E+00 0.18443457E+03</pdfrwt>
<totfact> 0.73022228E+04</totfact>
</mgrwt>
</event>
<event>
12    1  0.1019868E-001  0.2380583E+03  0.7546771E-02  0.1121270E+00
         21   -1    0    0  501  502  0.00000000000E+00  0.00000000000E+00  0.80264994607E+03  0.80264994607E+03  0.00000000000E+00 0.  1.
         21   -1    0    0  502  503 -0.00000000000E+00 -0.00000000000E+00 -0.72292078072E+02  0.72292078072E+02  0.00000000000E+00 0. -1.
         -6    2    1    2    0  503 -0.16128599227E+03  0.59768929189E+01  0.43710440835E+03  0.49722607420E+03  0.17356442758E+03 0.  0.
        -24    2    3    3    0    0 -0.16044210233E+03 -0.42926150715E+02  0.37699564424E+03  0.41958991414E+03  0.79659636310E+02 0.  0.
          6    2    1    2  501    0  0.16128599227E+03 -0.59768929189E+01  0.29325345966E+03  0.37771594994E+03  0.17499386472E+03 0.  0.
         24    2    5    5    0    0  0.85907754196E+02  0.56154908653E+02  0.11114496618E+03  0.17100883121E+03  0.79732683675E+02 0.  0.
          5    1    5    5  501    0  0.75378238073E+02 -0.62131801572E+02  0.18210849347E+03  0.20670711874E+03  0.47000000000E+01 0. -1.
        -13    1    6    6    0    0  0.88969247807E+01 -0.18536587364E+02  0.30555359137E+02  0.36829204630E+02  0.00000000000E+00 0.  1.
         14    1    6    6    0    0  0.77010829416E+02  0.74691496017E+02  0.80589607045E+02  0.13417962658E+03  0.00000000000E+00 0. -1.
         -5    1    3    3    0  503 -0.84388994084E+00  0.48903043634E+02  0.60108764104E+02  0.77636160061E+02  0.47000000000E+01 0.  1.
         13    1    4    4    0    0 -0.95564027833E+02  0.28048091565E+01  0.13898613240E+03  0.16869349534E+03  0.00000000000E+00 0. -1.
        -14    1    4    4    0    0 -0.64878074495E+02 -0.45730959871E+02  0.23800951184E+03  0.25089641880E+03  0.00000000000E+00 0.  1.
<mgrwt>
<rscale>  2 0.23779566E+03</rscale>
<asrwt>0</asrwt>
<pdfrwt beam="1">  1       21 0.12348460E+00 0.23805829E+03</pdfrwt>
<pdfrwt beam="2">  1       21 0.11121859E-01 0.23805829E+03</pdfrwt>
<totfact> 0.32238932E+04</totfact>
</mgrwt>
</event>
<event>
12    1  0.1019868E-001  0.2219028E+03  0.7546771E-02  0.1132976E+00
         21   -1    0    0  501  502  0.00000000000E+00  0.00000000000E+00  0.47427026566E+02  0.47427026566E+02  0.00000000000E+00 0. -1.
         21   -1    0    0  502  503 -0.00000000000E+00 -0.00000000000E+00 -0.10283682273E+04  0.10283682273E+04  0.00000000000E+00 0. -1.
         -6    2    1    2    0  503 -0.13757092404E+03  0.14477030515E+02 -0.45951608921E+03  0.50911634168E+03  0.17002667313E+03 0.  0.
        -24    2    3    3    0    0 -0.15628430935E+03  0.17019399521E+02 -0.29845350776E+03  0.34688225287E+03  0.80860099885E+02 0.  0.
          6    2    1    2  501    0  0.13757092404E+03 -0.14477030515E+02 -0.52142511158E+03  0.56667891223E+03  0.17350936295E+03 0.  0.
         24    2    5    5    0    0  0.14946713717E+03  0.11621164643E+02 -0.50468412232E+03  0.53313809533E+03  0.83992194925E+02 0.  0.
          5    1    5    5  501    0 -0.11896213125E+02 -0.26098195158E+02 -0.16740989256E+02  0.33540816902E+02  0.47000000000E+01 0. -1.
        -11    1    6    6    0    0  0.10364571538E+03  0.28987181822E+02 -0.22770294100E+03  0.25185575309E+03  0.00000000000E+00 0.  1.
         12    1    6    6    0    0  0.45821421786E+02 -0.17366017179E+02 -0.27698118132E+03  0.28128234224E+03  0.00000000000E+00 0. -1.
         -5    1    3    3    0  503  0.18713385311E+02 -0.25423690066E+01 -0.16106258145E+03  0.16223408881E+03  0.47000000000E+01 0.  1.
         11    1    4    4    0    0 -0.54237287634E+02 -0.29514796827E+02 -0.13725661961E+03  0.15050643252E+03  0.00000000000E+00 0. -1.
        -12    1    4    4    0    0 -0.10204702172E+03  0.46534196348E+02 -0.16119688814E+03  0.19637582035E+03  0.00000000000E+00 0.  1.
<mgrwt>
<rscale>  2 0.22122154E+03</rscale>
<asrwt>0</asrwt>
<pdfrwt beam="1">  1       21 0.72964657E-02 0.22190278E+03</pdfrwt>
<pdfrwt beam="2">  1       21 0.15821050E+00 0.22190278E+03</pdfrwt>
<totfact> 0.35894055E+04</totfact>
</mgrwt>
</event>
<event>
12    1  0.1019868E-001  0.1999506E+03  0.7546771E-02  0.1149982E+00
         21   -1    0    0  501  502  0.00000000000E+00  0.00000000000E+00  0.51350639735E+03  0.51350639735E+03  0.00000000000E+00 0. -1.
         21   -1    0    0  502  503 -0.00000000000E+00 -0.00000000000E+00 -0.29205048733E+03  0.29205048733E+03  0.00000000000E+00 0. -1.
         -6    2    1    2    0  503  0.98827741838E+02  0.11167821393E+02 -0.23457645681E+03  0.30761534840E+03  0.17236428196E+03 0.  0.
        -24    2    3    3    0    0  0.10182021960E+03  0.20924806847E+02 -0.25367813189E+03  0.28545417336E+03  0.79537952149E+02 0.  0.
          6    2    1    2  501    0 -0.98827741838E+02 -0.11167821393E+02  0.45603236683E+03  0.49794153628E+03  0.17346069055E+03 0.  0.
         24    2    5    5    0    0 -0.67259631477E+02  0.57574262255E+02  0.32964436252E+03  0.35057112782E+03  0.79975347581E+02 0.  0.
          5    1    5    5  501    0 -0.31568110361E+02 -0.68742083647E+02  0.12638800431E+03  0.14737040846E+03  0.47000000000E+01 0. -1.
        -13    1    6    6    0    0 -0.64996567360E+02  0.62504921309E+02  0.18481780354E+03  0.20564299030E+03  0.00000000000E+00 0.  1.
         14    1    6    6    0    0 -0.22630641168E+01 -0.49306590549E+01  0.14482655898E+03  0.14492813752E+03  0.00000000000E+00 0. -1.
         -5    1    3    3    0  503 -0.29924777627E+01 -0.97569854547E+01  0.19101675080E+02  0.22161175040E+02  0.47000000000E+01 0.  1.
         11    1    4    4    0    0  0.21437829345E+02  0.23949265611E+02 -0.18920888425E+02  0.37298094712E+02  0.00000000000E+00 0. -1.
        -12    1    4    4    0    0  0.80382390255E+02 -0.30244587641E+01 -0.23475724346E+03  0.24815607865E+03  0.00000000000E+00 0.  1.
<mgrwt>
<rscale>  2 0.19971260E+03</rscale>
<asrwt>0</asrwt>
<pdfrwt beam="1">  1       21 0.79000984E-01 0.19995063E+03</pdfrwt>
<pdfrwt beam="2">  1       21 0.44930844E-01 0.19995063E+03</pdfrwt>
<totfact> 0.66895668E+03</totfact>
</mgrwt>
</event>
<event>
12    1  0.1019868E-001  0.1872236E+03  0.7546771E-02  0.1161341E+00
         21   -1    0    0  503  502  0.00000000000E+00  0.00000000000E+00  0.11978163168E+03  0.11978163168E+03  0.00000000000E+00 0.  1.
         21   -1    0    0  501  503 -0.00000000000E+00 -0.00000000000E+00 -0.29029949209E+03  0.29029949209E+03  0.00000000000E+00 0.  1.
          6    2    1    2  501    0  0.61876388196E+02 -0.35715476464E+02 -0.83377018282E+02  0.20494973529E+03  0.17305601447E+03 0.  0.
         24    2    3    3    0    0  0.83267696264E+02 -0.35525561222E+02 -0.11544716873E+03  0.16611407284E+03  0.77911884125E+02 0.  0.
         -6    2    1    2    0  502 -0.61876388196E+02  0.35715476464E+02 -0.87140842135E+02  0.20513138848E+03  0.17140909397E+03 0.  0.
        -24    2    5    5    0    0 -0.10085992610E+03  0.40159097113E+02 -0.94719267572E+02  0.16489478171E+03  0.80206431233E+02 0.  0.
          5    1    3    3  501    0 -0.21391308069E+02 -0.18991524276E+00  0.32070150444E+02  0.38835662453E+02  0.47000000000E+01 0. -1.
        -11    1    4    4    0    0  0.86188270268E+02 -0.14166645941E+02 -0.58243005617E+02  0.10498266282E+03  0.00000000000E+00 0.  1.
         12    1    4    4    0    0 -0.29205740037E+01 -0.21358915281E+02 -0.57204163109E+02  0.61131410023E+02  0.00000000000E+00 0. -1.
         -5    1    5    5    0  502  0.38983537906E+02 -0.44436206484E+01  0.75784254374E+01  0.40236606769E+02  0.47000000000E+01 0.  1.
         11    1    6    6    0    0 -0.11637158444E+01  0.43351490534E+01 -0.49511889625E+02  0.49714937052E+02  0.00000000000E+00 0. -1.
        -12    1    6    6    0    0 -0.99696210257E+02  0.35823948059E+02 -0.45207377948E+02  0.11517984466E+03  0.00000000000E+00 0.  1.
<mgrwt>
<rscale>  2 0.18684210E+03</rscale>
<asrwt>0</asrwt>
<pdfrwt beam="1">  1       21 0.18427943E-01 0.18722357E+03</pdfrwt>
<pdfrwt beam="2">  1       21 0.44661461E-01 0.18722357E+03</pdfrwt>
<totfact> 0.12961023E+05</totfact>
</mgrwt>
</event>
<event>
12    1  0.1019868E-001  0.1773462E+03  0.7546771E-02  0.1170397E+00
         21   -1    0    0  501  502  0.00000000000E+00  0.00000000000E+00  0.33910801074E+03  0.33910801074E+03  0.00000000000E+00 0. -1.
         21   -1    0    0  502  503 -0.00000000000E+00 -0.00000000000E+00 -0.20836388018E+03  0.20836388018E+03  0.00000000000E+00 0. -1.
         -6    2    1    2    0  503 -0.16205895324E+01 -0.37112819597E+02 -0.13853401723E+03  0.22503990480E+03  0.17341077571E+03 0.  0.
        -24    2    3    3    0    0 -0.16150981924E+02 -0.56511586995E+02 -0.16241873551E+03  0.19068856935E+03  0.80795242140E+02 0.  0.
          6    2    1    2  501    0  0.16205895324E+01  0.37112819597E+02  0.26927814779E+03  0.32243198612E+03  0.17341187130E+03 0.  0.
         24    2    5    5    0    0 -0.12472541383E+01 -0.34989446683E+02  0.70657123401E+02  0.11105705227E+03  0.78201168472E+02 0.  0.
          5    1    5    5  501    0  0.28678436707E+01  0.72102266279E+02  0.19862102439E+03  0.21137493385E+03  0.47000000000E+01 0. -1.
        -11    1    6    6    0    0  0.17152364526E+02 -0.38171651700E+01 -0.11690097096E+02  0.21105277276E+02  0.00000000000E+00 0.  1.
         12    1    6    6    0    0 -0.18399618664E+02 -0.31172281513E+02  0.82347220497E+02  0.89951774998E+02  0.00000000000E+00 0. -1.
         -5    1    3    3    0  503  0.14530392391E+02  0.19398767398E+02  0.23884718286E+02  0.34351335450E+02  0.47000000000E+01 0.  1.
         13    1    4    4    0    0 -0.40593190536E+02 -0.43581358938E+02 -0.59758528933E+02  0.84369566462E+02  0.00000000000E+00 0. -1.
        -14    1    4    4    0    0  0.24442208612E+02 -0.12930228057E+02 -0.10266020658E+03  0.10631900289E+03  0.00000000000E+00 0.  1.
<mgrwt>
<rscale>  2 0.17734590E+03</rscale>
<asrwt>0</asrwt>
<pdfrwt beam="1">  1       21 0.52170463E-01 0.17734617E+03</pdfrwt>
<pdfrwt beam="2">  1       21 0.32055982E-01 0.17734617E+03</pdfrwt>
<totfact> 0.32899001E+04</totfact>
</mgrwt>
</event>
<event>
12    1  0.1019868E-001  0.2636593E+03  0.7546771E-02  0.1105016E+00
         21   -1    0    0  503  502  0.00000000000E+00  0.00000000000E+00  0.22831390011E+03  0.22831390011E+03  0.00000000000E+00 0.  1.
         21   -1    0    0  501  503 -0.00000000000E+00 -0.00000000000E+00 -0.31059147643E+03  0.31059147643E+03  0.00000000000E+00 0.  1.
          6    2    1    2  501    0 -0.19777730003E+03  0.17221973590E+02 -0.80192591745E+02  0.27558492866E+03  0.17350430643E+03 0.  0.
         24    2    3    3    0    0 -0.15293094378E+03 -0.67049463844E+01 -0.12035298012E+03  0.21063387045E+03  0.80305402590E+02 0.  0.
         -6    2    1    2    0  502  0.19777730003E+03 -0.17221973590E+02 -0.20849845788E+01  0.26332044788E+03  0.17297645600E+03 0.  0.
        -24    2    5    5    0    0  0.36680370090E+02 -0.46889556949E+02 -0.16324438967E+01  0.99446468463E+02  0.79642043644E+02 0.  0.
          5    1    3    3  501    0 -0.44846356247E+02  0.23926919975E+02  0.40160388371E+02  0.64951058207E+02  0.47000000000E+01 0. -1.
        -11    1    4    4    0    0 -0.11616218595E+03 -0.39177389524E+02 -0.74302672344E+02  0.14335064846E+03  0.00000000000E+00 0.  1.
         12    1    4    4    0    0 -0.36768757830E+02  0.32472443140E+02 -0.46050307772E+02  0.67283221993E+02  0.00000000000E+00 0. -1.
         -5    1    5    5    0  502  0.16109692994E+03  0.29667583359E+02 -0.45254068215E+00  0.16387397942E+03  0.47000000000E+01 0.  1.
         13    1    6    6    0    0 -0.13035830685E+02  0.73272270973E+01 -0.18687988019E+02  0.23934536444E+02  0.00000000000E+00 0. -1.
        -14    1    6    6    0    0  0.49716200775E+02 -0.54216784047E+02  0.17055544123E+02  0.75511932019E+02  0.00000000000E+00 0.  1.
<mgrwt>
<rscale>  2 0.26357244E+03</rscale>
<asrwt>0</asrwt>
<pdfrwt beam="1">  1       21 0.35125216E-01 0.26365925E+03</pdfrwt>
<pdfrwt beam="2">  1       21 0.47783304E-01 0.26365925E+03</pdfrwt>
<totfact> 0.31618811E+04</totfact>
</mgrwt>
</event>
<event>
12    1  0.1019868E-001  0.2027621E+03  0.7546771E-02  0.1147777E+00
         21   -1    0    0  503  502  0.00000000000E+00  0.00000000000E+00  0.29413033287E+03  0.29413033287E+03  0.00000000000E+00 0.  1.
         21   -1    0    0  501  503 -0.00000000000E+00 -0.00000000000E+00 -0.13945218916E+03  0.13945218916E+03  0.00000000000E+00 0. -1.
          6    2    1    2  501    0 -0.97570188520E+02  0.36421675934E+02  0.60340453634E+02  0.20994870920E+03  0.17202037666E+03 0.  0.
         24    2    3    3    0    0 -0.13439329553E+03  0.44280001222E+02  0.44476600945E+02  0.16882151250E+03  0.80624181603E+02 0.  0.
         -6    2    1    2    0  502  0.97570188520E+02 -0.36421675934E+02  0.94337690071E+02  0.22363381283E+03  0.17397126862E+03 0.  0.
        -24    2    5    5    0    0  0.50606801066E+02 -0.67288925293E+02  0.11519032430E+03  0.16350670414E+03  0.79854766331E+02 0.  0.
          5    1    3    3  501    0  0.36823107012E+02 -0.78583252879E+01  0.15863852689E+02  0.41127196701E+02  0.47000000000E+01 0. -1.
        -11    1    4    4    0    0 -0.42569744443E+02  0.40882856040E+02  0.49163582784E+02  0.76815681551E+02  0.00000000000E+00 0.  1.
         12    1    4    4    0    0 -0.91823551089E+02  0.33971451816E+01 -0.46869818393E+01  0.92005830949E+02  0.00000000000E+00 0. -1.
         -5    1    5    5    0  502  0.46963387455E+02  0.30867249359E+02 -0.20852634233E+02  0.60127108684E+02  0.47000000000E+01 0.  1.
         13    1    6    6    0    0 -0.56201532842E+01 -0.28499230949E+02 -0.61660550145E+00  0.29054646615E+02  0.00000000000E+00 0. -1.
        -14    1    6    6    0    0  0.56226954350E+02 -0.38789694344E+02  0.11580692981E+03  0.13445205753E+03  0.00000000000E+00 0.  1.
<mgrwt>
<rscale>  2 0.20234299E+03</rscale>
<asrwt>0</asrwt>
<pdfrwt beam="1">  1       21 0.45250820E-01 0.20276213E+03</pdfrwt>
<pdfrwt beam="2">  1       21 0.21454183E-01 0.20276213E+03</pdfrwt>
<totfact> 0.94418674E+04</totfact>
</mgrwt>
</event>
<event>
12    1  0.1019868E-001  0.1774540E+03  0.7546771E-02  0.1170791E+00
         21   -1    0    0  503  502  0.00000000000E+00  0.00000000000E+00  0.50718770660E+03  0.50718770660E+03  0.00000000000E+00 0.  1.
         21   -1    0    0  501  503 -0.00000000000E+00 -0.00000000000E+00 -0.67000966956E+02  0.67000966956E+02  0.00000000000E+00 0.  1.
          6    2    1    2  501    0 -0.93245279766E+01 -0.31883750219E+02  0.30438329833E+03  0.35233379085E+03  0.17431691692E+03 0.  0.
         24    2    3    3    0    0  0.46033941411E+02 -0.41018680769E+02  0.26378785363E+03  0.28292134802E+03  0.81601479835E+02 0.  0.
         -6    2    1    2    0  502  0.93245279766E+01  0.31883750219E+02  0.13580344132E+03  0.22185488271E+03  0.17225996040E+03 0.  0.
        -24    2    5    5    0    0 -0.14740310372E+02  0.83149422682E+02  0.10743461036E+03  0.15833979641E+03  0.79988701579E+02 0.  0.
          5    1    3    3  501    0 -0.55358469387E+02  0.91349305506E+01  0.40595444701E+02  0.69412442829E+02  0.47000000000E+01 0. -1.
        -13    1    4    4    0    0  0.30849961604E+02 -0.47384912416E+02  0.77641009774E+02  0.96047782142E+02  0.00000000000E+00 0.  1.
         14    1    4    4    0    0  0.15183979806E+02  0.63662316464E+01  0.18614684385E+03  0.18687356588E+03  0.00000000000E+00 0. -1.
         -5    1    5    5    0  502  0.24064838349E+02 -0.51265672464E+02  0.28368830955E+02  0.63515086300E+02  0.47000000000E+01 0.  1.
         13    1    6    6    0    0  0.15067191443E+02  0.17998661036E+02 -0.59508066171E+01  0.24215370253E+02  0.00000000000E+00 0. -1.
        -14    1    6    6    0    0 -0.29807501816E+02  0.65150761646E+02  0.11338541698E+03  0.13412442615E+03  0.00000000000E+00 0.  1.
<mgrwt>
<rscale>  2 0.17694675E+03</rscale>
<asrwt>0</asrwt>
<pdfrwt beam="1">  1       21 0.78028876E-01 0.17745396E+03</pdfrwt>
<pdfrwt beam="2">  1       21 0.10307841E-01 0.17745396E+03</pdfrwt>
<totfact> 0.11254467E+05</totfact>
</mgrwt>
</event>
<event>
12    1  0.1019868E-001  0.1782387E+03  0.7546771E-02  0.1169851E+00
         21   -1    0    0  503  502  0.00000000000E+00  0.00000000000E+00  0.10157184111E+04  0.10157184111E+04  0.00000000000E+00 0.  1.
         21   -1    0    0  501  503 -0.00000000000E+00 -0.00000000000E+00 -0.74852611570E+02  0.74852611570E+02  0.00000000000E+00 0.  1.
          6    2    1    2  501    0  0.13207573962E+01 -0.38220266501E+02  0.54003723967E+02  0.18624027348E+03  0.17408763337E+03 0.  0.
         24    2    3    3    0    0  0.50924982360E+01 -0.24564279751E+02  0.10442411736E+03  0.13365683433E+03  0.79563909527E+02 0.  0.
         -6    2    1    2    0  502 -0.13207573962E+01  0.38220266501E+02  0.88686207553E+03  0.90433074916E+03  0.17270561567E+03 0.  0.
        -24    2    5    5    0    0  0.46204223490E+02  0.18953121500E+01  0.73850856386E+03  0.74430268742E+03  0.80331619774E+02 0.  0.
          5    1    3    3  501    0 -0.37717408399E+01 -0.13655986750E+02 -0.50420393392E+02  0.52583439150E+02  0.47000000000E+01 0. -1.
        -13    1    4    4    0    0  0.14334070706E+02  0.25872723652E+02  0.23155926353E+02  0.37564083077E+02  0.00000000000E+00 0.  1.
         14    1    4    4    0    0 -0.92415724701E+01 -0.50437003404E+02  0.81268191006E+02  0.96092751253E+02  0.00000000000E+00 0. -1.
         -5    1    5    5    0  502 -0.47524980886E+02  0.36324954351E+02  0.14835351167E+03  0.16002806173E+03  0.47000000000E+01 0.  1.
         13    1    6    6    0    0 -0.39638982245E+01  0.27383971741E+02  0.11593016774E+03  0.11918640103E+03  0.00000000000E+00 0. -1.
        -14    1    6    6    0    0  0.50168121715E+02 -0.25488659591E+02  0.62257839611E+03  0.62511628639E+03  0.00000000000E+00 0.  1.
<mgrwt>
<rscale>  2 0.17790035E+03</rscale>
<asrwt>0</asrwt>
<pdfrwt beam="1">  1       21 0.15626436E+00 0.17823871E+03</pdfrwt>
<pdfrwt beam="2">  1       21 0.11515787E-01 0.17823871E+03</pdfrwt>
<totfact> 0.17114006E+04</totfact>
</mgrwt>
</event>
<event>
12    1  0.1019868E-001  0.2342001E+03  0.7546771E-02  0.1123945E+00
         21   -1    0    0  503  502  0.00000000000E+00  0.00000000000E+00  0.66284057821E+03  0.66284057821E+03  0.00000000000E+00 0.  1.
         21   -1    0    0  501  503 -0.00000000000E+00 -0.00000000000E+00 -0.96083881210E+02  0.96083881210E+02  0.00000000000E+00 0.  1.
          6    2    1    2  501    0  0.65774160019E+02 -0.14022583580E+03  0.42649805741E+03  0.48593697243E+03  0.17390981299E+03 0.  0.
         24    2    3    3    0    0  0.60517760379E+02 -0.16761810360E+03  0.31222867591E+03  0.36821888707E+03  0.79625214378E+02 0.  0.
         -6    2    1    2    0  502 -0.65774160019E+02  0.14022583580E+03  0.14025863959E+03  0.27298748699E+03  0.17567059207E+03 0.  0.
        -24    2    5    5    0    0 -0.75954517290E+02  0.12344159671E+03  0.16959945194E+03  0.23737395550E+03  0.81089482418E+02 0.  0.
          5    1    3    3  501    0  0.52563996398E+01  0.27392267797E+02  0.11426938150E+03  0.11771808536E+03  0.47000000000E+01 0. -1.
        -13    1    4    4    0    0  0.48682122457E+02 -0.38394164811E+02  0.70673418942E+02  0.94014855652E+02  0.00000000000E+00 0.  1.
         14    1    4    4    0    0  0.11835637922E+02 -0.12922393878E+03  0.24155525696E+03  0.27420403142E+03  0.00000000000E+00 0. -1.
         -5    1    5    5    0  502  0.10180357271E+02  0.16784239091E+02 -0.29340812342E+02  0.35613531487E+02  0.47000000000E+01 0.  1.
         13    1    6    6    0    0 -0.60214916386E+02  0.33010045842E+02  0.10370673697E+03  0.12438081272E+03  0.00000000000E+00 0. -1.
        -14    1    6    6    0    0 -0.15739600904E+02  0.90431550864E+02  0.65892714969E+02  0.11299314278E+03  0.00000000000E+00 0.  1.
<mgrwt>
<rscale>  2 0.23386994E+03</rscale>
<asrwt>0</asrwt>
<pdfrwt beam="1">  1       21 0.10197547E+00 0.23420009E+03</pdfrwt>
<pdfrwt beam="2">  1       21 0.14782136E-01 0.23420009E+03</pdfrwt>
<totfact> 0.30869498E+04</totfact>
</mgrwt>
</event>
<event>
12    1  0.1019868E-001  0.2132937E+03  0.7546771E-02  0.1139175E+00
         21   -1    0    0  503  502  0.00000000000E+00  0.00000000000E+00  0.39800503585E+02  0.39800503585E+02  0.00000000000E+00 0.  1.
         21   -1    0    0  501  503 -0.00000000000E+00 -0.00000000000E+00 -0.14406621432E+04  0.14406621432E+04  0.00000000000E+00 0. -1.
          6    2    1    2  501    0 -0.10666545016E+03 -0.60900976342E+02 -0.10385552452E+04  0.10600341526E+04  0.17317320841E+03 0.  0.
         24    2    3    3    0    0 -0.51270135435E+02 -0.15414956310E+02 -0.88871987895E+03  0.89387054076E+03  0.79468690280E+02 0.  0.
         -6    2    1    2    0  502  0.10666545016E+03  0.60900976342E+02 -0.36230639436E+03  0.42042849415E+03  0.17437817560E+03 0.  0.
        -24    2    5    5    0    0  0.18244461396E+02  0.76920652442E+02 -0.26230928619E+03  0.28590558563E+03  0.81769157553E+02 0.  0.
          5    1    3    3  501    0 -0.55395314727E+02 -0.45486020031E+02 -0.14983536628E+03  0.16616361184E+03  0.47000000000E+01 0. -1.
        -11    1    4    4    0    0  0.15257322043E+02  0.69570301286E+01 -0.63690853666E+02  0.65861301117E+02  0.00000000000E+00 0.  1.
         12    1    4    4    0    0 -0.66527457478E+02 -0.22371986439E+02 -0.82502902528E+03  0.82800923964E+03  0.00000000000E+00 0. -1.
         -5    1    5    5    0  502  0.88420988766E+02 -0.16019676100E+02 -0.99997108162E+02  0.13452290852E+03  0.47000000000E+01 0.  1.
         13    1    6    6    0    0  0.46779112208E+02  0.33492039009E+02 -0.17595461019E+03  0.18512165422E+03  0.00000000000E+00 0. -1.
        -14    1    6    6    0    0 -0.28534650812E+02  0.43428613433E+02 -0.86354676006E+02  0.10078393141E+03  0.00000000000E+00 0.  1.
<mgrwt>
<rscale>  2 0.21304726E+03</rscale>
<asrwt>0</asrwt>
<pdfrwt beam="1">  1       21 0.61231529E-02 0.21329368E+03</pdfrwt>
<pdfrwt beam="2">  1       21 0.22164038E+00 0.21329368E+03</pdfrwt>
<totfact> 0.18414643E+04</totfact>
</mgrwt>
</event>
<event>
12    1  0.1019868E-001  0.2552434E+03  0.7546771E-02  0.1110056E+00
         21   -1    0    0  503  502  0.00000000000E+00  0.00000000000E+00  0.47663297204E+03  0.47663297204E+03  0.00000000000E+00 0. -1.
         21   -1    0    0  501  503 -0.00000000000E+00 -0.00000000000E+00 -0.18756126912E+03  0.18756126912E+03  0.00000000000E+00 0. -1.
          6    2    1    2  501    0  0.17678473590E+03  0.62922757598E+02 -0.28576602142E+02  0.25670236363E+03  0.17282177244E+03 0.  0.
         24    2    3    3    0    0  0.10582342576E+02  0.23193829845E+02 -0.73149354814E+01  0.84435791951E+02  0.80162054390E+02 0.  0.
         -6    2    1    2    0  502 -0.17678473590E+03 -0.62922757598E+02  0.31764830506E+03  0.40749187754E+03  0.17302331716E+03 0.  0.
        -24    2    5    5    0    0 -0.11880842028E+03 -0.35859079703E+02  0.30891243671E+03  0.34274543957E+03  0.81524404090E+02 0.  0.
          5    1    3    3  501    0  0.16620239333E+03  0.39728927753E+02 -0.21261666661E+02  0.17226657168E+03  0.47000000000E+01 0. -1.
        -11    1    4    4    0    0  0.18374624959E+02 -0.22804153595E+01  0.31985204529E+02  0.36957819813E+02  0.00000000000E+00 0.  1.
         12    1    4    4    0    0 -0.77922823826E+01  0.25474245205E+02 -0.39300140010E+02  0.47477972138E+02  0.00000000000E+00 0. -1.
         -5    1    5    5    0  502 -0.57976315621E+02 -0.27063677895E+02  0.87358683508E+01  0.64746437972E+02  0.47000000000E+01 0.  1.
         11    1    6    6    0    0 -0.61736142613E+02 -0.34397904728E+02  0.79657979817E+02  0.10648925252E+03  0.00000000000E+00 0. -1.
        -12    1    6    6    0    0 -0.57072277668E+02 -0.14611749748E+01  0.22925445690E+03  0.23625618705E+03  0.00000000000E+00 0.  1.
<mgrwt>
<rscale>  2 0.25520923E+03</rscale>
<asrwt>0</asrwt>
<pdfrwt beam="1">  1       21 0.73328149E-01 0.25524338E+03</pdfrwt>
<pdfrwt beam="2">  1       21 0.28855580E-01 0.25524338E+03</pdfrwt>
<totfact> 0.18562774E+04</totfact>
</mgrwt>
</event>
<event>
12    1  0.1019868E-001  0.1889871E+03  0.7546771E-02  0.1159771E+00
         21   -1    0    0  501  502  0.00000000000E+00  0.00000000000E+00  0.44630085828E+03  0.44630085828E+03  0.00000000000E+00 0. -1.
         21   -1    0    0  502  503 -0.00000000000E+00 -0.00000000000E+00 -0.11212809452E+03  0.11212809452E+03  0.00000000000E+00 0.  1.
         -6    2    1    2    0  503 -0.13140202700E+02 -0.69063465552E+02  0.15465372954E+02  0.18790160725E+03  0.17356672794E+03 0.  0.
        -24    2    3    3    0    0 -0.50466911523E+02 -0.10028916589E+03  0.10274987827E+02  0.13873497578E+03  0.80851667731E+02 0.  0.
          6    2    1    2  501    0  0.13140202700E+02  0.69063465552E+02  0.31870739080E+03  0.37052734555E+03  0.17542430176E+03 0.  0.
         24    2    5    5    0    0 -0.30661736037E+02  0.58446613821E+02  0.89568419719E+02  0.13695062272E+03  0.79855009416E+02 0.  0.
          5    1    5    5  501    0  0.43801938737E+02  0.10616851730E+02  0.22913897108E+03  0.23357672282E+03  0.47000000000E+01 0. -1.
        -13    1    6    6    0    0  0.17006255833E+02  0.16891719785E+02 -0.37117362791E+01  0.24255307068E+02  0.00000000000E+00 0.  1.
         14    1    6    6    0    0 -0.47667991870E+02  0.41554894037E+02  0.93280155998E+02  0.11269531565E+03  0.00000000000E+00 0. -1.
         -5    1    3    3    0  503  0.37326708823E+02  0.31225700338E+02  0.51903851268E+01  0.49166631478E+02  0.47000000000E+01 0.  1.
         13    1    4    4    0    0 -0.16070713143E+02 -0.23414139154E+02  0.40319791276E+02  0.49317089349E+02  0.00000000000E+00 0. -1.
        -14    1    4    4    0    0 -0.34396198381E+02 -0.76875026736E+02 -0.30044803449E+02  0.89417886426E+02  0.00000000000E+00 0.  1.
<mgrwt>
<rscale>  2 0.18855484E+03</rscale>
<asrwt>0</asrwt>
<pdfrwt beam="1">  1       21 0.68661669E-01 0.18898707E+03</pdfrwt>
<pdfrwt beam="2">  1       21 0.17250476E-01 0.18898707E+03</pdfrwt>
<totfact> 0.58810599E+04</totfact>
</mgrwt>
</event>
<event>
12    1  0.1019868E-001  0.1728517E+03  0.7546771E-02  0.1175086E+00
         21   -1    0    0  503  502  0.00000000000E+00  0.00000000000E+00  0.18693434302E+04  0.18693434302E+04  0.00000000000E+00 0.  1.
         21   -1    0    0  501  503 -0.00000000000E+00 -0.00000000000E+00 -0.26524262772E+02  0.26524262772E+02  0.00000000000E+00 0.  1.
          6    2    1    2  501    0 -0.93505119837E+01 -0.47092488403E+01  0.32084924372E+03  0.36411374668E+03  0.17182832777E+03 0.  0.
         24    2    3    3    0    0  0.37094857405E+02  0.39038716287E+02  0.12586023813E+03  0.15889713163E+03  0.80668761507E+02 0.  0.
         -6    2    1    2    0  502  0.93505119837E+01  0.47092488403E+01  0.15219699237E+04  0.15317539463E+04  0.17253432764E+03 0.  0.
        -24    2    5    5    0    0  0.32425419603E+02 -0.55582893039E+02  0.71414345397E+03  0.72133844241E+03  0.78660090309E+02 0.  0.
          5    1    3    3  501    0 -0.46445369389E+02 -0.43747965127E+02  0.19498900559E+03  0.20521661505E+03  0.47000000000E+01 0. -1.
        -11    1    4    4    0    0  0.30197073391E+02 -0.16650132285E+02  0.22165067937E+02  0.40992443001E+02  0.00000000000E+00 0.  1.
         12    1    4    4    0    0  0.68977840140E+01  0.55688848572E+02  0.10369517019E+03  0.11790468863E+03  0.00000000000E+00 0. -1.
         -5    1    5    5    0  502 -0.23074907620E+02  0.60292141879E+02  0.80782646970E+03  0.81041550385E+03  0.47000000000E+01 0.  1.
         13    1    6    6    0    0  0.33809955642E+02 -0.13847360961E+02  0.57257974567E+03  0.57374421798E+03  0.00000000000E+00 0. -1.
        -14    1    6    6    0    0 -0.13845360386E+01 -0.41735532078E+02  0.14156370830E+03  0.14759422443E+03  0.00000000000E+00 0.  1.
<mgrwt>
<rscale>  2 0.17267524E+03</rscale>
<asrwt>0</asrwt>
<pdfrwt beam="1">  1       21 0.28759119E+00 0.17285168E+03</pdfrwt>
<pdfrwt beam="2">  1       21 0.40806573E-02 0.17285168E+03</pdfrwt>
<totfact> 0.15565755E+04</totfact>
</mgrwt>
</event>
<event>
12    1  0.1019868E-001  0.2116308E+03  0.7546771E-02  0.1140616E+00
         21   -1    0    0  503  502  0.00000000000E+00  0.00000000000E+00  0.13137377248E+03  0.13137377248E+03  0.00000000000E+00 0.  1.
         21   -1    0    0  501  503 -0.00000000000E+00 -0.00000000000E+00 -0.34750488184E+03  0.34750488184E+03  0.00000000000E+00 0. -1.
          6    2    1    2  501    0  0.94189287853E+02  0.75601688750E+02 -0.69278189250E+02  0.22268154064E+03  0.17378251854E+03 0.  0.
         24    2    3    3    0    0  0.23047981534E+01  0.47371435201E+02 -0.85879058082E+02  0.12502200189E+03  0.77497892701E+02 0.  0.
         -6    2    1    2    0  502 -0.94189287853E+02 -0.75601688750E+02 -0.14685292011E+03  0.25619711367E+03  0.17170889208E+03 0.  0.
        -24    2    5    5    0    0 -0.17946467327E+02 -0.91786133643E+02 -0.12502351790E+03  0.17511988666E+03  0.79305262488E+02 0.  0.
          5    1    3    3  501    0  0.91884489699E+02  0.28230253549E+02  0.16600868832E+02  0.97659538749E+02  0.47000000000E+01 0. -1.
        -11    1    4    4    0    0  0.13333961976E+02  0.10300856915E+02  0.11395131598E+02  0.20340875578E+02  0.00000000000E+00 0.  1.
         12    1    4    4    0    0 -0.11029163822E+02  0.37070578286E+02 -0.97274189680E+02  0.10468112632E+03  0.00000000000E+00 0. -1.
         -5    1    5    5    0  502 -0.76242820526E+02  0.16184444892E+02 -0.21829402213E+02  0.81077227007E+02  0.47000000000E+01 0.  1.
         11    1    6    6    0    0 -0.41778801468E+01 -0.96244481749E+02 -0.72305426462E+02  0.12045135801E+03  0.00000000000E+00 0. -1.
        -12    1    6    6    0    0 -0.13768587180E+02  0.44583481067E+01 -0.52718091435E+02  0.54668528655E+02  0.00000000000E+00 0.  1.
<mgrwt>
<rscale>  2 0.21120467E+03</rscale>
<asrwt>0</asrwt>
<pdfrwt beam="1">  1       21 0.20211350E-01 0.21163081E+03</pdfrwt>
<pdfrwt beam="2">  1       21 0.53462289E-01 0.21163081E+03</pdfrwt>
<totfact> 0.74336292E+04</totfact>
</mgrwt>
</event>
<event>
12    1  0.1019868E-001  0.2489584E+03  0.7546771E-02  0.1114048E+00
         21   -1    0    0  503  502  0.00000000000E+00  0.00000000000E+00  0.55543724750E+03  0.55543724750E+03  0.00000000000E+00 0. -1.
         21   -1    0    0  501  503 -0.00000000000E+00 -0.00000000000E+00 -0.12240538866E+03  0.12240538866E+03  0.00000000000E+00 0. -1.
          6    2    1    2  501    0  0.54793762972E+02 -0.16897861548E+03  0.31814509317E+03  0.40365423819E+03  0.17367876885E+03 0.  0.
         24    2    3    3    0    0 -0.29247242759E+02 -0.38960462735E+02  0.11978090758E+03  0.15198371785E+03  0.79864045746E+02 0.  0.
         -6    2    1    2    0  502 -0.54793762972E+02  0.16897861548E+03  0.11488676567E+03  0.27418839797E+03  0.17442528403E+03 0.  0.
        -24    2    5    5    0    0 -0.84940081436E+02  0.55786058437E+02  0.78717868343E+02  0.15150329448E+03  0.80186306126E+02 0.  0.
          5    1    3    3  501    0  0.84041005731E+02 -0.13001815274E+03  0.19836418559E+03  0.25167052035E+03  0.47000000000E+01 0. -1.
        -13    1    4    4    0    0 -0.21846987510E+02 -0.55358449957E+02  0.43778384711E+02  0.73880957038E+02  0.00000000000E+00 0.  1.
         14    1    4    4    0    0 -0.74002552482E+01  0.16397987222E+02  0.76002522873E+02  0.78102760808E+02  0.00000000000E+00 0. -1.
         -5    1    5    5    0  502  0.30146318464E+02  0.11319255704E+03  0.36168897323E+02  0.12268510349E+03  0.47000000000E+01 0.  1.
         11    1    6    6    0    0  0.10713087329E+02  0.11910328519E+02 -0.52665597920E+01  0.16863060742E+02  0.00000000000E+00 0. -1.
        -12    1    6    6    0    0 -0.95653168765E+02  0.43875729918E+02  0.83984428135E+02  0.13464023373E+03  0.00000000000E+00 0.  1.
<mgrwt>
<rscale>  2 0.24882773E+03</rscale>
<asrwt>0</asrwt>
<pdfrwt beam="1">  1       21 0.85451883E-01 0.24895845E+03</pdfrwt>
<pdfrwt beam="2">  1       21 0.18831598E-01 0.24895845E+03</pdfrwt>
<totfact> 0.29695850E+04</totfact>
</mgrwt>
</event>
<event>
12    1  0.1019868E-001  0.1746114E+03  0.7546771E-02  0.1173235E+00
         21   -1    0    0  503  502  0.00000000000E+00  0.00000000000E+00  0.70065577487E+03  0.70065577487E+03  0.00000000000E+00 0. -1.
         21   -1    0    0  501  503 -0.00000000000E+00 -0.00000000000E+00 -0.47486534975E+02  0.47486534975E+02  0.00000000000E+00 0. -1.
          6    2    1    2  501    0 -0.21004347179E+01  0.18603829685E+02  0.21652406689E+03  0.27787838156E+03  0.17315660279E+03 0.  0.
         24    2    3    3    0    0  0.58036259875E+02  0.47516522634E+02  0.17294444957E+03  0.19804330846E+03  0.60707017774E+02 0.  0.
         -6    2    1    2    0  502  0.21004347179E+01 -0.18603829685E+02  0.43664517301E+03  0.47026392829E+03  0.17360484104E+03 0.  0.
        -24    2    5    5    0    0  0.47065406731E+01  0.46178815475E+02  0.35242473119E+03  0.36387428724E+03  0.77760344887E+02 0.  0.
          5    1    3    3  501    0 -0.60136694593E+02 -0.28912692949E+02  0.43579617319E+02  0.79835073093E+02  0.47000000000E+01 0. -1.
        -13    1    4    4    0    0  0.87304557754E+01  0.44043081986E+02  0.10335206723E+03  0.11268391069E+03  0.00000000000E+00 0.  1.
         14    1    4    4    0    0  0.49305804099E+02  0.34734406480E+01  0.69592382345E+02  0.85359397773E+02  0.00000000000E+00 0. -1.
         -5    1    5    5    0  502 -0.26061059552E+01 -0.64782645160E+02  0.84220441814E+02  0.10638964104E+03  0.47000000000E+01 0.  1.
         13    1    6    6    0    0 -0.23292212884E+02  0.13685813277E+02  0.26623143909E+03  0.26759859459E+03  0.00000000000E+00 0. -1.
        -14    1    6    6    0    0  0.27998753557E+02  0.32493002198E+02  0.86193292100E+02  0.96275692652E+02  0.00000000000E+00 0.  1.
<mgrwt>
<rscale>  2 0.17449992E+03</rscale>
<asrwt>0</asrwt>
<pdfrwt beam="1">  1       21 0.10779319E+00 0.17461144E+03</pdfrwt>
<pdfrwt beam="2">  1       21 0.73056213E-02 0.17461144E+03</pdfrwt>
<totfact> 0.97105448E+04</totfact>
</mgrwt>
</event>
<event>
12    1  0.1019868E-001  0.2216920E+03  0.7546771E-02  0.1134358E+00
         21   -1    0    0  501  502  0.00000000000E+00  0.00000000000E+00  0.25600514079E+03  0.25600514079E+03  0.00000000000E+00 0. -1.
         21   -1    0    0  502  503 -0.00000000000E+00 -0.00000000000E+00 -0.24684883224E+03  0.24684883224E+03  0.00000000000E+00 0. -1.
         -6    2    1    2    0  503  0.10727771158E+03 -0.84200023111E+02 -0.12207116096E+03  0.25307847648E+03  0.17478328187E+03 0.  0.
        -24    2    3    3    0    0  0.10350950811E+03 -0.49012225627E+02 -0.14942047515E+02  0.14015763076E+03  0.79400756590E+02 0.  0.
          6    2    1    2  501    0 -0.10727771158E+03  0.84200023111E+02  0.13122746951E+03  0.24977549656E+03  0.16299999580E+03 0.  0.
         24    2    5    5    0    0 -0.47514809022E+02  0.93286731337E+02  0.35090534308E+02  0.13611559554E+03  0.79599236375E+02 0.  0.
          5    1    5    5  501    0 -0.59762902558E+02 -0.90867082256E+01  0.96136935202E+02  0.11365990101E+03  0.47000000000E+01 0. -1.
        -11    1    6    6    0    0 -0.44353686789E+02  0.36114204024E+02 -0.15982431017E+02  0.59387905884E+02  0.00000000000E+00 0.  1.
         12    1    6    6    0    0 -0.31611222332E+01  0.57172527313E+02  0.51072965324E+02  0.76727689657E+02  0.00000000000E+00 0. -1.
         -5    1    3    3    0  503  0.37682034752E+01 -0.35187797484E+02 -0.10712911345E+03  0.11292084572E+03  0.47000000000E+01 0.  1.
         11    1    4    4    0    0  0.82624997628E+02 -0.13309016973E+02 -0.38974190829E+02  0.92320137113E+02  0.00000000000E+00 0. -1.
        -12    1    4    4    0    0  0.20884510478E+02 -0.35703208655E+02  0.24032143314E+02  0.47837493647E+02  0.00000000000E+00 0.  1.
<mgrwt>
<rscale>  2 0.21936400E+03</rscale>
<asrwt>0</asrwt>
<pdfrwt beam="1">  1       21 0.39385406E-01 0.22169201E+03</pdfrwt>
<pdfrwt beam="2">  1       21 0.37976744E-01 0.22169201E+03</pdfrwt>
<totfact> 0.40964089E+04</totfact>
</mgrwt>
</event>
<event>
12    1  0.1019868E-001  0.2125458E+03  0.7546771E-02  0.1140339E+00
         21   -1    0    0  503  502  0.00000000000E+00  0.00000000000E+00  0.16314771404E+03  0.16314771404E+03  0.00000000000E+00 0. -1.
         21   -1    0    0  501  503 -0.00000000000E+00 -0.00000000000E+00 -0.40743250481E+03  0.40743250481E+03  0.00000000000E+00 0. -1.
          6    2    1    2  501    0 -0.30344769494E+02  0.11983415327E+03 -0.28597675690E+03  0.35398401402E+03  0.16805043102E+03 0.  0.
         24    2    3    3    0    0 -0.49485190613E+02  0.10809950799E+03 -0.12084000751E+03  0.18726180908E+03  0.79563748063E+02 0.  0.
         -6    2    1    2    0  502  0.30344769494E+02 -0.11983415327E+03  0.41691966133E+02  0.21659620484E+03  0.17290074200E+03 0.  0.
        -24    2    5    5    0    0  0.64179211660E+02 -0.51076457763E+02  0.71340990545E+02  0.13429465675E+03  0.78852661046E+02 0.  0.
          5    1    3    3  501    0  0.19140421119E+02  0.11734645279E+02 -0.16513674939E+03  0.16672220494E+03  0.47000000000E+01 0. -1.
        -11    1    4    4    0    0  0.21126515420E+02  0.14354366307E+02 -0.24963373625E+02  0.35714807974E+02  0.00000000000E+00 0.  1.
         12    1    4    4    0    0 -0.70611706033E+02  0.93745141684E+02 -0.95876633888E+02  0.15154700111E+03  0.00000000000E+00 0. -1.
         -5    1    5    5    0  502 -0.33834442166E+02 -0.68757695508E+02 -0.29649024412E+02  0.82301548083E+02  0.47000000000E+01 0.  1.
         13    1    6    6    0    0  0.50269840182E+01 -0.79269651691E+01 -0.17082983933E+02  0.19491938979E+02  0.00000000000E+00 0. -1.
        -14    1    6    6    0    0  0.59152227642E+02 -0.43149492594E+02  0.88423974478E+02  0.11480271778E+03  0.00000000000E+00 0.  1.
<mgrwt>
<rscale>  2 0.21155724E+03</rscale>
<asrwt>0</asrwt>
<pdfrwt beam="1">  1       21 0.25099648E-01 0.21254575E+03</pdfrwt>
<pdfrwt beam="2">  1       21 0.62681924E-01 0.21254575E+03</pdfrwt>
<totfact> 0.35078749E+04</totfact>
</mgrwt>
</event>
<event>
12    1  0.1019868E-001  0.2713113E+03  0.7546771E-02  0.1100631E+00
         21   -1    0    0  501  502  0.00000000000E+00  0.00000000000E+00  0.97170845778E+03  0.97170845778E+03  0.00000000000E+00 0.  1.
         21   -1    0    0  502  503 -0.00000000000E+00 -0.00000000000E+00 -0.11404346494E+03  0.11404346494E+03  0.00000000000E+00 0. -1.
         -6    2    1    2    0  503  0.35026497515E+02 -0.20522189961E+03  0.74383320449E+03  0.79152841473E+03  0.17287715757E+03 0.  0.
        -24    2    3    3    0    0 -0.17695721855E+02 -0.47631136783E+02  0.18531354173E+03  0.20879281033E+03  0.81679037293E+02 0.  0.
          6    2    1    2  501    0 -0.35026497515E+02  0.20522189961E+03  0.11383178835E+03  0.29422350799E+03  0.17397388599E+03 0.  0.
         24    2    5    5    0    0 -0.36255214971E+01  0.76884858726E+02  0.11920170112E+03  0.16190819020E+03  0.77979424182E+02 0.  0.
          5    1    5    5  501    0 -0.31400976018E+02  0.12833704089E+03 -0.53699127770E+01  0.13231531779E+03  0.47000000000E+01 0. -1.
        -13    1    6    6    0    0 -0.79993054220E+01 -0.78128785986E+01  0.53416985381E+02  0.54574758693E+02  0.00000000000E+00 0.  1.
         14    1    6    6    0    0  0.43737839249E+01  0.84697737325E+02  0.65784715744E+02  0.10733343151E+03  0.00000000000E+00 0. -1.
         -5    1    3    3    0  503  0.52722219370E+02 -0.15759076283E+03  0.55851966276E+03  0.58273560440E+03  0.47000000000E+01 0.  1.
         13    1    4    4    0    0  0.25939099260E+02 -0.45661538247E+02  0.10131060776E+03  0.11411245414E+03  0.00000000000E+00 0. -1.
        -14    1    4    4    0    0 -0.43634821115E+02 -0.19695985357E+01  0.84002933970E+02  0.94680356187E+02  0.00000000000E+00 0.  1.
<mgrwt>
<rscale>  2 0.27113560E+03</rscale>
<asrwt>0</asrwt>
<pdfrwt beam="1">  1       21 0.14949360E+00 0.27131125E+03</pdfrwt>
<pdfrwt beam="2">  1       21 0.17545149E-01 0.27131125E+03</pdfrwt>
<totfact> 0.84207868E+03</totfact>
</mgrwt>
</event>
<event>
12    1  0.1019868E-001  0.2131726E+03  0.7546771E-02  0.1139263E+00
         21   -1    0    0  503  502  0.00000000000E+00  0.00000000000E+00  0.19718116990E+04  0.19718116990E+04  0.00000000000E+00 0. -1.
         21   -1    0    0  501  503 -0.00000000000E+00 -0.00000000000E+00 -0.36226981239E+02  0.36226981239E+02  0.00000000000E+00 0. -1.
          6    2    1    2  501    0 -0.11929355414E+03 -0.29076078357E+02  0.35845121559E+03  0.41656368820E+03  0.17309437304E+03 0.  0.
         24    2    3    3    0    0 -0.27089291611E+02 -0.50032112796E+02  0.98115649126E+02  0.13954838434E+03  0.81302084456E+02 0.  0.
         -6    2    1    2    0  502  0.11929355414E+03  0.29076078357E+02  0.15771335021E+04  0.15914749920E+04  0.17425899182E+03 0.  0.
        -24    2    5    5    0    0  0.94796887447E+02 -0.35878337497E+02  0.12745751974E+04  0.12810192294E+04  0.78705953381E+02 0.  0.
          5    1    3    3  501    0 -0.92204262525E+02  0.20956034439E+02  0.26033556647E+03  0.27701530386E+03  0.47000000000E+01 0. -1.
        -13    1    4    4    0    0 -0.22704397886E+02  0.11500010736E-01 -0.63978808088E+01  0.23588613662E+02  0.00000000000E+00 0.  1.
         14    1    4    4    0    0 -0.43848937246E+01 -0.50043612807E+02  0.10451352993E+03  0.11595977068E+03  0.00000000000E+00 0. -1.
         -5    1    5    5    0  502  0.24496666689E+02  0.64954415854E+02  0.30255830471E+03  0.31045576265E+03  0.47000000000E+01 0.  1.
         13    1    6    6    0    0  0.11774872123E+02 -0.36015922742E+02  0.62698161187E+03  0.62812557338E+03  0.00000000000E+00 0. -1.
        -14    1    6    6    0    0  0.83022015324E+02  0.13758524466E+00  0.64759358556E+03  0.65289365598E+03  0.00000000000E+00 0.  1.
<mgrwt>
<rscale>  2 0.21293448E+03</rscale>
<asrwt>0</asrwt>
<pdfrwt beam="1">  1       21 0.30335556E+00 0.21317262E+03</pdfrwt>
<pdfrwt beam="2">  1       21 0.55733832E-02 0.21317262E+03</pdfrwt>
<totfact> 0.71427448E+03</totfact>
</mgrwt>
</event>
<event>
12    1  0.1019868E-001  0.1944210E+03  0.7546771E-02  0.1154621E+00
         21   -1    0    0  501  502  0.00000000000E+00  0.00000000000E+00  0.80903674723E+03  0.80903674723E+03  0.00000000000E+00 0.  1.
         21   -1    0    0  502  503 -0.00000000000E+00 -0.00000000000E+00 -0.68776876303E+02  0.68776876303E+02  0.00000000000E+00 0. -1.
         -6    2    1    2    0  503 -0.23146787971E+02  0.84276647160E+02  0.12078195062E+03  0.22854294715E+03  0.17322029917E+03 0.  0.
        -24    2    3    3    0    0 -0.21515092804E+02  0.11602693752E+03  0.13056248119E+03  0.19494990999E+03  0.83867493469E+02 0.  0.
          6    2    1    2  501    0  0.23146787971E+02 -0.84276647160E+02  0.61947792030E+03  0.64927067638E+03  0.17366977405E+03 0.  0.
         24    2    5    5    0    0  0.26685582225E+02  0.86790508671E+01  0.42866945230E+03  0.43694251922E+03  0.79836204500E+02 0.  0.
          5    1    5    5  501    0 -0.35387942540E+01 -0.92955698027E+02  0.19080846801E+03  0.21232815716E+03  0.47000000000E+01 0. -1.
        -13    1    6    6    0    0  0.29113973051E+02 -0.19583892725E+02  0.37118623163E+03  0.37284094576E+03  0.00000000000E+00 0.  1.
         14    1    6    6    0    0 -0.24283908257E+01  0.28262943592E+02  0.57483220666E+02  0.64101573464E+02  0.00000000000E+00 0. -1.
         -5    1    3    3    0  503 -0.16316951673E+01 -0.31750290363E+02 -0.97805305699E+01  0.33593037158E+02  0.47000000000E+01 0.  1.
         11    1    4    4    0    0  0.29986676903E+02  0.20947771293E+02  0.35495956621E+02  0.50970313422E+02  0.00000000000E+00 0. -1.
        -12    1    4    4    0    0 -0.51501769708E+02  0.95079166230E+02  0.95066524571E+02  0.14397959657E+03  0.00000000000E+00 0.  1.
<mgrwt>
<rscale>  2 0.19432055E+03</rscale>
<asrwt>0</asrwt>
<pdfrwt beam="1">  1       21 0.12446719E+00 0.19442098E+03</pdfrwt>
<pdfrwt beam="2">  1       21 0.10581058E-01 0.19442098E+03</pdfrwt>
<totfact> 0.35367329E+04</totfact>
</mgrwt>
</event>
<event>
12    1  0.1019868E-001  0.3226422E+03  0.7546771E-02  0.1074563E+00
         21   -1    0    0  501  502  0.00000000000E+00  0.00000000000E+00  0.13024185144E+03  0.13024185144E+03  0.00000000000E+00 0. -1.
         21   -1    0    0  502  503 -0.00000000000E+00 -0.00000000000E+00 -0.87484973413E+03  0.87484973413E+03  0.00000000000E+00 0.  1.
         -6    2    1    2    0  503 -0.26836905803E+03 -0.38625518449E+02 -0.52318404673E+03  0.61467026313E+03  0.17488311421E+03 0.  0.
        -24    2    3    3    0    0 -0.95555699412E+02 -0.41279607325E+02 -0.12795462340E+03  0.18327730054E+03  0.79895466532E+02 0.  0.
          6    2    1    2  501    0  0.26836905803E+03  0.38625518449E+02 -0.22142383595E+03  0.39042132244E+03  0.17287686919E+03 0.  0.
         24    2    5    5    0    0  0.13548071266E+03  0.88253490116E+02 -0.10129078725E+03  0.20447432112E+03  0.73527018136E+02 0.  0.
          5    1    5    5  501    0  0.13288834537E+03 -0.49627971667E+02 -0.12013304871E+03  0.18594700132E+03  0.47000000000E+01 0. -1.
        -13    1    6    6    0    0  0.17673178319E+02  0.47544761370E+02 -0.15063941483E+02  0.52912833024E+02  0.00000000000E+00 0.  1.
         14    1    6    6    0    0  0.11780753434E+03  0.40708728746E+02 -0.86226845763E+02  0.15156148809E+03  0.00000000000E+00 0. -1.
         -5    1    3    3    0  503 -0.17281335862E+03  0.26540888759E+01 -0.39522942333E+03  0.43139296259E+03  0.47000000000E+01 0.  1.
         11    1    4    4    0    0 -0.14106498157E+02 -0.12821464418E+02  0.92593371944E+01  0.21192417639E+02  0.00000000000E+00 0. -1.
        -12    1    4    4    0    0 -0.81449201255E+02 -0.28458142906E+02 -0.13721396059E+03  0.16208488290E+03  0.00000000000E+00 0.  1.
<mgrwt>
<rscale>  2 0.32237109E+03</rscale>
<asrwt>0</asrwt>
<pdfrwt beam="1">  1       21 0.20037207E-01 0.32264219E+03</pdfrwt>
<pdfrwt beam="2">  1       21 0.13459227E+00 0.32264219E+03</pdfrwt>
<totfact> 0.84313522E+03</totfact>
</mgrwt>
</event>
<event>
12    1  0.1019868E-001  0.1857592E+03  0.7546771E-02  0.1162969E+00
         21   -1    0    0  501  502  0.00000000000E+00  0.00000000000E+00  0.41778960387E+03  0.41778960387E+03  0.00000000000E+00 0. -1.
         21   -1    0    0  502  503 -0.00000000000E+00 -0.00000000000E+00 -0.14953712525E+03  0.14953712525E+03  0.00000000000E+00 0.  1.
         -6    2    1    2    0  503  0.43309845109E+02 -0.33588053207E+02 -0.56808647769E+02  0.19425161622E+03  0.17748962770E+03 0.  0.
        -24    2    3    3    0    0  0.84967237260E+02  0.97393842086E+01 -0.11109203066E+02  0.11860021570E+03  0.81414432133E+02 0.  0.
          6    2    1    2  501    0 -0.43309845109E+02  0.33588053207E+02  0.32506112639E+03  0.37307511290E+03  0.17468945008E+03 0.  0.
         24    2    5    5    0    0 -0.83747323645E+02  0.50499310678E+02  0.17323888702E+03  0.21498253664E+03  0.81498371074E+02 0.  0.
          5    1    5    5  501    0  0.40437478535E+02 -0.16911257471E+02  0.15182223938E+03  0.15809257626E+03  0.47000000000E+01 0. -1.
        -11    1    6    6    0    0  0.13335146507E+02 -0.57891486321E+01  0.26803596651E+02  0.30492182075E+02  0.00000000000E+00 0.  1.
         12    1    6    6    0    0 -0.97082470152E+02  0.56288459310E+02  0.14643529036E+03  0.18449035456E+03  0.00000000000E+00 0. -1.
         -5    1    3    3    0  503 -0.41657392150E+02 -0.43327437416E+02 -0.45699444703E+02  0.75651400515E+02  0.47000000000E+01 0.  1.
         13    1    4    4    0    0  0.43100375659E+02  0.28190771037E+01  0.35250860469E+02  0.55751347441E+02  0.00000000000E+00 0. -1.
        -14    1    4    4    0    0  0.41866861600E+02  0.69203071049E+01 -0.46360063535E+02  0.62848868261E+02  0.00000000000E+00 0.  1.
<mgrwt>
<rscale>  2 0.18508711E+03</rscale>
<asrwt>0</asrwt>
<pdfrwt beam="1">  1       21 0.64275323E-01 0.18575917E+03</pdfrwt>
<pdfrwt beam="2">  1       21 0.23005712E-01 0.18575917E+03</pdfrwt>
<totfact> 0.39756220E+04</totfact>
</mgrwt>
</event>
<event>
12    1  0.1019868E-001  0.2188367E+03  0.7546771E-02  0.1134933E+00
         21   -1    0    0  501  502  0.00000000000E+00  0.00000000000E+00  0.39644523871E+03  0.39644523871E+03  0.00000000000E+00 0.  1.
         21   -1    0    0  502  503 -0.00000000000E+00 -0.00000000000E+00 -0.23759639259E+03  0.23759639259E+03  0.00000000000E+00 0.  1.
         -6    2    1    2    0  503 -0.20465254313E+02 -0.12973199088E+03 -0.14326148681E+03  0.26155944499E+03  0.17504363334E+03 0.  0.
        -24    2    3    3    0    0 -0.54240734040E+02 -0.47742997475E+02 -0.13163746418E+03  0.17200395397E+03  0.83877810953E+02 0.  0.
          6    2    1    2  501    0  0.20465254313E+02  0.12973199088E+03  0.30211033293E+03  0.37248218631E+03  0.17384795014E+03 0.  0.
         24    2    5    5    0    0  0.27910842205E+02  0.52941428963E+02  0.27164968778E+03  0.28940289839E+03  0.79866605755E+02 0.  0.
          5    1    5    5  501    0 -0.74455878917E+01  0.76790561913E+02  0.30460645148E+02  0.83079287917E+02  0.47000000000E+01 0. -1.
        -11    1    6    6    0    0 -0.11819178154E+01  0.55410112436E+02  0.92063063016E+02  0.10745829452E+03  0.00000000000E+00 0.  1.
         12    1    6    6    0    0  0.29092760020E+02 -0.24686834735E+01  0.17958662476E+03  0.18194460387E+03  0.00000000000E+00 0. -1.
         -5    1    3    3    0  503  0.33775479727E+02 -0.81988993400E+02 -0.11624022632E+02  0.89555491019E+02  0.47000000000E+01 0.  1.
         11    1    4    4    0    0 -0.18321501472E+02 -0.92906616592E+01  0.85619347074E+01  0.22255348485E+02  0.00000000000E+00 0. -1.
        -12    1    4    4    0    0 -0.35919232568E+02 -0.38452335816E+02 -0.14019939889E+03  0.14974860549E+03  0.00000000000E+00 0.  1.
<mgrwt>
<rscale>  2 0.21859748E+03</rscale>
<asrwt>0</asrwt>
<pdfrwt beam="1">  1       21 0.60991575E-01 0.21883667E+03</pdfrwt>
<pdfrwt beam="2">  1       21 0.36553291E-01 0.21883667E+03</pdfrwt>
<totfact> 0.17774118E+04</totfact>
</mgrwt>
</event>
<event>
12    1  0.1019868E-001  0.1751346E+03  0.7546771E-02  0.1172707E+00
         21   -1    0    0  501  502  0.00000000000E+00  0.00000000000E+00  0.65752288132E+03  0.65752288132E+03  0.00000000000E+00 0. -1.
         21   -1    0    0  502  503 -0.00000000000E+00 -0.00000000000E+00 -0.10764791974E+03  0.10764791974E+03  0.00000000000E+00 0. -1.
         -6    2    1    2    0  503  0.61050458630E+00  0.28035612323E+02 -0.13187279634E+02  0.17563042807E+03  0.17287502609E+03 0.  0.
        -24    2    3    3    0    0  0.63549597514E+02 -0.28837624968E+01 -0.15810684494E+02  0.10530042444E+03  0.82409551710E+02 0.  0.
          6    2    1    2  501    0 -0.61050458630E+00 -0.28035612323E+02  0.56306224121E+03  0.58954037299E+03  0.17243084303E+03 0.  0.
         24    2    5    5    0    0 -0.65418316486E+02 -0.49726655553E+01  0.37762350945E+03  0.39169809935E+03  0.80768822060E+02 0.  0.
          5    1    5    5  501    0  0.64807811899E+02 -0.23062946768E+02  0.18543873177E+03  0.19784227363E+03  0.47000000000E+01 0. -1.
        -13    1    6    6    0    0  0.17391661306E+02 -0.82126587309E+01  0.45640107679E+02  0.49527134739E+02  0.00000000000E+00 0.  1.
         14    1    6    6    0    0 -0.82809977792E+02  0.32399931756E+01  0.33198340177E+03  0.34217096462E+03  0.00000000000E+00 0. -1.
         -5    1    3    3    0  503 -0.62939092928E+02  0.30919374820E+02  0.26234048595E+01  0.70330003633E+02  0.47000000000E+01 0.  1.
         11    1    4    4    0    0 -0.19749549585E+01 -0.12662180759E+02 -0.34219278656E+02  0.36540255888E+02  0.00000000000E+00 0. -1.
        -12    1    4    4    0    0  0.65524552473E+02  0.97784182619E+01  0.18408594162E+02  0.68760168554E+02  0.00000000000E+00 0.  1.
<mgrwt>
<rscale>  2 0.17502493E+03</rscale>
<asrwt>0</asrwt>
<pdfrwt beam="1">  1       21 0.10115736E+00 0.17513464E+03</pdfrwt>
<pdfrwt beam="2">  1       21 0.16561219E-01 0.17513464E+03</pdfrwt>
<totfact> 0.26417965E+04</totfact>
</mgrwt>
</event>
<event>
12    1  0.1019868E-001  0.2196790E+03  0.7546771E-02  0.1134423E+00
         21   -1    0    0  503  502  0.00000000000E+00  0.00000000000E+00  0.11437514942E+03  0.11437514942E+03  0.00000000000E+00 0.  1.
         21   -1    0    0  501  503 -0.00000000000E+00 -0.00000000000E+00 -0.13999004836E+04  0.13999004836E+04  0.00000000000E+00 0.  1.
          6    2    1    2  501    0 -0.73914248218E+02 -0.10935313560E+03 -0.12772890001E+04  0.12960424609E+04  0.17560594075E+03 0.  0.
         24    2    3    3    0    0 -0.11839372085E+03 -0.73187199567E+02 -0.10002807580E+04  0.10131254154E+04  0.80548577687E+02 0.  0.
         -6    2    1    2    0  502  0.73914248218E+02  0.10935313560E+03 -0.82363340943E+01  0.21823317210E+03  0.17359854795E+03 0.  0.
        -24    2    5    5    0    0 -0.10079537243E+02  0.98808913109E+02 -0.22488115656E+02  0.13226026996E+03  0.84393514468E+02 0.  0.
          5    1    3    3  501    0  0.44479472633E+02 -0.36165936035E+02 -0.27700824213E+03  0.28291704548E+03  0.47000000000E+01 0. -1.
        -13    1    4    4    0    0 -0.78487409828E+02 -0.27466374563E+02 -0.78693476550E+03  0.79131599275E+03  0.00000000000E+00 0.  1.
         14    1    4    4    0    0 -0.39906311023E+02 -0.45720825004E+02 -0.21334599246E+03  0.22180942270E+03  0.00000000000E+00 0. -1.
         -5    1    5    5    0  502  0.83993785461E+02  0.10544222493E+02  0.14251781562E+02  0.85972902136E+02  0.47000000000E+01 0.  1.
         11    1    6    6    0    0  0.24977595616E+02  0.42272605856E+01  0.85280808364E+01  0.26729724607E+02  0.00000000000E+00 0. -1.
        -12    1    6    6    0    0 -0.35057132859E+02  0.94581652524E+02 -0.31016196492E+02  0.10553054536E+03  0.00000000000E+00 0.  1.
<mgrwt>
<rscale>  2 0.21927759E+03</rscale>
<asrwt>0</asrwt>
<pdfrwt beam="1">  1       21 0.17596177E-01 0.21967902E+03</pdfrwt>
<pdfrwt beam="2">  1       21 0.21536930E+00 0.21967902E+03</pdfrwt>
<totfact> 0.30638326E+03</totfact>
</mgrwt>
</event>
<event>
12    1  0.1019868E-001  0.2157908E+03  0.7546771E-02  0.1137885E+00
         21   -1    0    0  503  502  0.00000000000E+00  0.00000000000E+00  0.22512678403E+03  0.22512678403E+03  0.00000000000E+00 0. -1.
         21   -1    0    0  501  503 -0.00000000000E+00 -0.00000000000E+00 -0.40683988047E+03  0.40683988047E+03  0.00000000000E+00 0. -1.
          6    2    1    2  501    0 -0.55952828034E+02 -0.11632741175E+03 -0.31509271842E+03  0.38190193069E+03  0.17292448577E+03 0.  0.
         24    2    3    3    0    0  0.36767762441E+02 -0.53704671349E+02 -0.13541343676E+03  0.17018171491E+03  0.79930952427E+02 0.  0.
         -6    2    1    2    0  502  0.55952828034E+02  0.11632741175E+03  0.13337962198E+03  0.25006473380E+03  0.16756927476E+03 0.  0.
        -24    2    5    5    0    0  0.21430557579E+02  0.53918856645E+02  0.14726833493E+03  0.17725263828E+03  0.79774829376E+02 0.  0.
          5    1    3    3  501    0 -0.92720590474E+02 -0.62622740398E+02 -0.17967928166E+03  0.21172021578E+03  0.47000000000E+01 0. -1.
        -11    1    4    4    0    0  0.53703475853E+02 -0.60846825066E+02 -0.89987353503E+02  0.12117806414E+03  0.00000000000E+00 0.  1.
         12    1    4    4    0    0 -0.16935713413E+02  0.71421537172E+01 -0.45426083257E+02  0.49003650768E+02  0.00000000000E+00 0. -1.
         -5    1    5    5    0  502  0.34522270455E+02  0.62408555102E+02 -0.13888712954E+02  0.72812095526E+02  0.47000000000E+01 0.  1.
         11    1    6    6    0    0  0.17783215281E+01  0.71665727533E+02  0.99486924202E+02  0.12262457754E+03  0.00000000000E+00 0. -1.
        -12    1    6    6    0    0  0.19652236050E+02 -0.17746870888E+02  0.47781410732E+02  0.54628060735E+02  0.00000000000E+00 0.  1.
<mgrwt>
<rscale>  2 0.21471599E+03</rscale>
<asrwt>0</asrwt>
<pdfrwt beam="1">  1       21 0.34634890E-01 0.21579079E+03</pdfrwt>
<pdfrwt beam="2">  1       21 0.62590750E-01 0.21579079E+03</pdfrwt>
<totfact> 0.18746247E+04</totfact>
</mgrwt>
</event>
<event>
12    1  0.1019868E-001  0.1882433E+03  0.7546771E-02  0.1160496E+00
         21   -1    0    0  501  502  0.00000000000E+00  0.00000000000E+00  0.10265016032E+04  0.10265016032E+04  0.00000000000E+00 0. -1.
         21   -1    0    0  502  503 -0.00000000000E+00 -0.00000000000E+00 -0.34218546695E+02  0.34218546695E+02  0.00000000000E+00 0.  1.
         -6    2    1    2    0  503  0.64084953811E+02  0.24341311630E+02  0.47853145797E+03  0.51422554271E+03  0.17531734585E+03 0.  0.
        -24    2    3    3    0    0  0.19565338730E+02 -0.17320188077E+02  0.96861404345E+02  0.12768732142E+03  0.78988157379E+02 0.  0.
          6    2    1    2  501    0 -0.64084953811E+02 -0.24341311630E+02  0.51375159855E+03  0.54649460720E+03  0.17325204161E+03 0.  0.
         24    2    5    5    0    0 -0.89830373279E+02 -0.65336437617E+02  0.39730380807E+03  0.42029791593E+03  0.80384551907E+02 0.  0.
          5    1    5    5  501    0  0.25745419468E+02  0.40995125987E+02  0.11644779049E+03  0.12619669127E+03  0.47000000000E+01 0. -1.
        -13    1    6    6    0    0 -0.81840446143E+02 -0.31668449052E+02  0.17994843572E+03  0.20020536658E+03  0.00000000000E+00 0.  1.
         14    1    6    6    0    0 -0.79899271354E+01 -0.33667988565E+02  0.21735537234E+03  0.22009254934E+03  0.00000000000E+00 0. -1.
         -5    1    3    3    0  503  0.44519615081E+02  0.41661499707E+02  0.38167005362E+03  0.38653822129E+03  0.47000000000E+01 0.  1.
         11    1    4    4    0    0  0.35174890858E+02 -0.21668069387E+02  0.10251428255E+03  0.11052581737E+03  0.00000000000E+00 0. -1.
        -12    1    4    4    0    0 -0.15609552128E+02  0.43478813103E+01 -0.56528782045E+01  0.17161504058E+02  0.00000000000E+00 0.  1.
<mgrwt>
<rscale>  2 0.18776099E+03</rscale>
<asrwt>0</asrwt>
<pdfrwt beam="1">  1       21 0.15792330E+00 0.18824333E+03</pdfrwt>
<pdfrwt beam="2">  1       21 0.52643926E-02 0.18824333E+03</pdfrwt>
<totfact> 0.64406092E+04</totfact>
</mgrwt>
</event>
<event>
12    1  0.1019868E-001  0.1802558E+03  0.7546771E-02  0.1168104E+00
         21   -1    0    0  501  502  0.00000000000E+00  0.00000000000E+00  0.52535422145E+03  0.52535422145E+03  0.00000000000E+00 0.  1.
         21   -1    0    0  502  503 -0.00000000000E+00 -0.00000000000E+00 -0.16246486652E+03  0.16246486652E+03  0.00000000000E+00 0.  1.
         -6    2    1    2    0  503 -0.37324778882E+02 -0.10831085537E+02 -0.89804443195E+02  0.20138763211E+03  0.17601616067E+03 0.  0.
        -24    2    3    3    0    0 -0.52097905572E+02 -0.40443883577E+02  0.15533769943E+01  0.10410708735E+03  0.80535539810E+02 0.  0.
          6    2    1    2  501    0  0.37324778882E+02  0.10831085537E+02  0.45269379813E+03  0.48643145585E+03  0.17370502251E+03 0.  0.
         24    2    5    5    0    0 -0.44369915073E+02 -0.15688773137E+02  0.21022689875E+03  0.22915803473E+03  0.78123165287E+02 0.  0.
          5    1    5    5  501    0  0.81694693954E+02  0.26519858674E+02  0.24246689937E+03  0.25727342112E+03  0.47000000000E+01 0. -1.
        -13    1    6    6    0    0  0.19073775205E+02 -0.13391440739E+02  0.92653864493E+02  0.95539929825E+02  0.00000000000E+00 0.  1.
         14    1    6    6    0    0 -0.63443690278E+02 -0.22973323975E+01  0.11757303426E+03  0.13361810490E+03  0.00000000000E+00 0. -1.
         -5    1    3    3    0  503  0.14773126691E+02  0.29612798039E+02 -0.91357820189E+02  0.97280544765E+02  0.47000000000E+01 0.  1.
         13    1    4    4    0    0  0.19313690017E+02  0.30768154550E+01  0.57159294219E+01  0.20375408329E+02  0.00000000000E+00 0. -1.
        -14    1    4    4    0    0 -0.71411595589E+02 -0.43520699032E+02 -0.41625524276E+01  0.83731679020E+02  0.00000000000E+00 0.  1.
<mgrwt>
<rscale>  2 0.17968908E+03</rscale>
<asrwt>0</asrwt>
<pdfrwt beam="1">  1       21 0.80823726E-01 0.18025576E+03</pdfrwt>
<pdfrwt beam="2">  1       21 0.24994595E-01 0.18025576E+03</pdfrwt>
<totfact> 0.20515920E+04</totfact>
</mgrwt>
</event>
<event>
12    1  0.1019868E-001  0.1761088E+03  0.7546771E-02  0.1171710E+00
         21   -1    0    0  501  502  0.00000000000E+00  0.00000000000E+00  0.37322616797E+03  0.37322616797E+03  0.00000000000E+00 0.  1.
         21   -1    0    0  502  503 -0.00000000000E+00 -0.00000000000E+00 -0.83369663138E+02  0.83369663138E+02  0.00000000000E+00 0.  1.
         -6    2    1    2    0  503 -0.72109242605E+01 -0.28743598446E+02  0.12853917626E+03  0.21802894717E+03  0.17359755209E+03 0.  0.
        -24    2    3    3    0    0 -0.61627708413E+02 -0.20681189427E+02  0.31568836749E+02  0.10644254306E+03  0.78152015200E+02 0.  0.
          6    2    1    2  501    0  0.72109242605E+01  0.28743598446E+02  0.16131732856E+03  0.23856688393E+03  0.17324169744E+03 0.  0.
         24    2    5    5    0    0 -0.39631829743E+02  0.52863374088E+02  0.15332610831E+03  0.18506962436E+03  0.79853942453E+02 0.  0.
          5    1    5    5  501    0  0.46842754004E+02 -0.24119775642E+02  0.79912202557E+01  0.53497259564E+02  0.47000000000E+01 0. -1.
        -13    1    6    6    0    0 -0.25513069988E+02  0.60089084373E+02  0.54677691862E+02  0.85154358599E+02  0.00000000000E+00 0.  1.
         14    1    6    6    0    0 -0.14118759755E+02 -0.72257102849E+01  0.98648416444E+02  0.99915265765E+02  0.00000000000E+00 0. -1.
         -5    1    3    3    0  503  0.54416784152E+02 -0.80624090189E+01  0.96970339516E+02  0.11158640411E+03  0.47000000000E+01 0.  1.
         13    1    4    4    0    0 -0.14999690467E+02  0.18945495386E+02 -0.15961154003E+02  0.28959988720E+02  0.00000000000E+00 0. -1.
        -14    1    4    4    0    0 -0.46628017945E+02 -0.39626684813E+02  0.47529990752E+02  0.77482554344E+02  0.00000000000E+00 0.  1.
<mgrwt>
<rscale>  2 0.17602102E+03</rscale>
<asrwt>0</asrwt>
<pdfrwt beam="1">  1       21 0.57419410E-01 0.17610878E+03</pdfrwt>
<pdfrwt beam="2">  1       21 0.12826102E-01 0.17610878E+03</pdfrwt>
<totfact> 0.14906832E+05</totfact>
</mgrwt>
</event>
<event>
12    1  0.1019868E-001  0.1860683E+03  0.7546771E-02  0.1162265E+00
         21   -1    0    0  501  502  0.00000000000E+00  0.00000000000E+00  0.27932222350E+03  0.27932222350E+03  0.00000000000E+00 0.  1.
         21   -1    0    0  502  503 -0.00000000000E+00 -0.00000000000E+00 -0.15289966279E+03  0.15289966279E+03  0.00000000000E+00 0.  1.
         -6    2    1    2    0  503 -0.65282519923E+02  0.14321355777E+02 -0.31916474736E+02  0.18790105508E+03  0.17268826394E+03 0.  0.
        -24    2    3    3    0    0 -0.44506693879E+01  0.58096338707E+02 -0.48482808086E+02  0.11100309301E+03  0.81093223814E+02 0.  0.
          6    2    1    2  501    0  0.65282519923E+02 -0.14321355777E+02  0.15833903544E+03  0.24432083120E+03  0.17365053923E+03 0.  0.
         24    2    5    5    0    0  0.11093240427E+03 -0.50773693794E+01  0.13464024604E+03  0.19185097467E+03  0.79668203387E+02 0.  0.
          5    1    5    5  501    0 -0.45649884348E+02 -0.92439863972E+01  0.23698789404E+02  0.52469856534E+02  0.47000000000E+01 0. -1.
        -11    1    6    6    0    0  0.35621471382E+02 -0.38704778305E+02  0.67017154233E+02  0.85195352271E+02  0.00000000000E+00 0.  1.
         12    1    6    6    0    0  0.75310932889E+02  0.33627408926E+02  0.67623091804E+02  0.10665562240E+03  0.00000000000E+00 0. -1.
         -5    1    3    3    0  503 -0.60831850535E+02 -0.43774982931E+02  0.16566333351E+02  0.76897962072E+02  0.47000000000E+01 0.  1.
         13    1    4    4    0    0  0.37756309233E+02  0.33555124283E+02 -0.18993156322E+02  0.53965037196E+02  0.00000000000E+00 0. -1.
        -14    1    4    4    0    0 -0.42206978621E+02  0.24541214425E+02 -0.29489651764E+02  0.57038055813E+02  0.00000000000E+00 0.  1.
<mgrwt>
<rscale>  2 0.18584348E+03</rscale>
<asrwt>0</asrwt>
<pdfrwt beam="1">  1       21 0.42972650E-01 0.18606832E+03</pdfrwt>
<pdfrwt beam="2">  1       21 0.23523025E-01 0.18606832E+03</pdfrwt>
<totfact> 0.88799014E+04</totfact>
</mgrwt>
</event>
<event>
12    1  0.1019868E-001  0.1744186E+03  0.7546771E-02  0.1173723E+00
         21   -1    0    0  501  502  0.00000000000E+00  0.00000000000E+00  0.20081171289E+03  0.20081171289E+03  0.00000000000E+00 0.  1.
         21   -1    0    0  502  503 -0.00000000000E+00 -0.00000000000E+00 -0.83237667895E+03  0.83237667895E+03  0.00000000000E+00 0.  1.
         -6    2    1    2    0  503 -0.21042397216E+02 -0.12041377311E+01 -0.78374584564E+03  0.80291930659E+03  0.17314049185E+03 0.  0.
        -24    2    3    3    0    0 -0.43221257596E+02  0.42795410819E+02 -0.28579588012E+03  0.30251534950E+03  0.78337266301E+02 0.  0.
          6    2    1    2  501    0  0.21042397216E+02  0.12041377311E+01  0.15218087958E+03  0.23026908524E+03  0.17152433961E+03 0.  0.
         24    2    5    5    0    0  0.79084748365E+02 -0.16109899204E+01  0.11407628891E+03  0.16062075934E+03  0.80799974797E+02 0.  0.
          5    1    5    5  501    0 -0.58042351149E+02  0.28151276515E+01  0.38104590672E+02  0.69648325901E+02  0.47000000000E+01 0. -1.
        -11    1    6    6    0    0  0.62719270686E+02 -0.17063465391E+02  0.12075974947E+03  0.13714148118E+03  0.00000000000E+00 0.  1.
         12    1    6    6    0    0  0.16365477679E+02  0.15452475470E+02 -0.66834605669E+01  0.23479278161E+02  0.00000000000E+00 0. -1.
         -5    1    3    3    0  503  0.22178860380E+02 -0.43999548550E+02 -0.49794996552E+03  0.50040395710E+03  0.47000000000E+01 0.  1.
         13    1    4    4    0    0 -0.25842079669E+02  0.64277269078E+02 -0.17233583035E+03  0.18573911495E+03  0.00000000000E+00 0. -1.
        -14    1    4    4    0    0 -0.17379177927E+02 -0.21481858259E+02 -0.11346004977E+03  0.11677623454E+03  0.00000000000E+00 0.  1.
<mgrwt>
<rscale>  2 0.17401620E+03</rscale>
<asrwt>0</asrwt>
<pdfrwt beam="1">  1       21 0.30894110E-01 0.17441864E+03</pdfrwt>
<pdfrwt beam="2">  1       21 0.12805795E+00 0.17441864E+03</pdfrwt>
<totfact> 0.45885128E+03</totfact>
</mgrwt>
</event>
<event>
12    1  0.1019868E-001  0.2444909E+03  0.7546771E-02  0.1119440E+00
         21   -1    0    0  503  502  0.00000000000E+00  0.00000000000E+00  0.96791901826E+02  0.96791901826E+02  0.00000000000E+00 0. -1.
         21   -1    0    0  501  503 -0.00000000000E+00 -0.00000000000E+00 -0.60385190712E+03  0.60385190712E+03  0.00000000000E+00 0.  1.
          6    2    1    2  501    0 -0.11656199406E+03  0.90875880437E+02 -0.31642776490E+03  0.39061725610E+03  0.17495766991E+03 0.  0.
         24    2    3    3    0    0 -0.11175384503E+03  0.24243186365E+02 -0.28279916972E+03  0.31567723589E+03  0.81240955785E+02 0.  0.
         -6    2    1    2    0  502  0.11656199406E+03 -0.90875880437E+02 -0.19063224039E+03  0.31002655284E+03  0.19475802496E+03 0.  0.
        -24    2    5    5    0    0  0.60761163335E+02  0.71380846603E-02 -0.10461846479E+02  0.10060612259E+03  0.79499827985E+02 0.  0.
          5    1    3    3  501    0 -0.48081490315E+01  0.66632694072E+02 -0.33628595176E+02  0.74940020215E+02  0.47000000000E+01 0. -1.
        -11    1    4    4    0    0 -0.28797312100E+02  0.37244240970E+02 -0.16097392326E+03  0.16771709107E+03  0.00000000000E+00 0.  1.
         12    1    4    4    0    0 -0.82956532929E+02 -0.13001054605E+02 -0.12182524647E+03  0.14796014481E+03  0.00000000000E+00 0. -1.
         -5    1    5    5    0  502  0.55800830725E+02 -0.90883018522E+02 -0.18017039391E+03  0.20942043026E+03  0.47000000000E+01 0.  1.
         13    1    6    6    0    0  0.29482205165E+02 -0.17614837487E+02  0.30645420378E+02  0.46028520628E+02  0.00000000000E+00 0. -1.
        -14    1    6    6    0    0  0.31278958170E+02  0.17621975572E+02 -0.41107266857E+02  0.54577601960E+02  0.00000000000E+00 0.  1.
<mgrwt>
<rscale>  2 0.24053082E+03</rscale>
<asrwt>0</asrwt>
<pdfrwt beam="1">  1       21 0.14891062E-01 0.24449092E+03</pdfrwt>
<pdfrwt beam="2">  1       21 0.92900295E-01 0.24449092E+03</pdfrwt>
<totfact> 0.37809031E+04</totfact>
</mgrwt>
</event>
<event>
12    1  0.1019868E-001  0.2228347E+03  0.7546771E-02  0.1132040E+00
         21   -1    0    0  503  502  0.00000000000E+00  0.00000000000E+00  0.22519616379E+03  0.22519616379E+03  0.00000000000E+00 0. -1.
         21   -1    0    0  501  503 -0.00000000000E+00 -0.00000000000E+00 -0.21968077008E+03  0.21968077008E+03  0.00000000000E+00 0. -1.
          6    2    1    2  501    0  0.13410962467E+03  0.31682151675E+02 -0.82913534335E+01  0.22298888054E+03  0.17511751522E+03 0.  0.
         24    2    3    3    0    0  0.61988180085E+02  0.75895781235E+02 -0.23788943948E+02  0.13685750925E+03  0.92527616985E+02 0.  0.
         -6    2    1    2    0  502 -0.13410962467E+03 -0.31682151675E+02  0.13806747140E+02  0.22188805333E+03  0.17336242897E+03 0.  0.
        -24    2    5    5    0    0 -0.16282089741E+03 -0.88135307180E+01  0.13382092428E+01  0.18283852780E+03  0.82703164914E+02 0.  0.
          5    1    3    3  501    0  0.72121444584E+02 -0.44213629560E+02  0.15497590515E+02  0.86131371285E+02  0.47000000000E+01 0. -1.
        -13    1    4    4    0    0 -0.42741333822E+01  0.37033020540E+02 -0.43759819139E+02  0.57485951306E+02  0.00000000000E+00 0.  1.
         14    1    4    4    0    0  0.66262313468E+02  0.38862760695E+02  0.19970875190E+02  0.79371557946E+02  0.00000000000E+00 0. -1.
         -5    1    5    5    0  502  0.28711272739E+02 -0.22868620957E+02  0.12468537897E+02  0.39049525529E+02  0.47000000000E+01 0.  1.
         13    1    6    6    0    0 -0.12745031547E+03 -0.41838816911E+02 -0.36413885569E+01  0.13419139027E+03  0.00000000000E+00 0. -1.
        -14    1    6    6    0    0 -0.35370581942E+02  0.33025286193E+02  0.49795977997E+01  0.48647137525E+02  0.00000000000E+00 0.  1.
<mgrwt>
<rscale>  2 0.22248973E+03</rscale>
<asrwt>0</asrwt>
<pdfrwt beam="1">  1       21 0.34645564E-01 0.22283468E+03</pdfrwt>
<pdfrwt beam="2">  1       21 0.33797042E-01 0.22283468E+03</pdfrwt>
<totfact> 0.66837074E+04</totfact>
</mgrwt>
</event>
<event>
12    1  0.1019868E-001  0.1854826E+03  0.7546771E-02  0.1163224E+00
         21   -1    0    0  503  502  0.00000000000E+00  0.00000000000E+00  0.38115645552E+03  0.38115645552E+03  0.00000000000E+00 0.  1.
         21   -1    0    0  501  503 -0.00000000000E+00 -0.00000000000E+00 -0.10218143855E+03  0.10218143855E+03  0.00000000000E+00 0.  1.
          6    2    1    2  501    0 -0.64890976208E+02  0.14459653108E+02  0.51720698447E+02  0.18999798494E+03  0.17030643932E+03 0.  0.
         24    2    3    3    0    0 -0.32148535714E+01 -0.89817949233E+01 -0.28229607627E+02  0.86231000643E+02  0.80918890264E+02 0.  0.
         -6    2    1    2    0  502  0.64890976208E+02 -0.14459653108E+02  0.22725431852E+03  0.29333990913E+03  0.17315847262E+03 0.  0.
        -24    2    5    5    0    0 -0.50283949453E+01  0.38547082786E+02  0.10879378196E+03  0.14584949847E+03  0.89021496648E+02 0.  0.
          5    1    3    3  501    0 -0.61676122636E+02  0.23441448031E+02  0.79950306075E+02  0.10376698430E+03  0.47000000000E+01 0. -1.
        -13    1    4    4    0    0 -0.19752019918E+02  0.27472019978E+02 -0.31288310494E+02  0.46084840741E+02  0.00000000000E+00 0.  1.
         14    1    4    4    0    0  0.16537166347E+02 -0.36453814901E+02  0.30587028670E+01  0.40146159902E+02  0.00000000000E+00 0. -1.
         -5    1    5    5    0  502  0.69919371153E+02 -0.53006735894E+02  0.11846053657E+03  0.14749041066E+03  0.47000000000E+01 0.  1.
         13    1    6    6    0    0  0.40032217688E+02  0.10506011121E+02  0.31151821273E+02  0.51801454529E+02  0.00000000000E+00 0. -1.
        -14    1    6    6    0    0 -0.45060612633E+02  0.28041071665E+02  0.77641960684E+02  0.94048043945E+02  0.00000000000E+00 0.  1.
<mgrwt>
<rscale>  2 0.18481403E+03</rscale>
<asrwt>0</asrwt>
<pdfrwt beam="1">  1       21 0.58639454E-01 0.18548255E+03</pdfrwt>
<pdfrwt beam="2">  1       21 0.15720222E-01 0.18548255E+03</pdfrwt>
<totfact> 0.98284359E+04</totfact>
</mgrwt>
</event>
<event>
12    1  0.1019868E-001  0.2039522E+03  0.7546771E-02  0.1146516E+00
         21   -1    0    0  503  502  0.00000000000E+00  0.00000000000E+00  0.17811870644E+03  0.17811870644E+03  0.00000000000E+00 0. -1.
         21   -1    0    0  501  503 -0.00000000000E+00 -0.00000000000E+00 -0.36824299097E+03  0.36824299097E+03  0.00000000000E+00 0. -1.
          6    2    1    2  501    0  0.24063722847E+02  0.10551826049E+03 -0.26057742952E+03  0.33090346827E+03  0.17286799149E+03 0.  0.
         24    2    3    3    0    0 -0.39258241429E+02  0.10706594864E+03 -0.19739503304E+03  0.24131456425E+03  0.79142864307E+02 0.  0.
         -6    2    1    2    0  502 -0.24063722847E+02 -0.10551826049E+03  0.70453145000E+02  0.21545822914E+03  0.17246865456E+03 0.  0.
        -24    2    5    5    0    0 -0.52465184310E+02 -0.83298588984E+01  0.92747526573E+01  0.97064335258E+02  0.80706146162E+02 0.  0.
          5    1    3    3  501    0  0.63321964276E+02 -0.15476881488E+01 -0.63182396486E+02  0.89588904023E+02  0.47000000000E+01 0. -1.
        -13    1    4    4    0    0  0.19639442779E+02  0.10841425360E+02 -0.15479910765E+02  0.27255675626E+02  0.00000000000E+00 0.  1.
         14    1    4    4    0    0 -0.58897684208E+02  0.96224523282E+02 -0.18191512227E+03  0.21405888862E+03  0.00000000000E+00 0. -1.
         -5    1    5    5    0  502  0.28401461463E+02 -0.97188401595E+02  0.61178392342E+02  0.11839389388E+03  0.47000000000E+01 0.  1.
         11    1    6    6    0    0 -0.43872598719E+02 -0.35511113411E+02  0.27950259383E+02  0.62984609974E+02  0.00000000000E+00 0. -1.
        -12    1    6    6    0    0 -0.85925855917E+01  0.27181254512E+02 -0.18675506726E+02  0.34079725284E+02  0.00000000000E+00 0.  1.
<mgrwt>
<rscale>  2 0.20386758E+03</rscale>
<asrwt>0</asrwt>
<pdfrwt beam="1">  1       21 0.27402878E-01 0.20395222E+03</pdfrwt>
<pdfrwt beam="2">  1       21 0.56652767E-01 0.20395222E+03</pdfrwt>
<totfact> 0.36986832E+04</totfact>
</mgrwt>
</event>
<event>
12    1  0.1019868E-001  0.1946773E+03  0.7546771E-02  0.1154392E+00
         21   -1    0    0  503  502  0.00000000000E+00  0.00000000000E+00  0.44105654423E+03  0.44105654423E+03  0.00000000000E+00 0.  1.
         21   -1    0    0  501  503 -0.00000000000E+00 -0.00000000000E+00 -0.11451124793E+03  0.11451124793E+03  0.00000000000E+00 0.  1.
          6    2    1    2  501    0 -0.88185701549E+02  0.21921597596E+02  0.24202318992E+02  0.19617594800E+03  0.17216845220E+03 0.  0.
         24    2    3    3    0    0 -0.74887723809E+02  0.74063316625E+02 -0.90045942859E+01  0.13276944861E+03  0.80331175270E+02 0.  0.
         -6    2    1    2    0  502  0.88185701549E+02 -0.21921597596E+02  0.30234297731E+03  0.35939184416E+03  0.17173801944E+03 0.  0.
        -24    2    5    5    0    0  0.26000497074E+02 -0.72799412621E+02  0.20593237512E+03  0.23380264904E+03  0.79244906763E+02 0.  0.
          5    1    3    3  501    0 -0.13297977740E+02 -0.52141719029E+02  0.33206913278E+02  0.63406499388E+02  0.47000000000E+01 0. -1.
        -13    1    4    4    0    0 -0.14714964675E+01  0.34431079002E+01 -0.28760412309E+02  0.29003131039E+02  0.00000000000E+00 0.  1.
         14    1    4    4    0    0 -0.73416227342E+02  0.70620208725E+02  0.19755818023E+02  0.10376631758E+03  0.00000000000E+00 0. -1.
         -5    1    5    5    0  502  0.62185204476E+02  0.50877815025E+02  0.96410602190E+02  0.12558919512E+03  0.47000000000E+01 0.  1.
         11    1    6    6    0    0  0.52266109733E+01  0.10436283716E+02  0.10917053969E+01  0.11722853780E+02  0.00000000000E+00 0. -1.
        -12    1    6    6    0    0  0.20773886100E+02 -0.83235696338E+02  0.20484066972E+03  0.22207979526E+03  0.00000000000E+00 0.  1.
<mgrwt>
<rscale>  2 0.19458209E+03</rscale>
<asrwt>0</asrwt>
<pdfrwt beam="1">  1       21 0.67854852E-01 0.19467730E+03</pdfrwt>
<pdfrwt beam="2">  1       21 0.17617115E-01 0.19467730E+03</pdfrwt>
<totfact> 0.57910404E+04</totfact>
</mgrwt>
</event>
<event>
12    1  0.1019868E-001  0.1741571E+03  0.7546771E-02  0.1174016E+00
         21   -1    0    0  501  502  0.00000000000E+00  0.00000000000E+00  0.12135483967E+03  0.12135483967E+03  0.00000000000E+00 0. -1.
         21   -1    0    0  502  503 -0.00000000000E+00 -0.00000000000E+00 -0.24816512429E+03  0.24816512429E+03  0.00000000000E+00 0. -1.
         -6    2    1    2    0  503  0.11893018375E+02  0.42925184234E+01 -0.73426995783E+02  0.18900327002E+03  0.17369756120E+03 0.  0.
        -24    2    3    3    0    0 -0.42782712210E+02 -0.31087191288E+02  0.24258146789E+01  0.88918814533E+02  0.71441564056E+02 0.  0.
          6    2    1    2  501    0 -0.11893018375E+02 -0.42925184234E+01 -0.53383288835E+02  0.18051669394E+03  0.17197857908E+03 0.  0.
         24    2    5    5    0    0 -0.59687260158E+02  0.11990755926E+01 -0.79337023826E+02  0.12565201029E+03  0.77006866784E+02 0.  0.
          5    1    5    5  501    0  0.47794241783E+02 -0.54915940160E+01  0.25953734991E+02  0.54864683654E+02  0.47000000000E+01 0. -1.
        -13    1    6    6    0    0  0.26181074371E+01  0.17993457363E+02 -0.52863980130E+02  0.55903661683E+02  0.00000000000E+00 0.  1.
         14    1    6    6    0    0 -0.62305367596E+02 -0.16794381770E+02 -0.26473043696E+02  0.69748348603E+02  0.00000000000E+00 0. -1.
         -5    1    3    3    0  503  0.54675730586E+02  0.35379709711E+02 -0.75852810462E+02  0.10008445548E+03  0.47000000000E+01 0.  1.
         13    1    4    4    0    0 -0.78679130097E+01 -0.17164437237E+02 -0.32514315431E+02  0.37599237608E+02  0.00000000000E+00 0. -1.
        -14    1    4    4    0    0 -0.34914799201E+02 -0.13922754051E+02  0.34940130110E+02  0.51319576924E+02  0.00000000000E+00 0.  1.
<mgrwt>
<rscale>  2 0.17372696E+03</rscale>
<asrwt>0</asrwt>
<pdfrwt beam="1">  1       21 0.18669976E-01 0.17415715E+03</pdfrwt>
<pdfrwt beam="2">  1       21 0.38179249E-01 0.17415715E+03</pdfrwt>
<totfact> 0.17457163E+05</totfact>
</mgrwt>
</event>
<event>
12    1  0.1019868E-001  0.2296212E+03  0.7546771E-02  0.1126907E+00
         21   -1    0    0  501  502  0.00000000000E+00  0.00000000000E+00  0.22132558530E+03  0.22132558530E+03  0.00000000000E+00 0.  1.
         21   -1    0    0  502  503 -0.00000000000E+00 -0.00000000000E+00 -0.25778430800E+03  0.25778430800E+03  0.00000000000E+00 0. -1.
         -6    2    1    2    0  503  0.99597235269E+00  0.15103859377E+03  0.47754814563E+02  0.23453306828E+03  0.17294967196E+03 0.  0.
        -24    2    3    3    0    0  0.11957280005E+02 -0.44938028017E+01 -0.13100580939E+01  0.71009588685E+02  0.69838919123E+02 0.  0.
          6    2    1    2  501    0 -0.99597235269E+00 -0.15103859377E+03 -0.84213537261E+02  0.24457682502E+03  0.17295159643E+03 0.  0.
         24    2    5    5    0    0 -0.25141828717E+02 -0.60049775835E+02  0.14917884561E+02  0.10778824303E+03  0.84603043247E+02 0.  0.
          5    1    5    5  501    0  0.24145856364E+02 -0.90988817938E+02 -0.99131421822E+02  0.13678858199E+03  0.47000000000E+01 0. -1.
        -11    1    6    6    0    0 -0.44152476425E+02 -0.81924595953E+00  0.16995691916E+01  0.44192769474E+02  0.00000000000E+00 0.  1.
         12    1    6    6    0    0  0.19010647708E+02 -0.59230529875E+02  0.13218315369E+02  0.63595473556E+02  0.00000000000E+00 0. -1.
         -5    1    3    3    0  503 -0.10961307652E+02  0.15553239657E+03  0.49064872657E+02  0.16352347959E+03  0.47000000000E+01 0.  1.
         13    1    4    4    0    0  0.40446938837E+02 -0.16794618023E+01 -0.87794829442E+01  0.41422877423E+02  0.00000000000E+00 0. -1.
        -14    1    4    4    0    0 -0.28489658833E+02 -0.28143409993E+01  0.74694248503E+01  0.29586711261E+02  0.00000000000E+00 0.  1.
<mgrwt>
<rscale>  2 0.22962086E+03</rscale>
<asrwt>0</asrwt>
<pdfrwt beam="1">  1       21 0.34050090E-01 0.22962122E+03</pdfrwt>
<pdfrwt beam="2">  1       21 0.39659125E-01 0.22962122E+03</pdfrwt>
<totfact> 0.50065323E+04</totfact>
</mgrwt>
</event>
<event>
12    1  0.1019868E-001  0.1917448E+03  0.7546771E-02  0.1157228E+00
         21   -1    0    0  501  502  0.00000000000E+00  0.00000000000E+00  0.13999360236E+03  0.13999360236E+03  0.00000000000E+00 0.  1.
         21   -1    0    0  502  503 -0.00000000000E+00 -0.00000000000E+00 -0.41851214835E+03  0.41851214835E+03  0.00000000000E+00 0.  1.
         -6    2    1    2    0  503 -0.80079554378E+02 -0.10004832522E+02 -0.31045528654E+03  0.36411951389E+03  0.17230120067E+03 0.  0.
        -24    2    3    3    0    0 -0.69381038293E+02  0.57089285609E+02 -0.20936419707E+03  0.24222785173E+03  0.82268159894E+02 0.  0.
          6    2    1    2  501    0  0.80079554378E+02  0.10004832522E+02  0.31936740548E+02  0.19438623682E+03  0.17393453356E+03 0.  0.
         24    2    5    5    0    0  0.11746504088E+03  0.30698531371E+02  0.10053389668E+02  0.14614854597E+03  0.80733457678E+02 0.  0.
          5    1    5    5  501    0 -0.37385486500E+02 -0.20693698849E+02  0.21883350880E+02  0.48237690851E+02  0.47000000000E+01 0. -1.
        -13    1    6    6    0    0  0.28986580758E+02  0.29528853086E+02  0.35018878027E+02  0.54207903916E+02  0.00000000000E+00 0.  1.
         14    1    6    6    0    0  0.88478460120E+02  0.11696782855E+01 -0.24965488359E+02  0.91940642055E+02  0.00000000000E+00 0. -1.
         -5    1    3    3    0  503 -0.10698516085E+02 -0.67094118131E+02 -0.10109108947E+03  0.12189166216E+03  0.47000000000E+01 0.  1.
         13    1    4    4    0    0  0.70144297124E+01  0.33789593721E+02 -0.29396361119E+02  0.45333044406E+02  0.00000000000E+00 0. -1.
        -14    1    4    4    0    0 -0.76395468006E+02  0.23299691887E+02 -0.17996783595E+03  0.19689480732E+03  0.00000000000E+00 0.  1.
<mgrwt>
<rscale>  2 0.19137359E+03</rscale>
<asrwt>0</asrwt>
<pdfrwt beam="1">  1       21 0.21537477E-01 0.19174476E+03</pdfrwt>
<pdfrwt beam="2">  1       21 0.64386484E-01 0.19174476E+03</pdfrwt>
<totfact> 0.44722769E+04</totfact>
</mgrwt>
</event>
<event>
12    1  0.1019868E-001  0.2276639E+03  0.7546771E-02  0.1128316E+00
         21   -1    0    0  503  502  0.00000000000E+00  0.00000000000E+00  0.28710330373E+03  0.28710330373E+03  0.00000000000E+00 0.  1.
         21   -1    0    0  501  503 -0.00000000000E+00 -0.00000000000E+00 -0.26210147997E+03  0.26210147997E+03  0.00000000000E+00 0. -1.
          6    2    1    2  501    0 -0.12142091393E+03 -0.81194515549E+02 -0.14078398668E+03  0.26757421394E+03  0.17447131961E+03 0.  0.
         24    2    3    3    0    0 -0.13835361217E+03 -0.93860110519E+02 -0.15473042493E+03  0.24181131997E+03  0.81115767400E+02 0.  0.
         -6    2    1    2    0  502  0.12142091393E+03  0.81194515549E+02  0.16578581044E+03  0.28163056976E+03  0.17462890707E+03 0.  0.
        -24    2    5    5    0    0  0.83428993921E+02 -0.19253551070E+02  0.10475733615E+03  0.15801922421E+03  0.81638713170E+02 0.  0.
          5    1    3    3  501    0  0.16932698239E+02  0.12665594970E+02  0.13946438255E+02  0.25762893968E+02  0.47000000000E+01 0. -1.
        -11    1    4    4    0    0 -0.17632754131E+02 -0.53982515950E+02 -0.32416090150E+02  0.65389822963E+02  0.00000000000E+00 0.  1.
         12    1    4    4    0    0 -0.12072085804E+03 -0.39877594569E+02 -0.12231433478E+03  0.17642149701E+03  0.00000000000E+00 0. -1.
         -5    1    5    5    0  502  0.37991920011E+02  0.10044806662E+03  0.61028474291E+02  0.12361134555E+03  0.47000000000E+01 0.  1.
         13    1    6    6    0    0  0.80179590780E+02 -0.98136207282E+01  0.35821688159E+02  0.88364400479E+02  0.00000000000E+00 0. -1.
        -14    1    6    6    0    0  0.32494031413E+01 -0.94399303418E+01  0.68935647987E+02  0.69654823731E+02  0.00000000000E+00 0.  1.
<mgrwt>
<rscale>  2 0.22763366E+03</rscale>
<asrwt>0</asrwt>
<pdfrwt beam="1">  1       21 0.44169739E-01 0.22766388E+03</pdfrwt>
<pdfrwt beam="2">  1       21 0.40323304E-01 0.22766388E+03</pdfrwt>
<totfact> 0.28639018E+04</totfact>
</mgrwt>
</event>
<event>
12    1  0.1019868E-001  0.1826862E+03  0.7546771E-02  0.1165412E+00
         21   -1    0    0  503  502  0.00000000000E+00  0.00000000000E+00  0.13340248520E+03  0.13340248520E+03  0.00000000000E+00 0. -1.
         21   -1    0    0  501  503 -0.00000000000E+00 -0.00000000000E+00 -0.24931603942E+03  0.24931603942E+03  0.00000000000E+00 0. -1.
          6    2    1    2  501    0  0.53750929224E+02 -0.21477354301E+02 -0.63434052208E+02  0.19338594592E+03  0.17327378901E+03 0.  0.
         24    2    3    3    0    0  0.20036599845E+02  0.45416750054E+02 -0.71165007997E+02  0.11793175531E+03  0.79870482831E+02 0.  0.
         -6    2    1    2    0  502 -0.53750929224E+02  0.21477354301E+02 -0.52479502011E+02  0.18933257870E+03  0.17245952593E+03 0.  0.
        -24    2    5    5    0    0 -0.80608794475E+02 -0.30972690963E+02 -0.48623817458E+02  0.13009316211E+03  0.84278525570E+02 0.  0.
          5    1    3    3  501    0  0.33714329379E+02 -0.66894104356E+02  0.77309557890E+01  0.75454190609E+02  0.47000000000E+01 0. -1.
        -11    1    4    4    0    0 -0.18602331757E+02 -0.13882089407E+02 -0.15906019955E+02  0.28138241308E+02  0.00000000000E+00 0.  1.
         12    1    4    4    0    0  0.38638931602E+02  0.59298839461E+02 -0.55258988042E+02  0.89793513999E+02  0.00000000000E+00 0. -1.
         -5    1    5    5    0  502  0.26857865251E+02  0.52450045264E+02 -0.38556845529E+01  0.59239416586E+02  0.47000000000E+01 0.  1.
         13    1    6    6    0    0 -0.78481016241E+02  0.41967083437E+01 -0.52696969956E+02  0.94624800732E+02  0.00000000000E+00 0. -1.
        -14    1    6    6    0    0 -0.21277782345E+01 -0.35169399306E+02  0.40731524982E+01  0.35468361381E+02  0.00000000000E+00 0.  1.
<mgrwt>
<rscale>  2 0.18249285E+03</rscale>
<asrwt>0</asrwt>
<pdfrwt beam="1">  1       21 0.20523459E-01 0.18268619E+03</pdfrwt>
<pdfrwt beam="2">  1       21 0.38356314E-01 0.18268619E+03</pdfrwt>
<totfact> 0.14463401E+05</totfact>
</mgrwt>
</event>
<event>
12    1  0.1019868E-001  0.2024625E+03  0.7546771E-02  0.1147945E+00
         21   -1    0    0  501  502  0.00000000000E+00  0.00000000000E+00  0.12399043711E+03  0.12399043711E+03  0.00000000000E+00 0.  1.
         21   -1    0    0  502  503 -0.00000000000E+00 -0.00000000000E+00 -0.33676088760E+03  0.33676088760E+03  0.00000000000E+00 0.  1.
         -6    2    1    2    0  503 -0.10284373056E+03 -0.13472440838E+02 -0.14212426455E+03  0.24631727189E+03  0.17237909467E+03 0.  0.
        -24    2    3    3    0    0 -0.11532507410E+02 -0.46810328775E+02 -0.10673123828E+03  0.14276095603E+03  0.81639008661E+02 0.  0.
          6    2    1    2  501    0  0.10284373056E+03  0.13472440838E+02 -0.70646185929E+02  0.21443405281E+03  0.17387564476E+03 0.  0.
         24    2    5    5    0    0  0.64241266291E+02 -0.16713835021E+02  0.25266961545E+02  0.10662503948E+03  0.79524757920E+02 0.  0.
          5    1    5    5  501    0  0.38602464270E+02  0.30186275859E+02 -0.95913147474E+02  0.10780901334E+03  0.47000000000E+01 0. -1.
        -11    1    6    6    0    0  0.44026507481E+02  0.26176262165E+02 -0.32008267254E+01  0.51320321059E+02  0.00000000000E+00 0.  1.
         12    1    6    6    0    0  0.20214758810E+02 -0.42890097186E+02  0.28467788270E+02  0.55304718419E+02  0.00000000000E+00 0. -1.
         -5    1    3    3    0  503 -0.91311223151E+02  0.33337887937E+02 -0.35393026271E+02  0.10355631586E+03  0.47000000000E+01 0.  1.
         13    1    4    4    0    0  0.12197104610E+02  0.46184216948E+01  0.76529995662E+01  0.15121758567E+02  0.00000000000E+00 0. -1.
        -14    1    4    4    0    0 -0.23729612020E+02 -0.51428750470E+02 -0.11438423785E+03  0.12763919747E+03  0.00000000000E+00 0.  1.
<mgrwt>
<rscale>  2 0.20214083E+03</rscale>
<asrwt>0</asrwt>
<pdfrwt beam="1">  1       21 0.19075452E-01 0.20246254E+03</pdfrwt>
<pdfrwt beam="2">  1       21 0.51809367E-01 0.20246254E+03</pdfrwt>
<totfact> 0.88820020E+04</totfact>
</mgrwt>
</event>
<event>
12    1  0.1019868E-001  0.2668923E+03  0.7546771E-02  0.1103401E+00
         21   -1    0    0  503  502  0.00000000000E+00  0.00000000000E+00  0.80706490801E+02  0.80706490801E+02  0.00000000000E+00 0. -1.
         21   -1    0    0  501  503 -0.00000000000E+00 -0.00000000000E+00 -0.92828009522E+03  0.92828009522E+03  0.00000000000E+00 0. -1.
          6    2    1    2  501    0  0.21211695094E+02 -0.19921253429E+03 -0.54279451324E+03  0.60386711233E+03  0.17289891822E+03 0.  0.
         24    2    3    3    0    0  0.30490762384E+02 -0.20586908271E+03 -0.54616239021E+03  0.59106698257E+03  0.88062793533E+02 0.  0.
         -6    2    1    2    0  502 -0.21211695094E+02  0.19921253429E+03 -0.30477909118E+03  0.40511947369E+03  0.17634036328E+03 0.  0.
        -24    2    5    5    0    0  0.49368056044E+00  0.11867758349E+03 -0.28534674421E+03  0.31934822128E+03  0.80473035605E+02 0.  0.
          5    1    3    3  501    0 -0.92790672901E+01  0.66565484203E+01  0.33678769616E+01  0.12800129760E+02  0.47000000000E+01 0. -1.
        -11    1    4    4    0    0  0.34618011833E+02 -0.19909803074E+02 -0.10081672313E+03  0.10843808678E+03  0.00000000000E+00 0.  1.
         12    1    4    4    0    0 -0.41272494489E+01 -0.18595927963E+03 -0.44534566708E+03  0.48262889579E+03  0.00000000000E+00 0. -1.
         -5    1    5    5    0  502 -0.21705375654E+02  0.80534950797E+02 -0.19432346970E+02  0.85771252415E+02  0.47000000000E+01 0.  1.
         13    1    6    6    0    0 -0.28018222803E+02  0.29507139480E+02 -0.41372870275E+02  0.58029358812E+02  0.00000000000E+00 0. -1.
        -14    1    6    6    0    0  0.28511903363E+02  0.89170444010E+02 -0.24397387394E+03  0.26131886247E+03  0.00000000000E+00 0.  1.
<mgrwt>
<rscale>  2 0.26632518E+03</rscale>
<asrwt>0</asrwt>
<pdfrwt beam="1">  1       21 0.12416384E-01 0.26689229E+03</pdfrwt>
<pdfrwt beam="2">  1       21 0.14281232E+00 0.26689229E+03</pdfrwt>
<totfact> 0.17954014E+04</totfact>
</mgrwt>
</event>
<event>
12    1  0.1019868E-001  0.1946912E+03  0.7546771E-02  0.1154380E+00
         21   -1    0    0  501  502  0.00000000000E+00  0.00000000000E+00  0.43983692814E+02  0.43983692814E+02  0.00000000000E+00 0. -1.
         21   -1    0    0  502  503 -0.00000000000E+00 -0.00000000000E+00 -0.11081583177E+04  0.11081583177E+04  0.00000000000E+00 0. -1.
         -6    2    1    2    0  503 -0.88377389882E+02 -0.10863205493E+02 -0.80504656263E+03  0.82825396046E+03  0.17313602378E+03 0.  0.
        -24    2    3    3    0    0 -0.11682350572E+03 -0.32223454709E+02 -0.73917924055E+03  0.75324705497E+03  0.79429803190E+02 0.  0.
          6    2    1    2  501    0  0.88377389882E+02  0.10863205493E+02 -0.25912806225E+03  0.32388805005E+03  0.17270652578E+03 0.  0.
         24    2    5    5    0    0 -0.17399976048E+02  0.14461771038E+02 -0.15088238011E+03  0.17242512218E+03  0.80330742209E+02 0.  0.
          5    1    5    5  501    0  0.10577736593E+03 -0.35985655444E+01 -0.10824568214E+03  0.15146292787E+03  0.47000000000E+01 0. -1.
        -13    1    6    6    0    0 -0.63368949049E+01 -0.33094735279E+02 -0.49269070181E+02  0.59689689366E+02  0.00000000000E+00 0.  1.
         14    1    6    6    0    0 -0.11063081143E+02  0.47556506316E+02 -0.10161330993E+03  0.11273543281E+03  0.00000000000E+00 0. -1.
         -5    1    3    3    0  503  0.28446115838E+02  0.21360249216E+02 -0.65867322078E+02  0.75006905486E+02  0.47000000000E+01 0.  1.
         13    1    4    4    0    0 -0.47948905286E+02 -0.13942861418E+02 -0.11991741379E+03  0.12989875685E+03  0.00000000000E+00 0. -1.
        -14    1    4    4    0    0 -0.68874600434E+02 -0.18280593292E+02 -0.61926182677E+03  0.62334829812E+03  0.00000000000E+00 0.  1.
<mgrwt>
<rscale>  2 0.19459565E+03</rscale>
<asrwt>0</asrwt>
<pdfrwt beam="1">  1       21 0.67667221E-02 0.19469118E+03</pdfrwt>
<pdfrwt beam="2">  1       21 0.17048589E+00 0.19469118E+03</pdfrwt>
<totfact> 0.33909408E+04</totfact>
</mgrwt>
</event>
<event>
12    1  0.1019868E-001  0.1988373E+03  0.7546771E-02  0.1151115E+00
         21   -1    0    0  503  502  0.00000000000E+00  0.00000000000E+00  0.18044370564E+03  0.18044370564E+03  0.00000000000E+00 0.  1.
         21   -1    0    0  501  503 -0.00000000000E+00 -0.00000000000E+00 -0.21766075192E+03  0.21766075192E+03  0.00000000000E+00 0. -1.
          6    2    1    2  501    0  0.90248632534E+02 -0.33092415731E+02 -0.85211224676E+01  0.19901979729E+03  0.17405845722E+03 0.  0.
         24    2    3    3    0    0  0.33173113877E+02 -0.62949834698E+02  0.51909120242E+02  0.11057216006E+03  0.66846904509E+02 0.  0.
         -6    2    1    2    0  502 -0.90248632534E+02  0.33092415731E+02 -0.28695923812E+02  0.19908466027E+03  0.17196314215E+03 0.  0.
        -24    2    5    5    0    0 -0.10822408779E+03 -0.23637957332E+02 -0.27034389615E+02  0.13936612952E+03  0.80130229195E+02 0.  0.
          5    1    3    3  501    0  0.57075518657E+02  0.29857418967E+02 -0.60430242710E+02  0.88447637228E+02  0.47000000000E+01 0. -1.
        -11    1    4    4    0    0 -0.79675455880E+01 -0.48178857970E+02  0.44830600208E+02  0.66290775022E+02  0.00000000000E+00 0.  1.
         12    1    4    4    0    0  0.41140659465E+02 -0.14770976728E+02  0.70785200342E+01  0.44281385035E+02  0.00000000000E+00 0. -1.
         -5    1    5    5    0  502  0.17975455256E+02  0.56730373063E+02 -0.16615341970E+01  0.59718530754E+02  0.47000000000E+01 0.  1.
         13    1    6    6    0    0 -0.44103315555E+02  0.33430831727E+00  0.27385557225E+02  0.51915151445E+02  0.00000000000E+00 0. -1.
        -14    1    6    6    0    0 -0.64120772234E+02 -0.23972265649E+02 -0.54419946840E+02  0.87450978075E+02  0.00000000000E+00 0.  1.
<mgrwt>
<rscale>  2 0.19837781E+03</rscale>
<asrwt>0</asrwt>
<pdfrwt beam="1">  1       21 0.27760570E-01 0.19883730E+03</pdfrwt>
<pdfrwt beam="2">  1       21 0.33486269E-01 0.19883730E+03</pdfrwt>
<totfact> 0.10613910E+05</totfact>
</mgrwt>
</event>
<event>
12    1  0.1019868E-001  0.2198489E+03  0.7546771E-02  0.1134264E+00
         21   -1    0    0  503  502  0.00000000000E+00  0.00000000000E+00  0.10842069194E+03  0.10842069194E+03  0.00000000000E+00 0.  1.
         21   -1    0    0  501  503 -0.00000000000E+00 -0.00000000000E+00 -0.56046019373E+03  0.56046019373E+03  0.00000000000E+00 0. -1.
          6    2    1    2  501    0  0.16911144342E+02  0.13185624425E+03 -0.37977470720E+03  0.43881926650E+03  0.17510415320E+03 0.  0.
         24    2    3    3    0    0 -0.43687489097E+02  0.25519541233E+02 -0.12800777118E+03  0.15884003716E+03  0.79273729795E+02 0.  0.
         -6    2    1    2    0  502 -0.16911144342E+02 -0.13185624425E+03 -0.72264794582E+02  0.23006161917E+03  0.17330346831E+03 0.  0.
        -24    2    5    5    0    0  0.28275368861E+02 -0.85486596318E+02 -0.10228071132E+03  0.15854231770E+03  0.81036213867E+02 0.  0.
          5    1    3    3  501    0  0.60598633439E+02  0.10633670302E+03 -0.25176693603E+03  0.27997922934E+03  0.47000000000E+01 0. -1.
        -13    1    4    4    0    0 -0.35318765664E+02 -0.14229280108E+02 -0.19091113988E+02  0.42595284407E+02  0.00000000000E+00 0.  1.
         14    1    4    4    0    0 -0.83687234332E+01  0.39748821341E+02 -0.10891665719E+03  0.11624475276E+03  0.00000000000E+00 0. -1.
         -5    1    5    5    0  502 -0.45186513203E+02 -0.46369647931E+02  0.30015916742E+02  0.71519301469E+02  0.47000000000E+01 0.  1.
         11    1    6    6    0    0 -0.27124397836E+02 -0.44152906502E+02 -0.48336231802E+02  0.70863272683E+02  0.00000000000E+00 0. -1.
        -12    1    6    6    0    0  0.55399766697E+02 -0.41333689816E+02 -0.53944479523E+02  0.87679045016E+02  0.00000000000E+00 0.  1.
<mgrwt>
<rscale>  2 0.21949011E+03</rscale>
<asrwt>0</asrwt>
<pdfrwt beam="1">  1       21 0.16680106E-01 0.21984886E+03</pdfrwt>
<pdfrwt beam="2">  1       21 0.86224646E-01 0.21984886E+03</pdfrwt>
<totfact> 0.36932911E+04</totfact>
</mgrwt>
</event>
<event>
12    1  0.1019868E-001  0.2040487E+03  0.7546771E-02  0.1146573E+00
         21   -1    0    0  501  502  0.00000000000E+00  0.00000000000E+00  0.13696978726E+03  0.13696978726E+03  0.00000000000E+00 0.  1.
         21   -1    0    0  502  503 -0.00000000000E+00 -0.00000000000E+00 -0.43008227654E+03  0.43008227654E+03  0.00000000000E+00 0.  1.
         -6    2    1    2    0  503 -0.45128208371E+02  0.96627449694E+02 -0.30123374401E+03  0.36383736913E+03  0.17396103994E+03 0.  0.
        -24    2    3    3    0    0 -0.42877757234E+02 -0.15642411885E+02 -0.12879577607E+03  0.15800605679E+03  0.79337096837E+02 0.  0.
          6    2    1    2  501    0  0.45128208371E+02 -0.96627449694E+02  0.81212547280E+01  0.20321469468E+03  0.17279131381E+03 0.  0.
         24    2    5    5    0    0 -0.21339911196E+02 -0.48237788586E+02  0.50662406326E+02  0.11052483655E+03  0.82866060731E+02 0.  0.
          5    1    5    5  501    0  0.66468119567E+02 -0.48389661108E+02 -0.42541151598E+02  0.92689858131E+02  0.47000000000E+01 0. -1.
        -13    1    6    6    0    0 -0.46279140383E+02 -0.26575074365E+02  0.42210370972E+01  0.53533265978E+02  0.00000000000E+00 0.  1.
         14    1    6    6    0    0  0.24939229187E+02 -0.21662714221E+02  0.46441369229E+02  0.56991570567E+02  0.00000000000E+00 0. -1.
         -5    1    3    3    0  503 -0.22504511374E+01  0.11226986158E+03 -0.17243796795E+03  0.20583131234E+03  0.47000000000E+01 0.  1.
         13    1    4    4    0    0 -0.12687121292E+02 -0.20929396754E+02 -0.12470525238E+03  0.12708423453E+03  0.00000000000E+00 0. -1.
        -14    1    4    4    0    0 -0.30190635942E+02  0.52869848685E+01 -0.40905236835E+01  0.30921822256E+02  0.00000000000E+00 0.  1.
<mgrwt>
<rscale>  2 0.20379914E+03</rscale>
<asrwt>0</asrwt>
<pdfrwt beam="1">  1       21 0.21072275E-01 0.20404868E+03</pdfrwt>
<pdfrwt beam="2">  1       21 0.66166504E-01 0.20404868E+03</pdfrwt>
<totfact> 0.43633456E+04</totfact>
</mgrwt>
</event>
<event>
12    1  0.1019868E-001  0.2067915E+03  0.7546771E-02  0.1144203E+00
         21   -1    0    0  501  502  0.00000000000E+00  0.00000000000E+00  0.32805708340E+03  0.32805708340E+03  0.00000000000E+00 0. -1.
         21   -1    0    0  502  503 -0.00000000000E+00 -0.00000000000E+00 -0.14688283122E+03  0.14688283122E+03  0.00000000000E+00 0. -1.
         -6    2    1    2    0  503  0.86959035237E+02  0.72056836972E+02  0.10456078785E+02  0.20705569540E+03  0.17323010665E+03 0.  0.
        -24    2    3    3    0    0  0.11942881342E+03  0.33531694275E+02 -0.19167905061E+02  0.14842001058E+03  0.79205271051E+02 0.  0.
          6    2    1    2  501    0 -0.86959035237E+02 -0.72056836972E+02  0.17071817339E+03  0.26788421922E+03  0.17280971795E+03 0.  0.
         24    2    5    5    0    0  0.28262605139E+00  0.11041730892E+02  0.10052215673E+03  0.12836343152E+03  0.79059894125E+02 0.  0.
          5    1    5    5  501    0 -0.87241661288E+02 -0.83098567864E+02  0.70196016664E+02  0.13952078770E+03  0.47000000000E+01 0. -1.
        -13    1    6    6    0    0 -0.11070551293E+01  0.45340759300E+02  0.61037788210E+02  0.76043550776E+02  0.00000000000E+00 0.  1.
         14    1    6    6    0    0  0.13896811807E+01 -0.34299028408E+02  0.39484368515E+02  0.52319880739E+02  0.00000000000E+00 0. -1.
         -5    1    3    3    0  503 -0.32469778181E+02  0.38525142698E+02  0.29623983846E+02  0.58635684816E+02  0.47000000000E+01 0.  1.
         11    1    4    4    0    0  0.83477565167E+02  0.15816298035E+02  0.25208727151E+02  0.88623580915E+02  0.00000000000E+00 0. -1.
        -12    1    4    4    0    0  0.35951248251E+02  0.17715396240E+02 -0.44376632212E+02  0.59796429669E+02  0.00000000000E+00 0.  1.
<mgrwt>
<rscale>  2 0.20670345E+03</rscale>
<asrwt>0</asrwt>
<pdfrwt beam="1">  1       21 0.50470321E-01 0.20679152E+03</pdfrwt>
<pdfrwt beam="2">  1       21 0.22597359E-01 0.20679152E+03</pdfrwt>
<totfact> 0.68139038E+04</totfact>
</mgrwt>
</event>
<event>
12    1  0.1019868E-001  0.1995446E+03  0.7546771E-02  0.1150152E+00
         21   -1    0    0  503  502  0.00000000000E+00  0.00000000000E+00  0.35873662017E+02  0.35873662017E+02  0.00000000000E+00 0. -1.
         21   -1    0    0  501  503 -0.00000000000E+00 -0.00000000000E+00 -0.11197147699E+04  0.11197147699E+04  0.00000000000E+00 0. -1.
          6    2    1    2  501    0  0.16982457916E+02  0.97858653703E+02 -0.48578534797E+03  0.52512134603E+03  0.17291704304E+03 0.  0.
         24    2    3    3    0    0 -0.27791798819E+02  0.17462731664E+02 -0.35620609153E+03  0.36612099369E+03  0.78003021067E+02 0.  0.
         -6    2    1    2    0  502 -0.16982457916E+02 -0.97858653703E+02 -0.59805575987E+03  0.63046708584E+03  0.17307031645E+03 0.  0.
        -24    2    5    5    0    0 -0.73078908004E+01 -0.13573931633E+03 -0.44388492597E+03  0.47134676069E+03  0.81580475903E+02 0.  0.
          5    1    3    3  501    0  0.44774256736E+02  0.80395922039E+02 -0.12957925644E+03  0.15900035235E+03  0.47000000000E+01 0. -1.
        -11    1    4    4    0    0  0.49973584850E+01 -0.26425297537E+02 -0.76218616289E+02  0.80824175905E+02  0.00000000000E+00 0.  1.
         12    1    4    4    0    0 -0.32789157304E+02  0.43888029201E+02 -0.27998747524E+03  0.28529681778E+03  0.00000000000E+00 0. -1.
         -5    1    5    5    0  502 -0.96745671161E+01  0.37880662624E+02 -0.15417083390E+03  0.15912032515E+03  0.47000000000E+01 0.  1.
         13    1    6    6    0    0  0.41720277011E+01 -0.32818525032E+02 -0.29855494889E+02  0.44562450286E+02  0.00000000000E+00 0. -1.
        -14    1    6    6    0    0 -0.11479918501E+02 -0.10292079130E+03 -0.41402943108E+03  0.42678431040E+03  0.00000000000E+00 0.  1.
<mgrwt>
<rscale>  2 0.19951138E+03</rscale>
<asrwt>0</asrwt>
<pdfrwt beam="1">  1       21 0.55190244E-02 0.19954462E+03</pdfrwt>
<pdfrwt beam="2">  1       21 0.17226383E+00 0.19954462E+03</pdfrwt>
<totfact> 0.46591536E+04</totfact>
</mgrwt>
</event>
<event>
12    1  0.1019868E-001  0.2904293E+03  0.7546771E-02  0.1090225E+00
         21   -1    0    0  503  502  0.00000000000E+00  0.00000000000E+00  0.50478854489E+03  0.50478854489E+03  0.00000000000E+00 0.  1.
         21   -1    0    0  501  503 -0.00000000000E+00 -0.00000000000E+00 -0.18195530646E+03  0.18195530646E+03  0.00000000000E+00 0.  1.
          6    2    1    2  501    0  0.12416659233E+03  0.19703316262E+03  0.61659564852E+02  0.29615343771E+03  0.17223689183E+03 0.  0.
         24    2    3    3    0    0  0.10946658426E+03  0.13664145658E+03 -0.19933830176E+02  0.19347519996E+03  0.79884132880E+02 0.  0.
         -6    2    1    2    0  502 -0.12416659233E+03 -0.19703316262E+03  0.26117367358E+03  0.39059041365E+03  0.17352168061E+03 0.  0.
        -24    2    5    5    0    0 -0.47431150173E+02 -0.31566921832E+02  0.13881114075E+03  0.17090408188E+03  0.81813738750E+02 0.  0.
          5    1    3    3  501    0  0.14700008062E+02  0.60391706036E+02  0.81593395028E+02  0.10267823775E+03  0.47000000000E+01 0. -1.
        -13    1    4    4    0    0  0.21681614190E+02  0.90651277619E+02 -0.13283287827E+02  0.94149839423E+02  0.00000000000E+00 0.  1.
         14    1    4    4    0    0  0.87784970074E+02  0.45990178965E+02 -0.66505423495E+01  0.99325360536E+02  0.00000000000E+00 0. -1.
         -5    1    5    5    0  502 -0.76735442153E+02 -0.16546624079E+03  0.12236253283E+03  0.21968633176E+03  0.47000000000E+01 0.  1.
         13    1    6    6    0    0  0.21564515239E+02 -0.62474354870E+00  0.16724221906E+02  0.27296853671E+02  0.00000000000E+00 0. -1.
        -14    1    6    6    0    0 -0.68995665412E+02 -0.30942178283E+02  0.12208691884E+03  0.14360722821E+03  0.00000000000E+00 0.  1.
<mgrwt>
<rscale>  2 0.29023767E+03</rscale>
<asrwt>0</asrwt>
<pdfrwt beam="1">  1       21 0.77659776E-01 0.29042931E+03</pdfrwt>
<pdfrwt beam="2">  1       21 0.27993124E-01 0.29042931E+03</pdfrwt>
<totfact> 0.17029647E+04</totfact>
</mgrwt>
</event>
<event>
12    1  0.1019868E-001  0.1822790E+03  0.7546771E-02  0.1166867E+00
         21   -1    0    0  503  502  0.00000000000E+00  0.00000000000E+00  0.28066079006E+02  0.28066079006E+02  0.00000000000E+00 0.  1.
         21   -1    0    0  501  503 -0.00000000000E+00 -0.00000000000E+00 -0.12956208146E+04  0.12956208146E+04  0.00000000000E+00 0.  1.
          6    2    1    2  501    0  0.22059290640E+01  0.54644088091E+02 -0.40415179409E+03  0.44125260644E+03  0.16844686860E+03 0.  0.
         24    2    3    3    0    0 -0.62292512428E+02  0.35949589012E+02 -0.21908462620E+03  0.24432246685E+03  0.80763013276E+02 0.  0.
         -6    2    1    2    0  502 -0.22059290640E+01 -0.54644088091E+02 -0.86340294152E+03  0.88243428718E+03  0.17388153806E+03 0.  0.
        -24    2    5    5    0    0  0.33289547177E+02  0.28627269754E+02 -0.48912477884E+03  0.49733653214E+03  0.78567565887E+02 0.  0.
          5    1    3    3  501    0  0.64498441492E+02  0.18694499079E+02 -0.18506716789E+03  0.19693013960E+03  0.47000000000E+01 0. -1.
        -11    1    4    4    0    0  0.14450522890E+02  0.22135646391E+02 -0.31160856005E+02  0.40863227967E+02  0.00000000000E+00 0.  1.
         12    1    4    4    0    0 -0.76743035319E+02  0.13813942621E+02 -0.18792377019E+03  0.20345923888E+03  0.00000000000E+00 0. -1.
         -5    1    5    5    0  502 -0.35495476241E+02 -0.83271357845E+02 -0.37427816269E+03  0.38509775504E+03  0.47000000000E+01 0.  1.
         13    1    6    6    0    0  0.29620867404E+02 -0.15920913816E+02 -0.33993918087E+03  0.34159847479E+03  0.00000000000E+00 0. -1.
        -14    1    6    6    0    0  0.36686797728E+01  0.44548183570E+02 -0.14918559796E+03  0.15573805736E+03  0.00000000000E+00 0.  1.
<mgrwt>
<rscale>  2 0.18097078E+03</rscale>
<asrwt>0</asrwt>
<pdfrwt beam="1">  1       21 0.43178595E-02 0.18227899E+03</pdfrwt>
<pdfrwt beam="2">  1       21 0.19932623E+00 0.18227899E+03</pdfrwt>
<totfact> 0.47058155E+04</totfact>
</mgrwt>
</event>
<event>
12    1  0.1019868E-001  0.2479367E+03  0.7546771E-02  0.1116265E+00
         21   -1    0    0  503  502  0.00000000000E+00  0.00000000000E+00  0.22872684787E+03  0.22872684787E+03  0.00000000000E+00 0. -1.
         21   -1    0    0  501  503 -0.00000000000E+00 -0.00000000000E+00 -0.79043456626E+03  0.79043456626E+03  0.00000000000E+00 0.  1.
          6    2    1    2  501    0  0.17202628267E+03 -0.42158212492E+02 -0.70098717105E+03  0.74354262147E+03  0.17350002637E+03 0.  0.
         24    2    3    3    0    0  0.10814195924E+03  0.39925766368E+02 -0.34374887557E+03  0.37144011391E+03  0.80720001264E+02 0.  0.
         -6    2    1    2    0  502 -0.17202628267E+03  0.42158212492E+02  0.13927945267E+03  0.27561879266E+03  0.15873435709E+03 0.  0.
        -24    2    5    5    0    0 -0.71831904273E+02 -0.18588558402E+02  0.10880639584E+03  0.15445864728E+03  0.80704925303E+02 0.  0.
          5    1    3    3  501    0  0.63884323438E+02 -0.82083978859E+02 -0.35723829549E+03  0.37210250756E+03  0.47000000000E+01 0. -1.
        -11    1    4    4    0    0  0.21006547832E+02  0.31287621880E+02 -0.19684406451E+03  0.20041900126E+03  0.00000000000E+00 0.  1.
         12    1    4    4    0    0  0.87135411404E+02  0.86381444881E+01 -0.14690481106E+03  0.17102111265E+03  0.00000000000E+00 0. -1.
         -5    1    5    5    0  502 -0.10019437840E+03  0.60746770893E+02  0.30473056827E+02  0.12116014538E+03  0.47000000000E+01 0.  1.
         11    1    6    6    0    0 -0.72180841001E+02  0.15654591520E+02  0.85760026239E+02  0.11318092659E+03  0.00000000000E+00 0. -1.
        -12    1    6    6    0    0  0.34893672754E+00 -0.34243149921E+02  0.23046369600E+02  0.41277720687E+02  0.00000000000E+00 0.  1.
<mgrwt>
<rscale>  2 0.24537255E+03</rscale>
<asrwt>0</asrwt>
<pdfrwt beam="1">  1       21 0.35188746E-01 0.24793672E+03</pdfrwt>
<pdfrwt beam="2">  1       21 0.12160532E+00 0.24793672E+03</pdfrwt>
<totfact> 0.38141834E+03</totfact>
</mgrwt>
</event>
<event>
12    1  0.1019868E-001  0.1809099E+03  0.7546771E-02  0.1166964E+00
         21   -1    0    0  503  502  0.00000000000E+00  0.00000000000E+00  0.38352722851E+02  0.38352722851E+02  0.00000000000E+00 0.  1.
         21   -1    0    0  501  503 -0.00000000000E+00 -0.00000000000E+00 -0.17804050583E+04  0.17804050583E+04  0.00000000000E+00 0.  1.
          6    2    1    2  501    0 -0.45314042815E+02  0.26634034000E+02 -0.15276765531E+04  0.15383510741E+04  0.17310586941E+03 0.  0.
         24    2    3    3    0    0  0.53591109145E+01 -0.45837418325E+02 -0.80642310754E+03  0.81168161509E+03  0.79868810658E+02 0.  0.
         -6    2    1    2    0  502  0.45314042815E+02 -0.26634034000E+02 -0.21437578236E+03  0.28040670707E+03  0.17293990593E+03 0.  0.
        -24    2    5    5    0    0  0.69670051093E+02 -0.60831142820E+02 -0.20061024647E+03  0.23597431607E+03  0.82976279155E+02 0.  0.
          5    1    3    3  501    0 -0.50673153729E+02  0.72471452324E+02 -0.72125344552E+03  0.72666945896E+03  0.47000000000E+01 0. -1.
        -11    1    4    4    0    0  0.24196320134E+02  0.14085739240E+02 -0.18743429250E+03  0.18951380942E+03  0.00000000000E+00 0.  1.
         12    1    4    4    0    0 -0.18837209219E+02 -0.59923157565E+02 -0.61898881504E+03  0.62216780567E+03  0.00000000000E+00 0. -1.
         -5    1    5    5    0  502 -0.24356008279E+02  0.34197108820E+02 -0.13765535887E+02  0.44432390991E+02  0.47000000000E+01 0.  1.
         11    1    6    6    0    0  0.35208311575E+02 -0.18170614273E+01 -0.14083737688E+03  0.14518296609E+03  0.00000000000E+00 0. -1.
        -12    1    6    6    0    0  0.34461739518E+02 -0.59014081393E+02 -0.59772869591E+02  0.90791349986E+02  0.00000000000E+00 0.  1.
<mgrwt>
<rscale>  2 0.18087014E+03</rscale>
<asrwt>0</asrwt>
<pdfrwt beam="1">  1       21 0.59004184E-02 0.18090986E+03</pdfrwt>
<pdfrwt beam="2">  1       21 0.27390849E+00 0.18090986E+03</pdfrwt>
<totfact> 0.99117412E+03</totfact>
</mgrwt>
</event>
<event>
12    1  0.1019868E-001  0.2110742E+03  0.7546771E-02  0.1141439E+00
         21   -1    0    0  501  502  0.00000000000E+00  0.00000000000E+00  0.87217788199E+02  0.87217788199E+02  0.00000000000E+00 0.  1.
         21   -1    0    0  502  503 -0.00000000000E+00 -0.00000000000E+00 -0.51976381241E+03  0.51976381241E+03  0.00000000000E+00 0.  1.
         -6    2    1    2    0  503 -0.10863914295E+03 -0.42641686769E+02 -0.27045631829E+03  0.34085122735E+03  0.17149974418E+03 0.  0.
        -24    2    3    3    0    0 -0.43184821690E+01  0.47147456775E+01 -0.71791161210E+02  0.11147083020E+03  0.85034681409E+02 0.  0.
          6    2    1    2  501    0  0.10863914295E+03  0.42641686769E+02 -0.16208970592E+03  0.26613037325E+03  0.17587360795E+03 0.  0.
         24    2    5    5    0    0  0.64613440447E+02 -0.23145198211E+02 -0.15401684004E+03  0.18642191774E+03  0.79506902294E+02 0.  0.
          5    1    5    5  501    0  0.44025702505E+02  0.65786884979E+02 -0.80728658758E+01  0.79708455510E+02  0.47000000000E+01 0. -1.
        -13    1    6    6    0    0  0.54600332678E+02  0.12604551091E+02 -0.13164907293E+03  0.14307882247E+03  0.00000000000E+00 0.  1.
         14    1    6    6    0    0  0.10013107769E+02 -0.35749749302E+02 -0.22367767117E+02  0.43343095276E+02  0.00000000000E+00 0. -1.
         -5    1    3    3    0  503 -0.10432066078E+03 -0.47356432446E+02 -0.19866515708E+03  0.22938039716E+03  0.47000000000E+01 0.  1.
         11    1    4    4    0    0 -0.39750519292E+02 -0.15748955443E+01 -0.62864192334E+02  0.74394158089E+02  0.00000000000E+00 0. -1.
        -12    1    4    4    0    0  0.35432037123E+02  0.62896412218E+01 -0.89269688759E+01  0.37076672110E+02  0.00000000000E+00 0.  1.
<mgrwt>
<rscale>  2 0.21016067E+03</rscale>
<asrwt>0</asrwt>
<pdfrwt beam="1">  1       21 0.13418122E-01 0.21107416E+03</pdfrwt>
<pdfrwt beam="2">  1       21 0.79963662E-01 0.21107416E+03</pdfrwt>
<totfact> 0.65539427E+04</totfact>
</mgrwt>
</event>
<event>
12    1  0.1019868E-001  0.1943206E+03  0.7546771E-02  0.1155048E+00
         21   -1    0    0  503  502  0.00000000000E+00  0.00000000000E+00  0.13672317609E+04  0.13672317609E+04  0.00000000000E+00 0. -1.
         21   -1    0    0  501  503 -0.00000000000E+00 -0.00000000000E+00 -0.41598734218E+02  0.41598734218E+02  0.00000000000E+00 0. -1.
          6    2    1    2  501    0  0.68741018536E+02  0.53010771434E+02  0.24827242021E+03  0.31408560003E+03  0.17168313835E+03 0.  0.
         24    2    3    3    0    0 -0.13199046047E+02  0.36866605165E+02  0.19032718988E+03  0.21232830051E+03  0.85589173353E+02 0.  0.
         -6    2    1    2    0  502 -0.68741018536E+02 -0.53010771434E+02  0.10773606065E+04  0.10947448951E+04  0.17385349989E+03 0.  0.
        -24    2    5    5    0    0 -0.42626366863E+01 -0.61235507413E+01  0.84803197561E+03  0.85190835722E+03  0.80832849121E+02 0.  0.
          5    1    3    3  501    0  0.81940064583E+02  0.16144166269E+02  0.57945230325E+02  0.10175729952E+03  0.47000000000E+01 0. -1.
        -13    1    4    4    0    0 -0.32613125323E+02  0.26688851405E+02  0.33116449692E+02  0.53596734722E+02  0.00000000000E+00 0.  1.
         14    1    4    4    0    0  0.19414079276E+02  0.10177753760E+02  0.15721074019E+03  0.15873156579E+03  0.00000000000E+00 0. -1.
         -5    1    5    5    0  502 -0.64478381850E+02 -0.46887220693E+02  0.22932863085E+03  0.24283653786E+03  0.47000000000E+01 0.  1.
         13    1    6    6    0    0 -0.42161870625E+02  0.14177797290E+01  0.48183541186E+03  0.48367860978E+03  0.00000000000E+00 0. -1.
        -14    1    6    6    0    0  0.37899233939E+02 -0.75413304703E+01  0.36619656375E+03  0.36822974744E+03  0.00000000000E+00 0.  1.
<mgrwt>
<rscale>  2 0.19383398E+03</rscale>
<asrwt>0</asrwt>
<pdfrwt beam="1">  1       21 0.21034331E+00 0.19432063E+03</pdfrwt>
<pdfrwt beam="2">  1       21 0.63998063E-02 0.19432063E+03</pdfrwt>
<totfact> 0.20356997E+04</totfact>
</mgrwt>
</event>
<event>
12    1  0.1019868E-001  0.1952464E+03  0.7546771E-02  0.1153915E+00
         21   -1    0    0  501  502  0.00000000000E+00  0.00000000000E+00  0.66465728448E+03  0.66465728448E+03  0.00000000000E+00 0.  1.
         21   -1    0    0  502  503 -0.00000000000E+00 -0.00000000000E+00 -0.59790498665E+02  0.59790498665E+02  0.00000000000E+00 0.  1.
         -6    2    1    2    0  503 -0.60104476325E+02 -0.67171766599E+02  0.22763448222E+03  0.29989769615E+03  0.17319519727E+03 0.  0.
        -24    2    3    3    0    0 -0.94438441318E+01 -0.75822144497E+02  0.22164672519E+03  0.24794317829E+03  0.80686833402E+02 0.  0.
          6    2    1    2  501    0  0.60104476325E+02  0.67171766599E+02  0.37723230359E+03  0.42455008699E+03  0.17266722674E+03 0.  0.
         24    2    5    5    0    0  0.53193530368E+02  0.61707448317E+02  0.39081634344E+03  0.40769078431E+03  0.82686156406E+02 0.  0.
          5    1    5    5  501    0  0.69109459571E+01  0.54643182816E+01 -0.13584039849E+02  0.16859302682E+02  0.47000000000E+01 0. -1.
        -13    1    6    6    0    0  0.95800720022E+01  0.28682587771E+02  0.29463913139E+02  0.42220738959E+02  0.00000000000E+00 0.  1.
         14    1    6    6    0    0  0.43613458365E+02  0.33024860546E+02  0.36135243030E+03  0.36547004535E+03  0.00000000000E+00 0. -1.
         -5    1    3    3    0  503 -0.50660632193E+02  0.86503778974E+01  0.59877570342E+01  0.51954517862E+02  0.47000000000E+01 0.  1.
         13    1    4    4    0    0 -0.76884333982E+01  0.95886158692E+01  0.22414979669E+01  0.12493113124E+02  0.00000000000E+00 0. -1.
        -14    1    4    4    0    0 -0.17554107336E+01 -0.85410760366E+02  0.21940522722E+03  0.23545006516E+03  0.00000000000E+00 0.  1.
<mgrwt>
<rscale>  2 0.19512928E+03</rscale>
<asrwt>0</asrwt>
<pdfrwt beam="1">  1       21 0.10225496E+00 0.19524644E+03</pdfrwt>
<pdfrwt beam="2">  1       21 0.91985387E-02 0.19524644E+03</pdfrwt>
<totfact> 0.73098314E+04</totfact>
</mgrwt>
</event>
<event>
12    1  0.1019868E-001  0.1929393E+03  0.7546771E-02  0.1156009E+00
         21   -1    0    0  501  502  0.00000000000E+00  0.00000000000E+00  0.63657282793E+03  0.63657282793E+03  0.00000000000E+00 0.  1.
         21   -1    0    0  502  503 -0.00000000000E+00 -0.00000000000E+00 -0.69071798883E+02  0.69071798883E+02  0.00000000000E+00 0.  1.
         -6    2    1    2    0  503  0.33662713442E+02  0.75914774382E+02  0.14453278565E+03  0.24107112322E+03  0.17415317705E+03 0.  0.
        -24    2    3    3    0    0 -0.18737452679E+02 -0.17647910839E+02  0.74530297760E+02  0.11292202339E+03  0.80833638996E+02 0.  0.
          6    2    1    2  501    0 -0.33662713442E+02 -0.75914774382E+02  0.42296824340E+03  0.46457350360E+03  0.17329216391E+03 0.  0.
         24    2    5    5    0    0  0.58812681498E+01  0.23032545139E+02  0.15598620735E+03  0.17707429300E+03  0.80364923361E+02 0.  0.
          5    1    5    5  501    0 -0.39543981591E+02 -0.98947319521E+02  0.26698203605E+03  0.28749921060E+03  0.47000000000E+01 0. -1.
        -11    1    6    6    0    0 -0.31314287653E+02  0.23183674764E+02  0.11643207926E+03  0.12277824102E+03  0.00000000000E+00 0.  1.
         12    1    6    6    0    0  0.37195555803E+02 -0.15112962467E+00  0.39554128088E+02  0.54296051978E+02  0.00000000000E+00 0. -1.
         -5    1    3    3    0  503  0.52400166121E+02  0.93562685221E+02  0.70002487888E+02  0.12814909982E+03  0.47000000000E+01 0.  1.
         13    1    4    4    0    0  0.24516580353E+02 -0.30282945667E+02  0.42366365727E+02  0.57558912910E+02  0.00000000000E+00 0. -1.
        -14    1    4    4    0    0 -0.43254033032E+02  0.12635034828E+02  0.32163932032E+02  0.55363110484E+02  0.00000000000E+00 0.  1.
<mgrwt>
<rscale>  2 0.19274477E+03</rscale>
<asrwt>0</asrwt>
<pdfrwt beam="1">  1       21 0.97934277E-01 0.19293927E+03</pdfrwt>
<pdfrwt beam="2">  1       21 0.10626431E-01 0.19293927E+03</pdfrwt>
<totfact> 0.62843631E+04</totfact>
</mgrwt>
</event>
<event>
12    1  0.1019868E-001  0.2030847E+03  0.7546771E-02  0.1147292E+00
         21   -1    0    0  501  502  0.00000000000E+00  0.00000000000E+00  0.15385160115E+03  0.15385160115E+03  0.00000000000E+00 0.  1.
         21   -1    0    0  502  503 -0.00000000000E+00 -0.00000000000E+00 -0.32615857356E+03  0.32615857356E+03  0.00000000000E+00 0.  1.
         -6    2    1    2    0  503 -0.96317096536E+02 -0.45398955132E+02 -0.18804786499E+03  0.27631636525E+03  0.17219374543E+03 0.  0.
        -24    2    3    3    0    0 -0.11280589788E+03 -0.10926837845E+02 -0.19372952670E+03  0.23739877643E+03  0.77346513507E+02 0.  0.
          6    2    1    2  501    0  0.96317096536E+02  0.45398955132E+02  0.15740892581E+02  0.20369380947E+03  0.17293161684E+03 0.  0.
         24    2    5    5    0    0  0.12575328330E+03  0.46347747496E+02 -0.15758212819E+02  0.16031555524E+03  0.86549142237E+02 0.  0.
          5    1    5    5  501    0 -0.29436186768E+02 -0.94879236389E+00  0.31499105400E+02  0.43378254222E+02  0.47000000000E+01 0. -1.
        -13    1    6    6    0    0  0.87197719876E+02 -0.12896217544E+02 -0.16235176865E+02  0.89628877859E+02  0.00000000000E+00 0.  1.
         14    1    6    6    0    0  0.38555563428E+02  0.59243965039E+02  0.47696404689E+00  0.70686677384E+02  0.00000000000E+00 0. -1.
         -5    1    3    3    0  503  0.16488801343E+02 -0.34472117287E+02  0.56816617130E+01  0.38917588823E+02  0.47000000000E+01 0.  1.
         13    1    4    4    0    0 -0.16254180710E+02  0.24567144990E+02 -0.73405018177E+02  0.79095130679E+02  0.00000000000E+00 0. -1.
        -14    1    4    4    0    0 -0.96551717169E+02 -0.35493982835E+02 -0.12032450853E+03  0.15830364575E+03  0.00000000000E+00 0.  1.
<mgrwt>
<rscale>  2 0.20292752E+03</rscale>
<asrwt>0</asrwt>
<pdfrwt beam="1">  1       21 0.23669477E-01 0.20308469E+03</pdfrwt>
<pdfrwt beam="2">  1       21 0.50178242E-01 0.20308469E+03</pdfrwt>
<totfact> 0.63270468E+04</totfact>
</mgrwt>
</event>
<event>
12    1  0.1019868E-001  0.1758504E+03  0.7546771E-02  0.1175412E+00
         21   -1    0    0  501  502  0.00000000000E+00  0.00000000000E+00  0.42120173964E+02  0.42120173964E+02  0.00000000000E+00 0. -1.
         21   -1    0    0  502  503 -0.00000000000E+00 -0.00000000000E+00 -0.86134911349E+03  0.86134911349E+03  0.00000000000E+00 0. -1.
         -6    2    1    2    0  503  0.12912055866E+02 -0.31478523118E+02 -0.60459081289E+03  0.62599337853E+03  0.15868219914E+03 0.  0.
        -24    2    3    3    0    0  0.33267409847E+02  0.33156473044E+02 -0.30585644469E+03  0.31963356408E+03  0.80071082580E+02 0.  0.
          6    2    1    2  501    0 -0.12912055866E+02  0.31478523118E+02 -0.21463812663E+03  0.27747590892E+03  0.17252749353E+03 0.  0.
         24    2    5    5    0    0 -0.55164514336E+02  0.43062143255E+02 -0.71229189957E+02  0.12745036570E+03  0.79199282765E+02 0.  0.
          5    1    5    5  501    0  0.42252458470E+02 -0.11583620137E+02 -0.14340893667E+03  0.15002554322E+03  0.47000000000E+01 0. -1.
        -11    1    6    6    0    0 -0.48371714662E+01  0.11238505641E+02  0.17038264992E+02  0.20976289252E+02  0.00000000000E+00 0.  1.
         12    1    6    6    0    0 -0.50327342869E+02  0.31823637614E+02 -0.88267454950E+02  0.10647407644E+03  0.00000000000E+00 0. -1.
         -5    1    3    3    0  503 -0.20355353982E+02 -0.64634996162E+02 -0.29873436820E+03  0.30635981445E+03  0.47000000000E+01 0.  1.
         13    1    4    4    0    0  0.27526943619E+02  0.42519083818E+02 -0.88271383205E+02  0.10177151962E+03  0.00000000000E+00 0. -1.
        -14    1    4    4    0    0  0.57404662279E+01 -0.93626107731E+01 -0.21758506149E+03  0.21786204446E+03  0.00000000000E+00 0.  1.
<mgrwt>
<rscale>  2 0.17235728E+03</rscale>
<asrwt>0</asrwt>
<pdfrwt beam="1">  1       21 0.64800272E-02 0.17585038E+03</pdfrwt>
<pdfrwt beam="2">  1       21 0.13251524E+00 0.17585038E+03</pdfrwt>
<totfact> 0.71749015E+04</totfact>
</mgrwt>
</event>
<event>
12    1  0.1019868E-001  0.1753901E+03  0.7546771E-02  0.1175688E+00
         21   -1    0    0  501  502  0.00000000000E+00  0.00000000000E+00  0.22052146944E+03  0.22052146944E+03  0.00000000000E+00 0.  1.
         21   -1    0    0  502  503 -0.00000000000E+00 -0.00000000000E+00 -0.14758076216E+03  0.14758076216E+03  0.00000000000E+00 0.  1.
         -6    2    1    2    0  503  0.92685763232E+01  0.30449799466E+02  0.99688194648E+02  0.19068435752E+03  0.15940417578E+03 0.  0.
        -24    2    3    3    0    0  0.48344689465E+02 -0.20713575950E+02  0.46546438146E+02  0.10707353354E+03  0.80820229235E+02 0.  0.
          6    2    1    2  501    0 -0.92685763232E+01 -0.30449799466E+02 -0.26747487366E+02  0.17741787407E+03  0.17247775846E+03 0.  0.
         24    2    5    5    0    0 -0.26378629017E+02 -0.15696954745E+02  0.47858328339E+02  0.99324864986E+02  0.81441898037E+02 0.  0.
          5    1    5    5  501    0  0.17110052694E+02 -0.14752844721E+02 -0.74605815706E+02  0.78093009083E+02  0.47000000000E+01 0. -1.
        -13    1    6    6    0    0 -0.82152144632E+01 -0.29644925836E+02 -0.13677502824E+02  0.33665790649E+02  0.00000000000E+00 0.  1.
         14    1    6    6    0    0 -0.18163414554E+02  0.13947971091E+02  0.61535831164E+02  0.65659074337E+02  0.00000000000E+00 0. -1.
         -5    1    3    3    0  503 -0.39076113142E+02  0.51163375416E+02  0.53141756502E+02  0.83610823979E+02  0.47000000000E+01 0.  1.
         11    1    4    4    0    0 -0.18872023360E+02 -0.73996585694E+01 -0.55256290334E+01  0.21010492352E+02  0.00000000000E+00 0. -1.
        -12    1    4    4    0    0  0.67216712825E+02 -0.13313917381E+02  0.52072067179E+02  0.86063041193E+02  0.00000000000E+00 0.  1.
<mgrwt>
<rscale>  2 0.17208819E+03</rscale>
<asrwt>0</asrwt>
<pdfrwt beam="1">  1       21 0.33926380E-01 0.17539006E+03</pdfrwt>
<pdfrwt beam="2">  1       21 0.22704733E-01 0.17539006E+03</pdfrwt>
<totfact> 0.15308407E+05</totfact>
</mgrwt>
</event>
<event>
12    1  0.1019868E-001  0.1992659E+03  0.7546771E-02  0.1150512E+00
         21   -1    0    0  501  502  0.00000000000E+00  0.00000000000E+00  0.35080697855E+04  0.35080697855E+04  0.00000000000E+00 0.  1.
         21   -1    0    0  502  503 -0.00000000000E+00 -0.00000000000E+00 -0.14983536461E+02  0.14983536461E+02  0.00000000000E+00 0.  1.
         -6    2    1    2    0  503 -0.95256599677E+02  0.28637675099E+02  0.26248916321E+04  0.26324442937E+04  0.17266424896E+03 0.  0.
        -24    2    3    3    0    0 -0.95915879714E+02  0.22378076431E+02  0.26210410235E+04  0.26236958989E+04  0.64988372623E+02 0.  0.
          6    2    1    2  501    0  0.95256599677E+02 -0.28637675099E+02  0.86819461686E+03  0.89060902819E+03  0.17183891336E+03 0.  0.
         24    2    5    5    0    0  0.19294370391E+02 -0.95842986558E+01  0.17447788495E+03  0.19246986903E+03  0.78345303867E+02 0.  0.
          5    1    5    5  501    0  0.75962229285E+02 -0.19053376443E+02  0.69371673191E+03  0.69813915917E+03  0.47000000000E+01 0. -1.
        -11    1    6    6    0    0  0.12243190977E+02 -0.42433799663E+02  0.70428835047E+02  0.83130884064E+02  0.00000000000E+00 0.  1.
         12    1    6    6    0    0  0.70511794144E+01  0.32849501007E+02  0.10404904990E+03  0.10933898496E+03  0.00000000000E+00 0. -1.
         -5    1    3    3    0  503  0.65928003777E+00  0.62595986675E+01  0.38506086355E+01  0.87483948533E+01  0.47000000000E+01 0.  1.
         11    1    4    4    0    0 -0.34797768609E+02 -0.47553364834E+01  0.37032164345E+03  0.37198335653E+03  0.00000000000E+00 0. -1.
        -12    1    4    4    0    0 -0.61118111106E+02  0.27133412915E+02  0.22507193801E+04  0.22517125423E+04  0.00000000000E+00 0.  1.
<mgrwt>
<rscale>  2 0.19908693E+03</rscale>
<asrwt>0</asrwt>
<pdfrwt beam="1">  1       21 0.53970239E+00 0.19926585E+03</pdfrwt>
<pdfrwt beam="2">  1       21 0.23051622E-02 0.19926585E+03</pdfrwt>
<totfact> 0.94613345E+02</totfact>
</mgrwt>
</event>
<event>
12    1  0.1019868E-001  0.1943186E+03  0.7546771E-02  0.1154717E+00
         21   -1    0    0  503  502  0.00000000000E+00  0.00000000000E+00  0.52587891194E+02  0.52587891194E+02  0.00000000000E+00 0.  1.
         21   -1    0    0  501  503 -0.00000000000E+00 -0.00000000000E+00 -0.77244499966E+03  0.77244499966E+03  0.00000000000E+00 0. -1.
          6    2    1    2  501    0 -0.83104982798E+02  0.28645549655E+02 -0.47063212762E+03  0.50900631513E+03  0.17281731284E+03 0.  0.
         24    2    3    3    0    0 -0.81239967167E+02  0.55729816654E+02 -0.46355626350E+03  0.48055998575E+03  0.79672741532E+02 0.  0.
         -6    2    1    2    0  502  0.83104982798E+02 -0.28645549655E+02 -0.24922498085E+03  0.31602657572E+03  0.17329945125E+03 0.  0.
        -24    2    5    5    0    0 -0.16002053102E+02 -0.35643310105E+02 -0.15895259250E+03  0.18170469621E+03  0.78893337521E+02 0.  0.
          5    1    3    3  501    0 -0.18650156315E+01 -0.27084266999E+02 -0.70758641145E+01  0.28446329379E+02  0.47000000000E+01 0. -1.
        -11    1    4    4    0    0 -0.80943091830E+02  0.34218281739E+02 -0.23332157798E+03  0.24932234892E+03  0.00000000000E+00 0.  1.
         12    1    4    4    0    0 -0.29687533732E+00  0.21511534915E+02 -0.23023468553E+03  0.23123763683E+03  0.00000000000E+00 0. -1.
         -5    1    5    5    0  502  0.99107035900E+02  0.69977604498E+01 -0.90272388348E+02  0.13432187951E+03  0.47000000000E+01 0.  1.
         13    1    6    6    0    0 -0.12988631179E+02  0.17430495028E+02 -0.99950903148E+02  0.10228738797E+03  0.00000000000E+00 0. -1.
        -14    1    6    6    0    0 -0.30134219228E+01 -0.53073805133E+02 -0.59001689349E+02  0.79417308246E+02  0.00000000000E+00 0.  1.
<mgrwt>
<rscale>  2 0.19421101E+03</rscale>
<asrwt>0</asrwt>
<pdfrwt beam="1">  1       21 0.80904454E-02 0.19431857E+03</pdfrwt>
<pdfrwt beam="2">  1       21 0.11883768E+00 0.19431857E+03</pdfrwt>
<totfact> 0.63610949E+04</totfact>
</mgrwt>
</event>
<event>
12    1  0.1019868E-001  0.1854823E+03  0.7546771E-02  0.1162724E+00
         21   -1    0    0  503  502  0.00000000000E+00  0.00000000000E+00  0.32506338520E+02  0.32506338520E+02  0.00000000000E+00 0. -1.
         21   -1    0    0  501  503 -0.00000000000E+00 -0.00000000000E+00 -0.11432862686E+04  0.11432862686E+04  0.00000000000E+00 0. -1.
          6    2    1    2  501    0 -0.59477989514E+02 -0.32694065154E+02 -0.71770799827E+03  0.74115572365E+03  0.17204796654E+03 0.  0.
         24    2    3    3    0    0  0.17938144451E+02 -0.21750648368E+02 -0.53957667325E+03  0.54656416391E+03  0.82428946530E+02 0.  0.
         -6    2    1    2    0  502  0.59477989514E+02  0.32694065154E+02 -0.39307193177E+03  0.43463688342E+03  0.17261849193E+03 0.  0.
        -24    2    5    5    0    0  0.27526632281E+02  0.86042954079E+02 -0.21904814470E+03  0.24977649923E+03  0.79025973206E+02 0.  0.
          5    1    3    3  501    0 -0.77416133965E+02 -0.10943416786E+02 -0.17813132502E+03  0.19459155974E+03  0.47000000000E+01 0. -1.
        -11    1    4    4    0    0  0.30454983487E+02  0.20391865081E+02 -0.35208058576E+03  0.35398315362E+03  0.00000000000E+00 0.  1.
         12    1    4    4    0    0 -0.12516839036E+02 -0.42142513449E+02 -0.18749608749E+03  0.19258101029E+03  0.00000000000E+00 0. -1.
         -5    1    5    5    0  502  0.31951357233E+02 -0.53348888925E+02 -0.17402378706E+03  0.18486038419E+03  0.47000000000E+01 0.  1.
         11    1    6    6    0    0  0.19537976531E+02  0.45051166939E+02 -0.19603690503E+03  0.20209356324E+03  0.00000000000E+00 0. -1.
        -12    1    6    6    0    0  0.79886557495E+01  0.40991787141E+02 -0.23011239669E+02  0.47682935992E+02  0.00000000000E+00 0.  1.
<mgrwt>
<rscale>  2 0.18534943E+03</rscale>
<asrwt>0</asrwt>
<pdfrwt beam="1">  1       21 0.50009749E-02 0.18548228E+03</pdfrwt>
<pdfrwt beam="2">  1       21 0.17589021E+00 0.18548228E+03</pdfrwt>
<totfact> 0.52432234E+04</totfact>
</mgrwt>
</event>
<event>
12    1  0.1019868E-001  0.1865323E+03  0.7546771E-02  0.1161786E+00
         21   -1    0    0  501  502  0.00000000000E+00  0.00000000000E+00  0.49623377628E+03  0.49623377628E+03  0.00000000000E+00 0. -1.
         21   -1    0    0  502  503 -0.00000000000E+00 -0.00000000000E+00 -0.69939744329E+02  0.69939744329E+02  0.00000000000E+00 0.  1.
         -6    2    1    2    0  503  0.67539157207E+02 -0.16506111212E+02  0.22317468185E+03  0.29086293249E+03  0.17309048909E+03 0.  0.
        -24    2    3    3    0    0 -0.19287007437E+02 -0.36622940019E+02  0.71115304889E+02  0.11454613298E+03  0.79688152191E+02 0.  0.
          6    2    1    2  501    0 -0.67539157207E+02  0.16506111212E+02  0.20311935010E+03  0.27531058812E+03  0.17234981892E+03 0.  0.
         24    2    5    5    0    0 -0.17568568103E+02  0.23379724735E+01 -0.35075172497E+01  0.62203694186E+02  0.59522064754E+02 0.  0.
          5    1    5    5  501    0 -0.49970589104E+02  0.14168138738E+02  0.20662686735E+03  0.21310689393E+03  0.47000000000E+01 0. -1.
        -13    1    6    6    0    0 -0.38816892314E+02 -0.22496507563E+01 -0.87237898914E+01  0.39848670837E+02  0.00000000000E+00 0.  1.
         14    1    6    6    0    0  0.21248324210E+02  0.45876232297E+01  0.52162726417E+01  0.22355023348E+02  0.00000000000E+00 0. -1.
         -5    1    3    3    0  503  0.86826164644E+02  0.20116828808E+02  0.15205937696E+03  0.17631679951E+03  0.47000000000E+01 0.  1.
         11    1    4    4    0    0  0.24045299771E+02 -0.17988644767E+01  0.49199869109E+02  0.54790870360E+02  0.00000000000E+00 0. -1.
        -12    1    4    4    0    0 -0.43332307208E+02 -0.34824075543E+02  0.21915435780E+02  0.59755262620E+02  0.00000000000E+00 0.  1.
<mgrwt>
<rscale>  2 0.18636031E+03</rscale>
<asrwt>0</asrwt>
<pdfrwt beam="1">  1       21 0.76343655E-01 0.18653232E+03</pdfrwt>
<pdfrwt beam="2">  1       21 0.10759961E-01 0.18653232E+03</pdfrwt>
<totfact> 0.10916006E+05</totfact>
</mgrwt>
</event>
<event>
12    1  0.1019868E-001  0.2034061E+03  0.7546771E-02  0.1146984E+00
         21   -1    0    0  503  502  0.00000000000E+00  0.00000000000E+00  0.66691857199E+02  0.66691857199E+02  0.00000000000E+00 0. -1.
         21   -1    0    0  501  503 -0.00000000000E+00 -0.00000000000E+00 -0.10896112436E+04  0.10896112436E+04  0.00000000000E+00 0. -1.
          6    2    1    2  501    0  0.86895687668E+01 -0.10604430818E+03 -0.89168234171E+03  0.91458812275E+03  0.17335839135E+03 0.  0.
         24    2    3    3    0    0  0.56231192675E+02 -0.87201095835E+02 -0.41031603275E+03  0.43049010989E+03  0.78717913036E+02 0.  0.
         -6    2    1    2    0  502 -0.86895687668E+01  0.10604430818E+03 -0.13123704466E+03  0.24171497803E+03  0.17286429593E+03 0.  0.
        -24    2    5    5    0    0  0.25090761885E+01  0.12937353804E+03 -0.14666506052E+03  0.21122274479E+03  0.79753370641E+02 0.  0.
          5    1    3    3  501    0 -0.47541623909E+02 -0.18843212345E+02 -0.48136630896E+03  0.48409801286E+03  0.47000000000E+01 0. -1.
        -11    1    4    4    0    0  0.74833641619E+01  0.13664908338E+02 -0.85233994009E+02  0.86646201266E+02  0.00000000000E+00 0.  1.
         12    1    4    4    0    0  0.48747828513E+02 -0.10086600417E+03 -0.32508203875E+03  0.34384390862E+03  0.00000000000E+00 0. -1.
         -5    1    5    5    0  502 -0.11198644955E+02 -0.23329229858E+02  0.15428015860E+02  0.30492233240E+02  0.47000000000E+01 0.  1.
         11    1    6    6    0    0  0.28928981903E+02  0.11258629257E+03 -0.92060647286E+02  0.14828257499E+03  0.00000000000E+00 0. -1.
        -12    1    6    6    0    0 -0.26419905715E+02  0.16787245471E+02 -0.54604413238E+02  0.62940169793E+02  0.00000000000E+00 0.  1.
<mgrwt>
<rscale>  2 0.20330077E+03</rscale>
<asrwt>0</asrwt>
<pdfrwt beam="1">  1       21 0.10260286E-01 0.20340609E+03</pdfrwt>
<pdfrwt beam="2">  1       21 0.16763250E+00 0.20340609E+03</pdfrwt>
<totfact> 0.17062830E+04</totfact>
</mgrwt>
</event>
<event>
12    1  0.1019868E-001  0.1803563E+03  0.7546771E-02  0.1167833E+00
         21   -1    0    0  501  502  0.00000000000E+00  0.00000000000E+00  0.24825616405E+03  0.24825616405E+03  0.00000000000E+00 0.  1.
         21   -1    0    0  502  503 -0.00000000000E+00 -0.00000000000E+00 -0.13092120548E+03  0.13092120548E+03  0.00000000000E+00 0. -1.
         -6    2    1    2    0  503 -0.30537890544E+02 -0.36737137407E+02  0.75102868841E+02  0.19394251778E+03  0.17231099579E+03 0.  0.
        -24    2    3    3    0    0 -0.75618743408E+02 -0.51323317265E+02  0.80848737851E+02  0.14598269137E+03  0.80138321164E+02 0.  0.
          6    2    1    2  501    0  0.30537890544E+02  0.36737137407E+02  0.42232089736E+02  0.18523485175E+03  0.17391440676E+03 0.  0.
         24    2    5    5    0    0 -0.28417017556E+02 -0.25666611783E+02 -0.29591343283E+01  0.88104805761E+02  0.79293117450E+02 0.  0.
          5    1    5    5  501    0  0.58954908100E+02  0.62403749190E+02  0.45191224064E+02  0.97130045993E+02  0.47000000000E+01 0. -1.
        -13    1    6    6    0    0 -0.84460293233E+01 -0.33076999786E+02  0.32244041128E+02  0.46958508435E+02  0.00000000000E+00 0.  1.
         14    1    6    6    0    0 -0.19970988233E+02  0.74103880030E+01 -0.35203175457E+02  0.41146297326E+02  0.00000000000E+00 0. -1.
         -5    1    3    3    0  503  0.45080852865E+02  0.14586179858E+02 -0.57458690095E+01  0.47959826402E+02  0.47000000000E+01 0.  1.
         13    1    4    4    0    0 -0.42270100332E+01 -0.19061087538E+02 -0.13208158900E+02  0.23572189832E+02  0.00000000000E+00 0. -1.
        -14    1    4    4    0    0 -0.71391733375E+02 -0.32262229727E+02  0.94056896751E+02  0.12241050154E+03  0.00000000000E+00 0.  1.
<mgrwt>
<rscale>  2 0.17996866E+03</rscale>
<asrwt>0</asrwt>
<pdfrwt beam="1">  1       21 0.38193256E-01 0.18035632E+03</pdfrwt>
<pdfrwt beam="2">  1       21 0.20141724E-01 0.18035632E+03</pdfrwt>
<totfact> 0.15119619E+05</totfact>
</mgrwt>
</event>
<event>
12    1  0.1019868E-001  0.1963882E+03  0.7546771E-02  0.1153059E+00
         21   -1    0    0  503  502  0.00000000000E+00  0.00000000000E+00  0.34942071191E+03  0.34942071191E+03  0.00000000000E+00 0. -1.
         21   -1    0    0  501  503 -0.00000000000E+00 -0.00000000000E+00 -0.13415138976E+03  0.13415138976E+03  0.00000000000E+00 0. -1.
          6    2    1    2  501    0  0.52537108353E+02 -0.73425493378E+02  0.47931013702E+01  0.19644666262E+03  0.17440431933E+03 0.  0.
         24    2    3    3    0    0  0.44807938813E+02 -0.59961715218E+02 -0.62897790298E+02  0.12683947765E+03  0.80801994987E+02 0.  0.
         -6    2    1    2    0  502 -0.52537108353E+02  0.73425493378E+02  0.21047622078E+03  0.28712543906E+03  0.17317426890E+03 0.  0.
        -24    2    5    5    0    0 -0.10205295546E+03  0.60772909752E+02  0.15488114986E+03  0.21146297216E+03  0.81365015409E+02 0.  0.
          5    1    3    3  501    0  0.77291695404E+01 -0.13463778161E+02  0.67690891668E+02  0.69607184967E+02  0.47000000000E+01 0. -1.
        -13    1    4    4    0    0 -0.11779427775E+02 -0.51459407858E+01  0.12399246008E+02  0.17859925163E+02  0.00000000000E+00 0.  1.
         14    1    4    4    0    0  0.56587366588E+02 -0.54815774432E+02 -0.75297036306E+02  0.10897955249E+03  0.00000000000E+00 0. -1.
         -5    1    5    5    0  502  0.49515847106E+02  0.12652583626E+02  0.55595070920E+02  0.75662466902E+02  0.47000000000E+01 0.  1.
         13    1    6    6    0    0 -0.82902499541E+02  0.43239320042E+02  0.55470072352E+02  0.10871702790E+03  0.00000000000E+00 0. -1.
        -14    1    6    6    0    0 -0.19150455919E+02  0.17533589710E+02  0.99411077510E+02  0.10274594426E+03  0.00000000000E+00 0.  1.
<mgrwt>
<rscale>  2 0.19611473E+03</rscale>
<asrwt>0</asrwt>
<pdfrwt beam="1">  1       21 0.53757032E-01 0.19638818E+03</pdfrwt>
<pdfrwt beam="2">  1       21 0.20638675E-01 0.19638818E+03</pdfrwt>
<totfact> 0.71129281E+04</totfact>
</mgrwt>
</event>
<event>
12    1  0.1019868E-001  0.1818605E+03  0.7546771E-02  0.1166874E+00
         21   -1    0    0  503  502  0.00000000000E+00  0.00000000000E+00  0.78550077110E+03  0.78550077110E+03  0.00000000000E+00 0.  1.
         21   -1    0    0  501  503 -0.00000000000E+00 -0.00000000000E+00 -0.41321808481E+02  0.41321808481E+02  0.00000000000E+00 0.  1.
          6    2    1    2  501    0  0.16438043752E+02  0.42930732868E+02  0.35597306037E+03  0.39813031880E+03  0.17227209274E+03 0.  0.
         24    2    3    3    0    0 -0.27682502235E+02 -0.29090170900E+02  0.89115104985E+02  0.11818587519E+03  0.66436738221E+02 0.  0.
         -6    2    1    2    0  502 -0.16438043752E+02 -0.42930732868E+02  0.38820590225E+03  0.42869226078E+03  0.17595446798E+03 0.  0.
        -24    2    5    5    0    0 -0.15544137258E+02 -0.60012359210E+02  0.39653743640E+03  0.40909416167E+03  0.79202217071E+02 0.  0.
          5    1    3    3  501    0  0.44120545988E+02  0.72020903768E+02  0.26685795538E+03  0.27994444361E+03  0.47000000000E+01 0. -1.
        -13    1    4    4    0    0  0.12093243862E+02 -0.32332297812E+02  0.24835767063E+02  0.42525749312E+02  0.00000000000E+00 0.  1.
         14    1    4    4    0    0 -0.39775746098E+02  0.32421269117E+01  0.64279337922E+02  0.75660125880E+02  0.00000000000E+00 0. -1.
         -5    1    5    5    0  502 -0.89390649434E+00  0.17081626342E+02 -0.83315341471E+01  0.19598099105E+02  0.47000000000E+01 0.  1.
         11    1    6    6    0    0  0.10673396642E+01 -0.57909902869E+02  0.13348356776E+03  0.14550793424E+03  0.00000000000E+00 0. -1.
        -12    1    6    6    0    0 -0.16611476922E+02 -0.21024563411E+01  0.26305386864E+03  0.26358622743E+03  0.00000000000E+00 0.  1.
<mgrwt>
<rscale>  2 0.18096377E+03</rscale>
<asrwt>0</asrwt>
<pdfrwt beam="1">  1       21 0.12084626E+00 0.18186047E+03</pdfrwt>
<pdfrwt beam="2">  1       21 0.63572019E-02 0.18186047E+03</pdfrwt>
<totfact> 0.93111740E+04</totfact>
</mgrwt>
</event>
<event>
12    1  0.1019868E-001  0.1867133E+03  0.7546771E-02  0.1161601E+00
         21   -1    0    0  501  502  0.00000000000E+00  0.00000000000E+00  0.15693308936E+03  0.15693308936E+03  0.00000000000E+00 0. -1.
         21   -1    0    0  502  503 -0.00000000000E+00 -0.00000000000E+00 -0.23027004161E+03  0.23027004161E+03  0.00000000000E+00 0.  1.
         -6    2    1    2    0  503 -0.19806899799E+02 -0.65263307448E+02 -0.74567420883E+02  0.20048578284E+03  0.17315494878E+03 0.  0.
        -24    2    3    3    0    0 -0.14770799704E+02 -0.72712347870E+02  0.16452606164E+02  0.10890201883E+03  0.77998073043E+02 0.  0.
          6    2    1    2  501    0  0.19806899799E+02  0.65263307448E+02  0.12304686337E+01  0.18671734813E+03  0.17381093596E+03 0.  0.
         24    2    5    5    0    0 -0.44879268930E+02  0.26070355454E+02 -0.36982342632E+02  0.10184864450E+03  0.79445833792E+02 0.  0.
          5    1    5    5  501    0  0.64686168728E+02  0.39192951993E+02  0.38212811266E+02  0.84868703628E+02  0.47000000000E+01 0. -1.
        -11    1    6    6    0    0 -0.19114201378E+02  0.60990177085E+01 -0.59127749070E+02  0.62439101702E+02  0.00000000000E+00 0.  1.
         12    1    6    6    0    0 -0.25765067552E+02  0.19971337746E+02  0.22145406438E+02  0.39409542798E+02  0.00000000000E+00 0. -1.
         -5    1    3    3    0  503 -0.50361000947E+01  0.74490404224E+01 -0.91020027046E+02  0.91583764014E+02  0.47000000000E+01 0.  1.
         11    1    4    4    0    0 -0.65514165859E+01 -0.73418495773E+01  0.38257260443E+02  0.39502427660E+02  0.00000000000E+00 0. -1.
        -12    1    4    4    0    0 -0.82193831183E+01 -0.65370498293E+02 -0.21804654279E+02  0.69399591167E+02  0.00000000000E+00 0.  1.
<mgrwt>
<rscale>  2 0.18656048E+03</rscale>
<asrwt>0</asrwt>
<pdfrwt beam="1">  1       21 0.24143552E-01 0.18671329E+03</pdfrwt>
<pdfrwt beam="2">  1       21 0.35426160E-01 0.18671329E+03</pdfrwt>
<totfact> 0.12461257E+05</totfact>
</mgrwt>
</event>
<event>
12    1  0.1019868E-001  0.2054396E+03  0.7546771E-02  0.1145368E+00
         21   -1    0    0  501  502  0.00000000000E+00  0.00000000000E+00  0.16278744287E+03  0.16278744287E+03  0.00000000000E+00 0.  1.
         21   -1    0    0  502  503 -0.00000000000E+00 -0.00000000000E+00 -0.30825148435E+03  0.30825148435E+03  0.00000000000E+00 0. -1.
         -6    2    1    2    0  503 -0.31149318733E+02 -0.10529069342E+03  0.22073964355E+02  0.20594574438E+03  0.17282933648E+03 0.  0.
        -24    2    3    3    0    0 -0.24846922136E+02  0.76569668475E+01  0.36928129337E+02  0.91754543403E+02  0.79869961925E+02 0.  0.
          6    2    1    2  501    0  0.31149318733E+02  0.10529069342E+03 -0.16753800584E+03  0.26509318284E+03  0.17363467974E+03 0.  0.
         24    2    5    5    0    0  0.32529682964E+02  0.42920628304E+02 -0.18573324088E+02  0.10352432186E+03  0.86440478023E+02 0.  0.
          5    1    5    5  501    0 -0.13803642312E+01  0.62370065119E+02 -0.14896468176E+03  0.16156886098E+03  0.47000000000E+01 0. -1.
        -11    1    6    6    0    0 -0.25670533936E+02  0.42787150076E+01 -0.21271527773E+02  0.33611926580E+02  0.00000000000E+00 0.  1.
         12    1    6    6    0    0  0.58200216900E+02  0.38641913297E+02  0.26982036851E+01  0.69912395278E+02  0.00000000000E+00 0. -1.
         -5    1    3    3    0  503 -0.63023965962E+01 -0.11294766027E+03 -0.14854164982E+02  0.11419120098E+03  0.47000000000E+01 0.  1.
         13    1    4    4    0    0  0.40342038508E+01  0.16576936894E+02 -0.20612743963E+02  0.26757332662E+02  0.00000000000E+00 0. -1.
        -14    1    4    4    0    0 -0.28881125987E+02 -0.89199700464E+01  0.57540873300E+02  0.64997210741E+02  0.00000000000E+00 0.  1.
<mgrwt>
<rscale>  2 0.20526929E+03</rscale>
<asrwt>0</asrwt>
<pdfrwt beam="1">  1       21 0.25044222E-01 0.20543956E+03</pdfrwt>
<pdfrwt beam="2">  1       21 0.47423305E-01 0.20543956E+03</pdfrwt>
<totfact> 0.63828171E+04</totfact>
</mgrwt>
</event>
<event>
12    1  0.1019868E-001  0.2241885E+03  0.7546771E-02  0.1130817E+00
         21   -1    0    0  503  502  0.00000000000E+00  0.00000000000E+00  0.10919156247E+04  0.10919156247E+04  0.00000000000E+00 0. -1.
         21   -1    0    0  501  503 -0.00000000000E+00 -0.00000000000E+00 -0.66142444699E+02  0.66142444699E+02  0.00000000000E+00 0.  1.
          6    2    1    2  501    0  0.12723312972E+03 -0.66154135979E+02  0.19350143880E+03  0.29614740447E+03  0.17232480771E+03 0.  0.
         24    2    3    3    0    0  0.68099597331E+02 -0.68258634218E+02  0.20055151478E+03  0.23637285188E+03  0.79714607964E+02 0.  0.
         -6    2    1    2    0  502 -0.12723312972E+03  0.66154135979E+02  0.83227174125E+03  0.86191066498E+03  0.17218915213E+03 0.  0.
        -24    2    5    5    0    0 -0.10892866887E+03  0.54495977263E+02  0.35037723450E+03  0.37950484869E+03  0.80152712269E+02 0.  0.
          5    1    3    3  501    0  0.59133532389E+02  0.21044982391E+01 -0.70500759849E+01  0.59774552587E+02  0.47000000000E+01 0. -1.
        -11    1    4    4    0    0  0.45780021234E+01 -0.54680667108E+02  0.12638410695E+03  0.13778198703E+03  0.00000000000E+00 0.  1.
         12    1    4    4    0    0  0.63521595207E+02 -0.13577967110E+02  0.74167407830E+02  0.98590864854E+02  0.00000000000E+00 0. -1.
         -5    1    5    5    0  502 -0.18304460852E+02  0.11658158716E+02  0.48189450675E+03  0.48240581629E+03  0.47000000000E+01 0.  1.
         13    1    6    6    0    0 -0.98478015136E+02  0.74193285985E+02  0.30371755473E+03  0.32779096419E+03  0.00000000000E+00 0. -1.
        -14    1    6    6    0    0 -0.10450653731E+02 -0.19697308722E+02  0.46659679765E+02  0.51713884500E+02  0.00000000000E+00 0.  1.
<mgrwt>
<rscale>  2 0.22416242E+03</rscale>
<asrwt>0</asrwt>
<pdfrwt beam="1">  1       21 0.16798701E+00 0.22418849E+03</pdfrwt>
<pdfrwt beam="2">  1       21 0.10175762E-01 0.22418849E+03</pdfrwt>
<totfact> 0.16973726E+04</totfact>
</mgrwt>
</event>
<event>
12    1  0.1019868E-001  0.1949265E+03  0.7546771E-02  0.1158383E+00
         21   -1    0    0  503  502  0.00000000000E+00  0.00000000000E+00  0.52579523817E+02  0.52579523817E+02  0.00000000000E+00 0.  1.
         21   -1    0    0  501  503 -0.00000000000E+00 -0.00000000000E+00 -0.16217051345E+04  0.16217051345E+04  0.00000000000E+00 0. -1.
          6    2    1    2  501    0 -0.88443481061E+02 -0.13897168088E+02 -0.14145939079E+04  0.14255349743E+04  0.15185077559E+03 0.  0.
         24    2    3    3    0    0 -0.40616872404E+02 -0.59775136955E+02 -0.99050217497E+03  0.99627041664E+03  0.78977130363E+02 0.  0.
         -6    2    1    2    0  502  0.88443481061E+02  0.13897168088E+02 -0.15453170275E+03  0.24874968399E+03  0.17315015884E+03 0.  0.
        -24    2    5    5    0    0  0.55505734105E+02 -0.52523461859E+02 -0.12919857554E+03  0.17026113329E+03  0.80355342219E+02 0.  0.
          5    1    3    3  501    0 -0.47826608657E+02  0.45877968867E+02 -0.42409173296E+03  0.42926455769E+03  0.47000000000E+01 0. -1.
        -11    1    4    4    0    0 -0.36261588778E+02 -0.39847417142E+02 -0.26197322612E+03  0.26745596026E+03  0.00000000000E+00 0.  1.
         12    1    4    4    0    0 -0.43552836257E+01 -0.19927719813E+02 -0.72852894885E+03  0.72881445638E+03  0.00000000000E+00 0. -1.
         -5    1    5    5    0  502  0.32937746955E+02  0.66420629947E+02 -0.25333127211E+02  0.78488550702E+02  0.47000000000E+01 0.  1.
         11    1    6    6    0    0  0.70387157577E+02 -0.47932791588E+02 -0.73708201986E+02  0.11262683295E+03  0.00000000000E+00 0. -1.
        -12    1    6    6    0    0 -0.14881423471E+02 -0.45906702710E+01 -0.55490373552E+02  0.57634300334E+02  0.00000000000E+00 0.  1.
<mgrwt>
<rscale>  2 0.19008723E+03</rscale>
<asrwt>0</asrwt>
<pdfrwt beam="1">  1       21 0.80891575E-02 0.19492655E+03</pdfrwt>
<pdfrwt beam="2">  1       21 0.24949310E+00 0.19492655E+03</pdfrwt>
<totfact> 0.78632306E+03</totfact>
</mgrwt>
</event>
<event>
12    1  0.1019868E-001  0.1826309E+03  0.7546771E-02  0.1165397E+00
         21   -1    0    0  501  502  0.00000000000E+00  0.00000000000E+00  0.10988658290E+03  0.10988658290E+03  0.00000000000E+00 0. -1.
         21   -1    0    0  502  503 -0.00000000000E+00 -0.00000000000E+00 -0.36019512076E+03  0.36019512076E+03  0.00000000000E+00 0. -1.
         -6    2    1    2    0  503 -0.20000505748E+02  0.54752640151E+02 -0.21918409137E+03  0.28529934948E+03  0.17307854018E+03 0.  0.
        -24    2    3    3    0    0  0.59858314340E+01  0.96376283875E+02 -0.11535607023E+03  0.17036386579E+03  0.79953771370E+02 0.  0.
          6    2    1    2  501    0  0.20000505748E+02 -0.54752640151E+02 -0.31124446492E+02  0.18478235418E+03  0.17256278687E+03 0.  0.
         24    2    5    5    0    0  0.38862700850E+02  0.16620937149E+02 -0.53407980656E+02  0.10752553677E+03  0.83203146522E+02 0.  0.
          5    1    5    5  501    0 -0.18862195101E+02 -0.71373577300E+02  0.22283534164E+02  0.77256817405E+02  0.47000000000E+01 0. -1.
        -11    1    6    6    0    0 -0.32950636209E+01  0.42633766760E+02 -0.16858734280E+02  0.45964251696E+02  0.00000000000E+00 0.  1.
         12    1    6    6    0    0  0.42157764471E+02 -0.26012829611E+02 -0.36549246376E+02  0.61561285075E+02  0.00000000000E+00 0. -1.
         -5    1    3    3    0  503 -0.25986337182E+02 -0.41623643724E+02 -0.10382802114E+03  0.11493548369E+03  0.47000000000E+01 0.  1.
         13    1    4    4    0    0 -0.78757112179E+01  0.82967414744E+02 -0.12385872166E+03  0.14928697756E+03  0.00000000000E+00 0. -1.
        -14    1    4    4    0    0  0.13861542652E+02  0.13408869131E+02  0.85026514338E+01  0.21076888230E+02  0.00000000000E+00 0.  1.
<mgrwt>
<rscale>  2 0.18250862E+03</rscale>
<asrwt>0</asrwt>
<pdfrwt beam="1">  1       21 0.16905628E-01 0.18263092E+03</pdfrwt>
<pdfrwt beam="2">  1       21 0.55414634E-01 0.18263092E+03</pdfrwt>
<totfact> 0.97132276E+04</totfact>
</mgrwt>
</event>
<event>
12    1  0.1019868E-001  0.2161764E+03  0.7546771E-02  0.1137098E+00
         21   -1    0    0  501  502  0.00000000000E+00  0.00000000000E+00  0.55925579393E+03  0.55925579393E+03  0.00000000000E+00 0.  1.
         21   -1    0    0  502  503 -0.00000000000E+00 -0.00000000000E+00 -0.13557014119E+03  0.13557014119E+03  0.00000000000E+00 0.  1.
         -6    2    1    2    0  503  0.38640530356E+02 -0.12093297298E+03 -0.52357697753E+01  0.21450749410E+03  0.17282412216E+03 0.  0.
        -24    2    3    3    0    0  0.15039481617E+02 -0.13352055701E+03  0.38997469940E+02  0.16260252065E+03  0.82854401860E+02 0.  0.
          6    2    1    2  501    0 -0.38640530356E+02  0.12093297298E+03  0.42892142252E+03  0.48031844102E+03  0.17496955033E+03 0.  0.
         24    2    5    5    0    0  0.22488859252E+02  0.53487594446E+02  0.27826306374E+03  0.30423405094E+03  0.10844977435E+03 0.  0.
          5    1    5    5  501    0 -0.61129389608E+02  0.67445378536E+02  0.15065835878E+03  0.17608439008E+03  0.47000000000E+01 0. -1.
        -11    1    6    6    0    0  0.27535112060E+02  0.54619797344E+02  0.28734471875E+03  0.29378306972E+03  0.00000000000E+00 0.  1.
         12    1    6    6    0    0 -0.50462528081E+01 -0.11322028983E+01 -0.90816550074E+01  0.10450981221E+02  0.00000000000E+00 0. -1.
         -5    1    3    3    0  503  0.23601048739E+02  0.12587584030E+02 -0.44233239716E+02  0.51904973452E+02  0.47000000000E+01 0.  1.
         13    1    4    4    0    0 -0.10186814197E+02 -0.12030706381E+03  0.87428483266E+01  0.12105369958E+03  0.00000000000E+00 0. -1.
        -14    1    4    4    0    0  0.25226295814E+02 -0.13213493205E+02  0.30254621614E+02  0.41548821068E+02  0.00000000000E+00 0.  1.
<mgrwt>
<rscale>  2 0.21574186E+03</rscale>
<asrwt>0</asrwt>
<pdfrwt beam="1">  1       21 0.86039352E-01 0.21617636E+03</pdfrwt>
<pdfrwt beam="2">  1       21 0.20856945E-01 0.21617636E+03</pdfrwt>
<totfact> 0.24534863E+04</totfact>
</mgrwt>
</event>
<event>
12    1  0.1019868E-001  0.1828494E+03  0.7546771E-02  0.1165153E+00
         21   -1    0    0  501  502  0.00000000000E+00  0.00000000000E+00  0.29208023608E+03  0.29208023608E+03  0.00000000000E+00 0. -1.
         21   -1    0    0  502  503 -0.00000000000E+00 -0.00000000000E+00 -0.21448004123E+03  0.21448004123E+03  0.00000000000E+00 0. -1.
         -6    2    1    2    0  503  0.44352626901E+02 -0.37131313345E+02 -0.13435476798E+03  0.22663386205E+03  0.17310636557E+03 0.  0.
        -24    2    3    3    0    0 -0.42730374898E+02 -0.19001725487E+02 -0.53631844732E+02  0.10642399766E+03  0.79137487940E+02 0.  0.
          6    2    1    2  501    0 -0.44352626901E+02  0.37131313345E+02  0.21195496284E+03  0.27992641527E+03  0.17345893390E+03 0.  0.
         24    2    5    5    0    0 -0.15219690377E+01 -0.40367974684E+02  0.80058173354E+02  0.12099417193E+03  0.81230466881E+02 0.  0.
          5    1    5    5  501    0 -0.42830657863E+02  0.77499288030E+02  0.13189678948E+03  0.15893224334E+03  0.47000000000E+01 0. -1.
        -11    1    6    6    0    0  0.21397305961E+02  0.18027311728E+02  0.25518646662E+02  0.37868588540E+02  0.00000000000E+00 0.  1.
         12    1    6    6    0    0 -0.22919274999E+02 -0.58395286412E+02  0.54539526692E+02  0.83125583387E+02  0.00000000000E+00 0. -1.
         -5    1    3    3    0  503  0.87083001799E+02 -0.18129587858E+02 -0.80722923251E+02  0.12020986439E+03  0.47000000000E+01 0.  1.
         11    1    4    4    0    0  0.20249797000E+02  0.89441155594E+01 -0.69693838008E+01  0.23208269911E+02  0.00000000000E+00 0. -1.
        -12    1    4    4    0    0 -0.62980171898E+02 -0.27945841046E+02 -0.46662460931E+02  0.83215727746E+02  0.00000000000E+00 0.  1.
<mgrwt>
<rscale>  2 0.18276570E+03</rscale>
<asrwt>0</asrwt>
<pdfrwt beam="1">  1       21 0.44935421E-01 0.18284937E+03</pdfrwt>
<pdfrwt beam="2">  1       21 0.32996929E-01 0.18284937E+03</pdfrwt>
<totfact> 0.42226683E+04</totfact>
</mgrwt>
</event>
<event>
12    1  0.1019868E-001  0.1974487E+03  0.7546771E-02  0.1152129E+00
         21   -1    0    0  501  502  0.00000000000E+00  0.00000000000E+00  0.98026567669E+02  0.98026567669E+02  0.00000000000E+00 0. -1.
         21   -1    0    0  502  503 -0.00000000000E+00 -0.00000000000E+00 -0.42708768524E+03  0.42708768524E+03  0.00000000000E+00 0.  1.
         -6    2    1    2    0  503 -0.10848653165E+02 -0.95470225987E+02 -0.23615058193E+03  0.30781990488E+03  0.17249272209E+03 0.  0.
        -24    2    3    3    0    0 -0.24329076228E+01  0.11495804143E+02 -0.50740363241E+02  0.93549992001E+02  0.77710642702E+02 0.  0.
          6    2    1    2  501    0  0.10848653165E+02  0.95470225987E+02 -0.92910535644E+02  0.21729434802E+03  0.17132486312E+03 0.  0.
         24    2    5    5    0    0  0.70128173712E+02  0.78999679269E+02 -0.80538899136E+02  0.15436194099E+03  0.78626868681E+02 0.  0.
          5    1    5    5  501    0 -0.59279520547E+02  0.16470546718E+02 -0.12371636508E+02  0.62932407036E+02  0.47000000000E+01 0. -1.
        -13    1    6    6    0    0  0.16458776638E+02  0.19280212995E+01 -0.54410303583E+02  0.56877849208E+02  0.00000000000E+00 0.  1.
         14    1    6    6    0    0  0.53669397074E+02  0.77071657969E+02 -0.26128595552E+02  0.97484091779E+02  0.00000000000E+00 0. -1.
         -5    1    3    3    0  503 -0.84157455421E+01 -0.10696603013E+03 -0.18541021868E+03  0.21426991288E+03  0.47000000000E+01 0.  1.
         13    1    4    4    0    0  0.26593580229E+02 -0.16605419827E+01  0.70434883214E+01  0.27560599355E+02  0.00000000000E+00 0. -1.
        -14    1    4    4    0    0 -0.29026487852E+02  0.13156346126E+02 -0.57783851562E+02  0.65989392646E+02  0.00000000000E+00 0.  1.
<mgrwt>
<rscale>  2 0.19719337E+03</rscale>
<asrwt>0</asrwt>
<pdfrwt beam="1">  1       21 0.15081010E-01 0.19744872E+03</pdfrwt>
<pdfrwt beam="2">  1       21 0.65705798E-01 0.19744872E+03</pdfrwt>
<totfact> 0.82524139E+04</totfact>
</mgrwt>
</event>
<event>
12    1  0.1019868E-001  0.2628835E+03  0.7546771E-02  0.1105456E+00
         21   -1    0    0  503  502  0.00000000000E+00  0.00000000000E+00  0.14498761591E+03  0.14498761591E+03  0.00000000000E+00 0.  1.
         21   -1    0    0  501  503 -0.00000000000E+00 -0.00000000000E+00 -0.98063284187E+03  0.98063284187E+03  0.00000000000E+00 0.  1.
          6    2    1    2  501    0 -0.14566152688E+03 -0.13386922621E+03 -0.82154846596E+03  0.86258309360E+03  0.17311690070E+03 0.  0.
         24    2    3    3    0    0 -0.10229615331E+02 -0.24271959156E+02 -0.34662482405E+03  0.35668990403E+03  0.79907108302E+02 0.  0.
         -6    2    1    2    0  502  0.14566152688E+03  0.13386922621E+03 -0.14096759997E+02  0.26303736417E+03  0.17277640513E+03 0.  0.
        -24    2    5    5    0    0  0.76314475324E+02  0.13227929904E+02 -0.47034714590E+02  0.11996278647E+03  0.78612521183E+02 0.  0.
          5    1    3    3  501    0 -0.13543191155E+03 -0.10959726705E+03 -0.47492364191E+03  0.50589318957E+03  0.47000000000E+01 0. -1.
        -11    1    4    4    0    0 -0.15797053142E+02 -0.15065245635E+02 -0.34513898784E+03  0.34582861282E+03  0.00000000000E+00 0.  1.
         12    1    4    4    0    0  0.55674378116E+01 -0.92067135211E+01 -0.14858362129E+01  0.10861291217E+02  0.00000000000E+00 0. -1.
         -5    1    5    5    0  502  0.69347051553E+02  0.12064129631E+03  0.32937954592E+02  0.14307457771E+03  0.47000000000E+01 0.  1.
         13    1    6    6    0    0 -0.70035452057E+01 -0.68276505781E+01 -0.31351399067E+02  0.32841691207E+02  0.00000000000E+00 0. -1.
        -14    1    6    6    0    0  0.83318020530E+02  0.20055580482E+02 -0.15683315523E+02  0.87121095260E+02  0.00000000000E+00 0.  1.
<mgrwt>
<rscale>  2 0.26282741E+03</rscale>
<asrwt>0</asrwt>
<pdfrwt beam="1">  1       21 0.22305788E-01 0.26288346E+03</pdfrwt>
<pdfrwt beam="2">  1       21 0.15086658E+00 0.26288346E+03</pdfrwt>
<totfact> 0.52593953E+03</totfact>
</mgrwt>
</event>
<event>
12    1  0.1019868E-001  0.2039855E+03  0.7546771E-02  0.1146834E+00
         21   -1    0    0  501  502  0.00000000000E+00  0.00000000000E+00  0.43484994992E+03  0.43484994992E+03  0.00000000000E+00 0.  1.
         21   -1    0    0  502  503 -0.00000000000E+00 -0.00000000000E+00 -0.26896942852E+03  0.26896942852E+03  0.00000000000E+00 0.  1.
         -6    2    1    2    0  503  0.10193569051E+03 -0.80556590765E+01 -0.20042682166E+03  0.28454483809E+03  0.17418115684E+03 0.  0.
        -24    2    3    3    0    0  0.12080714481E+03 -0.20829048490E+02 -0.90872293450E+02  0.17254673134E+03  0.80538098327E+02 0.  0.
          6    2    1    2  501    0 -0.10193569051E+03  0.80556590765E+01  0.36630734306E+03  0.41927454035E+03  0.17650578450E+03 0.  0.
         24    2    5    5    0    0 -0.98362855563E+02 -0.28104822114E+02  0.14039261500E+03  0.19040798555E+03  0.77974240845E+02 0.  0.
          5    1    5    5  501    0 -0.35728349478E+01  0.36160481190E+02  0.22591472806E+03  0.22886655480E+03  0.47000000000E+01 0. -1.
        -11    1    6    6    0    0 -0.54851991318E+02 -0.26421554197E+00  0.18278698884E+02  0.57818004067E+02  0.00000000000E+00 0.  1.
         12    1    6    6    0    0 -0.43510864245E+02 -0.27840606572E+02  0.12211391611E+03  0.13258998148E+03  0.00000000000E+00 0. -1.
         -5    1    3    3    0  503 -0.18871454295E+02  0.12773389414E+02 -0.10955452821E+03  0.11199810675E+03  0.47000000000E+01 0.  1.
         13    1    4    4    0    0  0.15354979678E+02 -0.14556890964E+02  0.12640545724E+02  0.24646741603E+02  0.00000000000E+00 0. -1.
        -14    1    4    4    0    0  0.10545216513E+03 -0.62721575263E+01 -0.10351283917E+03  0.14789998974E+03  0.00000000000E+00 0.  1.
<mgrwt>
<rscale>  2 0.20348158E+03</rscale>
<asrwt>0</asrwt>
<pdfrwt beam="1">  1       21 0.66899992E-01 0.20398547E+03</pdfrwt>
<pdfrwt beam="2">  1       21 0.41379912E-01 0.20398547E+03</pdfrwt>
<totfact> 0.11422593E+04</totfact>
</mgrwt>
</event>
<event>
12    1  0.1019868E-001  0.1794480E+03  0.7546771E-02  0.1168767E+00
         21   -1    0    0  503  502  0.00000000000E+00  0.00000000000E+00  0.17212536896E+04  0.17212536896E+04  0.00000000000E+00 0. -1.
         21   -1    0    0  501  503 -0.00000000000E+00 -0.00000000000E+00 -0.36895814961E+02  0.36895814961E+02  0.00000000000E+00 0. -1.
          6    2    1    2  501    0  0.66635615965E+01  0.40414025424E+02  0.21981061883E+03  0.28264949905E+03  0.17290556572E+03 0.  0.
         24    2    3    3    0    0  0.21774416447E+02  0.15146018539E+02  0.23477828561E+03  0.24928887623E+03  0.79502033489E+02 0.  0.
         -6    2    1    2    0  502 -0.66635615965E+01 -0.40414025424E+02  0.14645472559E+04  0.14755000056E+04  0.17471091914E+03 0.  0.
        -24    2    5    5    0    0  0.15405887951E+02 -0.91883947228E+02  0.10604074494E+04  0.10674714691E+04  0.79695528885E+02 0.  0.
          5    1    3    3  501    0 -0.15110854851E+02  0.25268006885E+02 -0.14967666778E+02  0.33360622821E+02  0.47000000000E+01 0. -1.
        -13    1    4    4    0    0  0.44767339140E+02 -0.12265707559E+02  0.15615437056E+03  0.16290718118E+03  0.00000000000E+00 0.  1.
         14    1    4    4    0    0 -0.22992922693E+02  0.27411726098E+02  0.78623915049E+02  0.86381695048E+02  0.00000000000E+00 0. -1.
         -5    1    5    5    0  502 -0.22069449547E+02  0.51469921804E+02  0.40413980644E+03  0.40802853651E+03  0.47000000000E+01 0.  1.
         11    1    6    6    0    0  0.14286942064E+02 -0.91437747620E+01  0.56090317948E+03  0.56115960482E+03  0.00000000000E+00 0. -1.
        -12    1    6    6    0    0  0.11189458864E+01 -0.82740172466E+02  0.49950426994E+03  0.50631186423E+03  0.00000000000E+00 0.  1.
<mgrwt>
<rscale>  2 0.17900712E+03</rscale>
<asrwt>0</asrwt>
<pdfrwt beam="1">  1       21 0.26480820E+00 0.17944805E+03</pdfrwt>
<pdfrwt beam="2">  1       21 0.56762806E-02 0.17944805E+03</pdfrwt>
<totfact> 0.11968204E+04</totfact>
</mgrwt>
</event>
<event>
12    1  0.1019868E-001  0.1734078E+03  0.7546771E-02  0.1174708E+00
         21   -1    0    0  501  502  0.00000000000E+00  0.00000000000E+00  0.12888982645E+02  0.12888982645E+02  0.00000000000E+00 0.  1.
         21   -1    0    0  502  503 -0.00000000000E+00 -0.00000000000E+00 -0.25219983543E+04  0.25219983543E+04  0.00000000000E+00 0.  1.
         -6    2    1    2    0  503 -0.30349299426E+01 -0.68668597895E+01 -0.88546732099E+03  0.90201141296E+03  0.17180176947E+03 0.  0.
        -24    2    3    3    0    0  0.47264956856E+02  0.25708090136E+02 -0.35368560462E+03  0.36684313116E+03  0.81151056162E+02 0.  0.
          6    2    1    2  501    0  0.30349299426E+01  0.68668597895E+01 -0.16236420507E+04  0.16328759240E+04  0.17324523055E+03 0.  0.
         24    2    5    5    0    0  0.52721988426E+02  0.13081290782E+02 -0.71704351872E+03  0.72488340692E+03  0.91399221335E+02 0.  0.
          5    1    5    5  501    0 -0.49687058484E+02 -0.62144309924E+01 -0.90659853194E+03  0.90799251707E+03  0.47000000000E+01 0. -1.
        -11    1    6    6    0    0  0.49865434620E+01  0.11880090324E+02 -0.57273508313E+03  0.57287998535E+03  0.00000000000E+00 0.  1.
         12    1    6    6    0    0  0.47735444964E+02  0.12012004576E+01 -0.14430843559E+03  0.15200342157E+03  0.00000000000E+00 0. -1.
         -5    1    3    3    0  503 -0.50299886799E+02 -0.32574949925E+02 -0.53178171637E+03  0.53516828180E+03  0.47000000000E+01 0.  1.
         13    1    4    4    0    0 -0.13001903904E+02  0.24240925570E+02 -0.19785523610E+03  0.19975826999E+03  0.00000000000E+00 0. -1.
        -14    1    4    4    0    0  0.60266860760E+02  0.14671645660E+01 -0.15583036853E+03  0.16708486117E+03  0.00000000000E+00 0.  1.
<mgrwt>
<rscale>  2 0.17304617E+03</rscale>
<asrwt>0</asrwt>
<pdfrwt beam="1">  1       21 0.19829192E-02 0.17340783E+03</pdfrwt>
<pdfrwt beam="2">  1       21 0.38799999E+00 0.17340783E+03</pdfrwt>
<totfact> 0.13226532E+04</totfact>
</mgrwt>
</event>
<event>
12    1  0.1019868E-001  0.2945889E+03  0.7546771E-02  0.1088109E+00
         21   -1    0    0  503  502  0.00000000000E+00  0.00000000000E+00  0.50229574908E+03  0.50229574908E+03  0.00000000000E+00 0.  1.
         21   -1    0    0  501  503 -0.00000000000E+00 -0.00000000000E+00 -0.20176530579E+03  0.20176530579E+03  0.00000000000E+00 0.  1.
          6    2    1    2  501    0 -0.18135907687E+03  0.15667579223E+03  0.28486652176E+03  0.40905597353E+03  0.16952709408E+03 0.  0.
         24    2    3    3    0    0 -0.20630875276E+03  0.12963939258E+03  0.24267034417E+03  0.35287714624E+03  0.79143608859E+02 0.  0.
         -6    2    1    2    0  502  0.18135907687E+03 -0.15667579223E+03  0.15663921526E+02  0.29500508133E+03  0.17130154973E+03 0.  0.
        -24    2    5    5    0    0  0.25816513907E+02 -0.83458534707E+02 -0.18301961471E+02  0.11970526131E+03  0.79765709337E+02 0.  0.
          5    1    3    3  501    0  0.24949675888E+02  0.27036399653E+02  0.42196177592E+02  0.56178827297E+02  0.47000000000E+01 0. -1.
        -13    1    4    4    0    0 -0.15414215071E+03  0.52087469555E+02  0.15198004556E+03  0.22264510181E+03  0.00000000000E+00 0.  1.
         14    1    4    4    0    0 -0.52166602045E+02  0.77551923024E+02  0.90690298612E+02  0.13023204443E+03  0.00000000000E+00 0. -1.
         -5    1    5    5    0  502  0.15554256296E+03 -0.73217257525E+02  0.33965882997E+02  0.17529982002E+03  0.47000000000E+01 0.  1.
         11    1    6    6    0    0 -0.15804143510E+02  0.80134448569E+01 -0.11562102868E+01  0.17757338562E+02  0.00000000000E+00 0. -1.
        -12    1    6    6    0    0  0.41620657417E+02 -0.91471979564E+02 -0.17145751185E+02  0.10194792275E+03  0.00000000000E+00 0.  1.
<mgrwt>
<rscale>  2 0.29433152E+03</rscale>
<asrwt>0</asrwt>
<pdfrwt beam="1">  1       21 0.77276269E-01 0.29458893E+03</pdfrwt>
<pdfrwt beam="2">  1       21 0.31040816E-01 0.29458893E+03</pdfrwt>
<totfact> 0.14032772E+04</totfact>
</mgrwt>
</event>
<event>
12    1  0.1019868E-001  0.2028530E+03  0.7546771E-02  0.1147430E+00
         21   -1    0    0  501  502  0.00000000000E+00  0.00000000000E+00  0.77900266566E+03  0.77900266566E+03  0.00000000000E+00 0.  1.
         21   -1    0    0  502  503 -0.00000000000E+00 -0.00000000000E+00 -0.66169684577E+02  0.66169684577E+02  0.00000000000E+00 0.  1.
         -6    2    1    2    0  503 -0.77305767556E+02 -0.75122141768E+02  0.54662778488E+03  0.58292529826E+03  0.17140726433E+03 0.  0.
        -24    2    3    3    0    0 -0.25653056560E+02  0.24960240298E+02  0.27375462893E+03  0.28768584461E+03  0.80873082180E+02 0.  0.
          6    2    1    2  501    0  0.77305767556E+02  0.75122141768E+02  0.16620519621E+03  0.26224705198E+03  0.17184246025E+03 0.  0.
         24    2    5    5    0    0  0.11861916295E+03  0.72687011457E+02  0.14065872278E+03  0.21338562749E+03  0.79966507195E+02 0.  0.
          5    1    5    5  501    0 -0.41313395394E+02  0.24351303116E+01  0.25546473432E+02  0.48861424492E+02  0.47000000000E+01 0. -1.
        -13    1    6    6    0    0  0.40674197425E+02  0.67559963088E+02  0.48514671292E+02  0.92587322454E+02  0.00000000000E+00 0.  1.
         14    1    6    6    0    0  0.77944965525E+02  0.51270483683E+01  0.92144051484E+02  0.12079830504E+03  0.00000000000E+00 0. -1.
         -5    1    3    3    0  503 -0.51652710996E+02 -0.10008238207E+03  0.27287315594E+03  0.29523945364E+03  0.47000000000E+01 0.  1.
         11    1    4    4    0    0 -0.36147515985E+02  0.80609018809E+01  0.26194814328E+03  0.26455330431E+03  0.00000000000E+00 0. -1.
        -12    1    4    4    0    0  0.10494459424E+02  0.16899338417E+02  0.11806485653E+02  0.23132540306E+02  0.00000000000E+00 0.  1.
<mgrwt>
<rscale>  2 0.20276083E+03</rscale>
<asrwt>0</asrwt>
<pdfrwt beam="1">  1       21 0.11984656E+00 0.20285302E+03</pdfrwt>
<pdfrwt beam="2">  1       21 0.10179952E-01 0.20285302E+03</pdfrwt>
<totfact> 0.41420349E+04</totfact>
</mgrwt>
</event>
<event>
12    1  0.1019868E-001  0.2058774E+03  0.7546771E-02  0.1145041E+00
         21   -1    0    0  503  502  0.00000000000E+00  0.00000000000E+00  0.55452846538E+02  0.55452846538E+02  0.00000000000E+00 0. -1.
         21   -1    0    0  501  503 -0.00000000000E+00 -0.00000000000E+00 -0.78817143141E+03  0.78817143141E+03  0.00000000000E+00 0. -1.
          6    2    1    2  501    0  0.90459495027E+02  0.66977307805E+02 -0.44354264216E+03  0.48864787061E+03  0.17139949250E+03 0.  0.
         24    2    3    3    0    0  0.98483693239E+02  0.33092932416E+01 -0.36698469882E+03  0.38864180817E+03  0.81576323962E+02 0.  0.
         -6    2    1    2    0  502 -0.90459495027E+02 -0.66977307805E+02 -0.28917594271E+03  0.35497640734E+03  0.17238516156E+03 0.  0.
        -24    2    5    5    0    0 -0.10640726690E+02 -0.58995490658E+02 -0.66671352374E+02  0.11840690824E+03  0.77339729183E+02 0.  0.
          5    1    3    3  501    0 -0.80241982120E+01  0.63668014564E+02 -0.76557943346E+02  0.10000606244E+03  0.47000000000E+01 0. -1.
        -11    1    4    4    0    0  0.28375529059E+02 -0.19529574527E+01 -0.20409729688E+02  0.35007738547E+02  0.00000000000E+00 0.  1.
         12    1    4    4    0    0  0.70108164180E+02  0.52622506943E+01 -0.34657496913E+03  0.35363406962E+03  0.00000000000E+00 0. -1.
         -5    1    5    5    0  502 -0.79818768337E+02 -0.79818171472E+01 -0.22250459034E+03  0.23656949910E+03  0.47000000000E+01 0.  1.
         13    1    6    6    0    0 -0.38132756691E+01 -0.60474874547E+02 -0.81767529377E+02  0.10177268977E+03  0.00000000000E+00 0. -1.
        -14    1    6    6    0    0 -0.68274510205E+01  0.14793838883E+01  0.15096177003E+02  0.16634218474E+02  0.00000000000E+00 0.  1.
<mgrwt>
<rscale>  2 0.20567099E+03</rscale>
<asrwt>0</asrwt>
<pdfrwt beam="1">  1       21 0.85312076E-02 0.20587745E+03</pdfrwt>
<pdfrwt beam="2">  1       21 0.12125714E+00 0.20587745E+03</pdfrwt>
<totfact> 0.54824945E+04</totfact>
</mgrwt>
</event>
<event>
12    1  0.1019868E-001  0.2528577E+03  0.7546771E-02  0.1111525E+00
         21   -1    0    0  501  502  0.00000000000E+00  0.00000000000E+00  0.17745366301E+04  0.17745366301E+04  0.00000000000E+00 0.  1.
         21   -1    0    0  502  503 -0.00000000000E+00 -0.00000000000E+00 -0.50359074242E+02  0.50359074242E+02  0.00000000000E+00 0.  1.
         -6    2    1    2    0  503 -0.86926889256E+02 -0.16233867914E+03  0.37527543458E+03  0.45251371391E+03  0.17328265537E+03 0.  0.
        -24    2    3    3    0    0 -0.65500440807E+02 -0.21076625829E+02  0.12180707005E+03  0.16151137334E+03  0.80712015840E+02 0.  0.
          6    2    1    2  501    0  0.86926889256E+02  0.16233867914E+03  0.13489021213E+04  0.13723819905E+04  0.17316253657E+03 0.  0.
         24    2    5    5    0    0  0.11122453797E+03  0.17063415817E+03  0.10639089633E+04  0.10861960704E+04  0.80204161271E+02 0.  0.
          5    1    5    5  501    0 -0.24297648716E+02 -0.82954790346E+01  0.28499315803E+03  0.28618592005E+03  0.47000000000E+01 0. -1.
        -13    1    6    6    0    0  0.65815183789E+02  0.13854976411E+03  0.61421916022E+03  0.63308202655E+03  0.00000000000E+00 0.  1.
         14    1    6    6    0    0  0.45409354184E+02  0.32084394065E+02  0.44968980305E+03  0.45311404388E+03  0.00000000000E+00 0. -1.
         -5    1    3    3    0  503 -0.21426448449E+02 -0.14126205331E+03  0.25346836453E+03  0.29100234057E+03  0.47000000000E+01 0.  1.
         11    1    4    4    0    0  0.36909360890E+01  0.36060737399E+01 -0.96371147795E+01  0.10931640238E+02  0.00000000000E+00 0. -1.
        -12    1    4    4    0    0 -0.69191376896E+02 -0.24682699569E+02  0.13144418483E+03  0.15057973310E+03  0.00000000000E+00 0.  1.
<mgrwt>
<rscale>  2 0.25283711E+03</rscale>
<asrwt>0</asrwt>
<pdfrwt beam="1">  1       21 0.27300559E+00 0.25285769E+03</pdfrwt>
<pdfrwt beam="2">  1       21 0.77475513E-02 0.25285769E+03</pdfrwt>
<totfact> 0.58539166E+03</totfact>
</mgrwt>
</event>
<event>
12    1  0.1019868E-001  0.1783743E+03  0.7546771E-02  0.1170165E+00
         21   -1    0    0  503  502  0.00000000000E+00  0.00000000000E+00  0.21091821674E+03  0.21091821674E+03  0.00000000000E+00 0.  1.
         21   -1    0    0  501  503 -0.00000000000E+00 -0.00000000000E+00 -0.14819731416E+03  0.14819731416E+03  0.00000000000E+00 0.  1.
          6    2    1    2  501    0 -0.31970888383E+02  0.16849723230E+02  0.32078177978E+02  0.18123576483E+03  0.17467496121E+03 0.  0.
         24    2    3    3    0    0 -0.35038383031E+02 -0.40290151658E+02 -0.25944987412E+02  0.99607629071E+02  0.79984703483E+02 0.  0.
         -6    2    1    2    0  502  0.31970888383E+02 -0.16849723230E+02  0.30642724603E+02  0.17787976607E+03  0.17145315316E+03 0.  0.
        -24    2    5    5    0    0  0.46784958392E+02 -0.22007777711E+02 -0.41345862195E+02  0.10405220464E+03  0.80275814285E+02 0.  0.
          5    1    3    3  501    0  0.30674946487E+01  0.57139874888E+02  0.58023165390E+02  0.81628135759E+02  0.47000000000E+01 0. -1.
        -11    1    4    4    0    0  0.77230015370E+01  0.18888502676E+02 -0.15981457445E+02  0.25919630941E+02  0.00000000000E+00 0.  1.
         12    1    4    4    0    0 -0.42761384568E+02 -0.59178654333E+02 -0.99635299677E+01  0.73687998129E+02  0.00000000000E+00 0. -1.
         -5    1    5    5    0  502 -0.14814070009E+02  0.51580544811E+01  0.71988586798E+02  0.73827561422E+02  0.47000000000E+01 0.  1.
         13    1    6    6    0    0  0.20243253446E+01  0.22016752520E+02 -0.34391682209E+02  0.40885487521E+02  0.00000000000E+00 0. -1.
        -14    1    6    6    0    0  0.44760633047E+02 -0.44024530232E+02 -0.69541799866E+01  0.63166717124E+02  0.00000000000E+00 0.  1.
<mgrwt>
<rscale>  2 0.17758058E+03</rscale>
<asrwt>0</asrwt>
<pdfrwt beam="1">  1       21 0.32448956E-01 0.17837431E+03</pdfrwt>
<pdfrwt beam="2">  1       21 0.22799587E-01 0.17837431E+03</pdfrwt>
<totfact> 0.16563226E+05</totfact>
</mgrwt>
</event>
<event>
12    1  0.1019868E-001  0.1806065E+03  0.7546771E-02  0.1168382E+00
         21   -1    0    0  501  502  0.00000000000E+00  0.00000000000E+00  0.33387859951E+03  0.33387859951E+03  0.00000000000E+00 0. -1.
         21   -1    0    0  502  503 -0.00000000000E+00 -0.00000000000E+00 -0.13661990444E+03  0.13661990444E+03  0.00000000000E+00 0. -1.
         -6    2    1    2    0  503  0.47841279556E+02  0.19404156337E+01 -0.31912969785E+02  0.17871373740E+03  0.16919695344E+03 0.  0.
        -24    2    3    3    0    0  0.60345455188E+02 -0.45799154912E+02  0.12832805902E+02  0.11193278618E+03  0.81394908701E+02 0.  0.
          6    2    1    2  501    0 -0.47841279556E+02 -0.19404156337E+01  0.22917166486E+03  0.29178476655E+03  0.17414403456E+03 0.  0.
         24    2    5    5    0    0 -0.22898930785E+02  0.61800473228E+02  0.17397432275E+03  0.20372877157E+03  0.83034257196E+02 0.  0.
          5    1    5    5  501    0 -0.24942348771E+02 -0.63740888862E+02  0.55197342116E+02  0.88055994979E+02  0.47000000000E+01 0. -1.
        -11    1    6    6    0    0  0.27184684619E+02  0.33463991057E+02  0.44083139100E+02  0.61661729851E+02  0.00000000000E+00 0.  1.
         12    1    6    6    0    0 -0.50083615405E+02  0.28336482171E+02  0.12989118365E+03  0.14206704172E+03  0.00000000000E+00 0. -1.
         -5    1    3    3    0  503 -0.12504175632E+02  0.47739570546E+02 -0.44745775687E+02  0.66780951221E+02  0.47000000000E+01 0.  1.
         13    1    4    4    0    0  0.60818323683E+02  0.84740417783E-01 -0.83574253698E+01  0.61389919655E+02  0.00000000000E+00 0. -1.
        -14    1    4    4    0    0 -0.47286849444E+00 -0.45883895330E+02  0.21190231271E+02  0.50542866525E+02  0.00000000000E+00 0.  1.
<mgrwt>
<rscale>  2 0.17940321E+03</rscale>
<asrwt>0</asrwt>
<pdfrwt beam="1">  1       21 0.51365938E-01 0.18060647E+03</pdfrwt>
<pdfrwt beam="2">  1       21 0.21018447E-01 0.18060647E+03</pdfrwt>
<totfact> 0.76137152E+04</totfact>
</mgrwt>
</event>
<event>
12    1  0.1019868E-001  0.2357829E+03  0.7546771E-02  0.1122643E+00
         21   -1    0    0  503  502  0.00000000000E+00  0.00000000000E+00  0.37548513624E+03  0.37548513624E+03  0.00000000000E+00 0. -1.
         21   -1    0    0  501  503 -0.00000000000E+00 -0.00000000000E+00 -0.27269812587E+03  0.27269812587E+03  0.00000000000E+00 0.  1.
          6    2    1    2  501    0  0.92969578584E+02  0.13013802721E+03 -0.16773831826E+03  0.28936089062E+03  0.17324645144E+03 0.  0.
         24    2    3    3    0    0  0.80603772892E+02  0.40109668078E+02 -0.16232832435E+03  0.19820510839E+03  0.69491196767E+02 0.  0.
         -6    2    1    2    0  502 -0.92969578584E+02 -0.13013802721E+03  0.27052532863E+03  0.35882237149E+03  0.17317705444E+03 0.  0.
        -24    2    5    5    0    0 -0.85156827341E+02 -0.47388444470E+02  0.78303627774E+02  0.14934730184E+03  0.81705621184E+02 0.  0.
          5    1    3    3  501    0  0.12365805692E+02  0.90028359133E+02 -0.54099939053E+01  0.91155782223E+02  0.47000000000E+01 0. -1.
        -13    1    4    4    0    0  0.79420005302E+02  0.55782583699E+02 -0.14770385088E+03  0.17673613511E+03  0.00000000000E+00 0.  1.
         14    1    4    4    0    0  0.11837675904E+01 -0.15672915621E+02 -0.14624473472E+02  0.21468973290E+02  0.00000000000E+00 0. -1.
         -5    1    5    5    0  502 -0.78127512429E+01 -0.82749582741E+02  0.19222170085E+03  0.20947506965E+03  0.47000000000E+01 0.  1.
         13    1    6    6    0    0 -0.40046432687E+00 -0.39900746126E+02  0.38362537758E+02  0.55352635134E+02  0.00000000000E+00 0. -1.
        -14    1    6    6    0    0 -0.84756363015E+02 -0.74876983439E+01  0.39941090016E+02  0.93994666709E+02  0.00000000000E+00 0.  1.
<mgrwt>
<rscale>  2 0.23577016E+03</rscale>
<asrwt>0</asrwt>
<pdfrwt beam="1">  1       21 0.57766944E-01 0.23578291E+03</pdfrwt>
<pdfrwt beam="2">  1       21 0.41953558E-01 0.23578291E+03</pdfrwt>
<totfact> 0.14977950E+04</totfact>
</mgrwt>
</event>
<event>
12    1  0.1019868E-001  0.2551996E+03  0.7546771E-02  0.1110155E+00
         21   -1    0    0  501  502  0.00000000000E+00  0.00000000000E+00  0.42220807446E+03  0.42220807446E+03  0.00000000000E+00 0. -1.
         21   -1    0    0  502  503 -0.00000000000E+00 -0.00000000000E+00 -0.18731540692E+03  0.18731540692E+03  0.00000000000E+00 0.  1.
         -6    2    1    2    0  503 -0.15601962831E+03 -0.10540083500E+03  0.24607576880E+03  0.35407894817E+03  0.17136848341E+03 0.  0.
        -24    2    3    3    0    0 -0.15227806168E+03 -0.12260902668E+03  0.15694673370E+03  0.26310534717E+03  0.79815819200E+02 0.  0.
          6    2    1    2  501    0  0.15601962831E+03  0.10540083500E+03 -0.11183101256E+02  0.25544453322E+03  0.17226545609E+03 0.  0.
         24    2    5    5    0    0  0.49968188563E+02  0.97734863038E+02 -0.40482433126E+02  0.14505333861E+03  0.85748004818E+02 0.  0.
          5    1    5    5  501    0  0.10605143975E+03  0.76659719647E+01  0.29299331870E+02  0.11039119460E+03  0.47000000000E+01 0. -1.
        -13    1    6    6    0    0  0.49928685761E+02  0.63044761346E+02 -0.64306580593E+02  0.10297015054E+03  0.00000000000E+00 0.  1.
         14    1    6    6    0    0  0.39502801793E-01  0.34690101692E+02  0.23824147467E+02  0.42083188073E+02  0.00000000000E+00 0. -1.
         -5    1    3    3    0  503 -0.37415666248E+01  0.17208191677E+02  0.89129035095E+02  0.90973600998E+02  0.47000000000E+01 0.  1.
         13    1    4    4    0    0 -0.38745599258E+02  0.55531988846E+01  0.20597336386E+02  0.44230190435E+02  0.00000000000E+00 0. -1.
        -14    1    4    4    0    0 -0.11353246243E+03 -0.12816222556E+03  0.13634939732E+03  0.21887515673E+03  0.00000000000E+00 0.  1.
<mgrwt>
<rscale>  2 0.25504833E+03</rscale>
<asrwt>0</asrwt>
<pdfrwt beam="1">  1       21 0.64955088E-01 0.25519962E+03</pdfrwt>
<pdfrwt beam="2">  1       21 0.28817755E-01 0.25519962E+03</pdfrwt>
<totfact> 0.24346283E+04</totfact>
</mgrwt>
</event>
<event>
12    1  0.1019868E-001  0.2085574E+03  0.7546771E-02  0.1144102E+00
         21   -1    0    0  503  502  0.00000000000E+00  0.00000000000E+00  0.11576940482E+04  0.11576940482E+04  0.00000000000E+00 0.  1.
         21   -1    0    0  501  503 -0.00000000000E+00 -0.00000000000E+00 -0.38797177855E+02  0.38797177855E+02  0.00000000000E+00 0.  1.
          6    2    1    2  501    0 -0.58337444556E+02 -0.85797702461E+02  0.40052969306E+03  0.44846208036E+03  0.17300202111E+03 0.  0.
         24    2    3    3    0    0 -0.10289288278E+03 -0.46332874199E+02  0.23026843430E+03  0.26803579075E+03  0.78012516495E+02 0.  0.
         -6    2    1    2    0  502  0.58337444556E+02  0.85797702461E+02  0.71836717727E+03  0.74802914568E+03  0.18091903777E+03 0.  0.
        -24    2    5    5    0    0  0.54110134245E+02 -0.21319822663E+02  0.29881796302E+03  0.31497526044E+03  0.80838098713E+02 0.  0.
          5    1    3    3  501    0  0.44555438229E+02 -0.39464828262E+02  0.17026125876E+03  0.18042628961E+03  0.47000000000E+01 0. -1.
        -13    1    4    4    0    0 -0.50332647169E+02 -0.96459468294E+01  0.33838125371E+02  0.61412037826E+02  0.00000000000E+00 0.  1.
         14    1    4    4    0    0 -0.52560235616E+02 -0.36686927369E+02  0.19643030892E+03  0.20662375292E+03  0.00000000000E+00 0. -1.
         -5    1    5    5    0  502  0.42273103109E+01  0.10711752512E+03  0.41954921425E+03  0.43305388524E+03  0.47000000000E+01 0.  1.
         11    1    6    6    0    0 -0.15075677389E+02 -0.12177703767E+02  0.14217551951E+03  0.14349024659E+03  0.00000000000E+00 0. -1.
        -12    1    6    6    0    0  0.69185811634E+02 -0.91421188959E+01  0.15664244351E+03  0.17148501386E+03  0.00000000000E+00 0.  1.
<mgrwt>
<rscale>  2 0.20682871E+03</rscale>
<asrwt>0</asrwt>
<pdfrwt beam="1">  1       21 0.17810675E+00 0.20855743E+03</pdfrwt>
<pdfrwt beam="2">  1       21 0.59687975E-02 0.20855743E+03</pdfrwt>
<totfact> 0.36915315E+04</totfact>
</mgrwt>
</event>
<event>
12    1  0.1019868E-001  0.3669349E+03  0.7546771E-02  0.1055881E+00
         21   -1    0    0  501  502  0.00000000000E+00  0.00000000000E+00  0.39739898287E+03  0.39739898287E+03  0.00000000000E+00 0. -1.
         21   -1    0    0  502  503 -0.00000000000E+00 -0.00000000000E+00 -0.46203801546E+03  0.46203801546E+03  0.00000000000E+00 0.  1.
         -6    2    1    2    0  503  0.14906211303E+03 -0.28678856022E+03 -0.25432900118E+03  0.44637100297E+03  0.17348383108E+03 0.  0.
        -24    2    3    3    0    0  0.17485427874E+03 -0.24014987112E+03 -0.24191530262E+03  0.39144748302E+03  0.80387430155E+02 0.  0.
          6    2    1    2  501    0 -0.14906211303E+03  0.28678856022E+03  0.18968996859E+03  0.41306599536E+03  0.17370676594E+03 0.  0.
         24    2    5    5    0    0 -0.17707511020E+03  0.27377498694E+03  0.17118904211E+03  0.37675545446E+03  0.79565358036E+02 0.  0.
          5    1    5    5  501    0  0.28012997176E+02  0.13013573275E+02  0.18500926478E+02  0.36310540904E+02  0.47000000000E+01 0. -1.
        -13    1    6    6    0    0 -0.75945044346E+02  0.18146609109E+03  0.80668405156E+02  0.21261463630E+03  0.00000000000E+00 0.  1.
         14    1    6    6    0    0 -0.10113006586E+03  0.92308895847E+02  0.90520636953E+02  0.16414081816E+03  0.00000000000E+00 0. -1.
         -5    1    3    3    0  503 -0.25792165710E+02 -0.46638689094E+02 -0.12413698555E+02  0.54923519955E+02  0.47000000000E+01 0.  1.
         13    1    4    4    0    0  0.93996541406E+02 -0.14524765477E+03 -0.90314127782E+02  0.19516370741E+03  0.00000000000E+00 0. -1.
        -14    1    4    4    0    0  0.80857737331E+02 -0.94902216349E+02 -0.15160117484E+03  0.19628377561E+03  0.00000000000E+00 0.  1.
<mgrwt>
<rscale>  2 0.36690854E+03</rscale>
<asrwt>0</asrwt>
<pdfrwt beam="1">  1       21 0.61138305E-01 0.36693492E+03</pdfrwt>
<pdfrwt beam="2">  1       21 0.71082771E-01 0.36693492E+03</pdfrwt>
<totfact> 0.40277189E+03</totfact>
</mgrwt>
</event>
<event>
12    1  0.1019868E-001  0.2149807E+03  0.7546771E-02  0.1137760E+00
         21   -1    0    0  501  502  0.00000000000E+00  0.00000000000E+00  0.21619460699E+03  0.21619460699E+03  0.00000000000E+00 0.  1.
         21   -1    0    0  502  503 -0.00000000000E+00 -0.00000000000E+00 -0.32327176489E+03  0.32327176489E+03  0.00000000000E+00 0.  1.
         -6    2    1    2    0  503 -0.96586297497E+02  0.82292154968E+02 -0.21078039055E+03  0.30078027192E+03  0.17303030747E+03 0.  0.
        -24    2    3    3    0    0 -0.73091213354E+02  0.86662035313E+02 -0.64496215632E+02  0.15248238028E+03  0.78984053024E+02 0.  0.
          6    2    1    2  501    0  0.96586297497E+02 -0.82292154968E+02  0.10370323265E+03  0.23868609995E+03  0.17353899336E+03 0.  0.
         24    2    5    5    0    0  0.10177674165E+03  0.25117187327E+01  0.63585651639E+02  0.14461087468E+03  0.80649588391E+02 0.  0.
          5    1    5    5  501    0 -0.51904441562E+01 -0.84803873701E+02  0.40117581009E+02  0.94075225279E+02  0.47000000000E+01 0. -1.
        -13    1    6    6    0    0  0.33629347010E+02 -0.33837277233E+02  0.56057598358E+01  0.48034558957E+02  0.00000000000E+00 0.  1.
         14    1    6    6    0    0  0.68147394643E+02  0.36348995965E+02  0.57979891803E+02  0.96576315719E+02  0.00000000000E+00 0. -1.
         -5    1    3    3    0  503 -0.23495084143E+02 -0.43698803445E+01 -0.14628417492E+03  0.14829789164E+03  0.47000000000E+01 0.  1.
         11    1    4    4    0    0 -0.12332613979E+02  0.71696528628E+02 -0.49928224915E+02  0.88234422014E+02  0.00000000000E+00 0. -1.
        -12    1    4    4    0    0 -0.60758599375E+02  0.14965506684E+02 -0.14567990717E+02  0.64247958270E+02  0.00000000000E+00 0.  1.
<mgrwt>
<rscale>  2 0.21487800E+03</rscale>
<asrwt>0</asrwt>
<pdfrwt beam="1">  1       21 0.33260709E-01 0.21498068E+03</pdfrwt>
<pdfrwt beam="2">  1       21 0.49734117E-01 0.21498068E+03</pdfrwt>
<totfact> 0.33145381E+04</totfact>
</mgrwt>
</event>
<event>
12    1  0.1019868E-001  0.2037437E+03  0.7546771E-02  0.1147110E+00
         21   -1    0    0  501  502  0.00000000000E+00  0.00000000000E+00  0.51821889604E+03  0.51821889604E+03  0.00000000000E+00 0. -1.
         21   -1    0    0  502  503 -0.00000000000E+00 -0.00000000000E+00 -0.37930911406E+03  0.37930911406E+03  0.00000000000E+00 0. -1.
         -6    2    1    2    0  503  0.10274639088E+03 -0.30399556843E+02 -0.32964899381E+03  0.38753055980E+03  0.17329316710E+03 0.  0.
        -24    2    3    3    0    0 -0.11342093679E+02 -0.25074178213E+02 -0.10089437524E+03  0.13180549751E+03  0.80222544938E+02 0.  0.
          6    2    1    2  501    0 -0.10274639088E+03  0.30399556843E+02  0.46855877579E+03  0.50999745031E+03  0.17049668343E+03 0.  0.
         24    2    5    5    0    0 -0.88651280856E+02 -0.34997897682E+02  0.22373223461E+03  0.25615177978E+03  0.80459424800E+02 0.  0.
          5    1    5    5  501    0 -0.14095110027E+02  0.65397454525E+02  0.24482654118E+03  0.25384567053E+03  0.47000000000E+01 0.  1.
        -13    1    6    6    0    0 -0.91201946445E+02 -0.13868044733E+02  0.12618589559E+03  0.15631058169E+03  0.00000000000E+00 0.  1.
         14    1    6    6    0    0  0.25506655896E+01 -0.21129852948E+02  0.97546339017E+02  0.99841198090E+02  0.00000000000E+00 0. -1.
         -5    1    3    3    0  503  0.11408848456E+03 -0.53253786298E+01 -0.22875461856E+03  0.25572506229E+03  0.47000000000E+01 0.  1.
         11    1    4    4    0    0  0.94251215210E+00  0.28231049993E+02 -0.48106244313E+02  0.55786120629E+02  0.00000000000E+00 0. -1.
        -12    1    4    4    0    0 -0.12284605831E+02 -0.53305228206E+02 -0.52788130929E+02  0.76019376882E+02  0.00000000000E+00 0.  1.
<mgrwt>
<rscale>  2 0.20314775E+03</rscale>
<asrwt>0</asrwt>
<pdfrwt beam="1">  1       21 0.79725984E-01 0.20374365E+03</pdfrwt>
<pdfrwt beam="2">  1       21 0.58355248E-01 0.20374365E+03</pdfrwt>
<totfact> 0.37776298E+03</totfact>
</mgrwt>
</event>
<event>
12    1  0.1019868E-001  0.2138666E+03  0.7546771E-02  0.1138639E+00
         21   -1    0    0  503  502  0.00000000000E+00  0.00000000000E+00  0.45749905663E+03  0.45749905663E+03  0.00000000000E+00 0. -1.
         21   -1    0    0  501  503 -0.00000000000E+00 -0.00000000000E+00 -0.15198836230E+03  0.15198836230E+03  0.00000000000E+00 0. -1.
          6    2    1    2  501    0  0.10780487878E+03  0.63846430844E+02 -0.26045070260E+02  0.21493939257E+03  0.17269145367E+03 0.  0.
         24    2    3    3    0    0  0.49733740061E+02  0.50671951670E+02 -0.77417317880E+02  0.13615473747E+03  0.86623206130E+02 0.  0.
         -6    2    1    2    0  502 -0.10780487878E+03 -0.63846430844E+02  0.33155576459E+03  0.39454802636E+03  0.17332242051E+03 0.  0.
        -24    2    5    5    0    0 -0.12687523663E+03 -0.19444336883E+02  0.30102599473E+03  0.33719489790E+03  0.81291707822E+02 0.  0.
          5    1    3    3  501    0  0.58071138722E+02  0.13174479174E+02  0.51372247621E+02  0.78784655102E+02  0.47000000000E+01 0. -1.
        -13    1    4    4    0    0 -0.19514028190E+02  0.30607602117E+02 -0.10494782429E+02  0.37785752100E+02  0.00000000000E+00 0.  1.
         14    1    4    4    0    0  0.69247768251E+02  0.20064349553E+02 -0.66922535451E+02  0.98368985366E+02  0.00000000000E+00 0. -1.
         -5    1    5    5    0  502  0.19070357843E+02 -0.44402093961E+02  0.30529769860E+02  0.57353128460E+02  0.47000000000E+01 0.  1.
         11    1    6    6    0    0 -0.82786960927E+02 -0.47340938624E+02  0.15347436320E+03  0.18069096693E+03  0.00000000000E+00 0. -1.
        -12    1    6    6    0    0 -0.44088275699E+02  0.27896601741E+02  0.14755163153E+03  0.15650393097E+03  0.00000000000E+00 0.  1.
<mgrwt>
<rscale>  2 0.21373872E+03</rscale>
<asrwt>0</asrwt>
<pdfrwt beam="1">  1       21 0.70384470E-01 0.21386659E+03</pdfrwt>
<pdfrwt beam="2">  1       21 0.23382825E-01 0.21386659E+03</pdfrwt>
<totfact> 0.31130841E+04</totfact>
</mgrwt>
</event>
<event>
11    1  0.1019868E-001  0.2114234E+03  0.7546771E-02  0.1140834E+00
         21   -1    0    0  501  502  0.00000000000E+00  0.00000000000E+00  0.27104023609E+02  0.27104023609E+02  0.00000000000E+00 0.  1.
         21   -1    0    0  502  503 -0.00000000000E+00 -0.00000000000E+00 -0.16565010964E+04  0.16565010964E+04  0.00000000000E+00 0.  1.
         -6    2    1    2    0  503 -0.51555274754E+02 -0.10452807881E+03 -0.91703137302E+03  0.94108787007E+03  0.17639663961E+03 0.  0.
        -24    2    3    3    0    0 -0.81503728734E+02 -0.14989404503E+02 -0.56180045111E+03  0.57349409703E+03  0.80051186234E+02 0.  0.
          6    2    1    2  501    0  0.51555274754E+02  0.10452807881E+03 -0.71236569975E+03  0.74251724993E+03  0.17401985702E+03 0.  0.
          5    1    5    5  501    0 -0.56970467376E+02  0.52990139548E+02 -0.19104914154E+03  0.20633820181E+03  0.47000000000E+01 0. -1.
        -13    1    5    5    0    0  0.76224951263E+02  0.19000874860E+02 -0.29613759832E+03  0.30638008026E+03  0.00000000000E+00 0.  1.
         14    1    5    5    0    0  0.32300790867E+02  0.32537064401E+02 -0.22517895989E+03  0.22979896785E+03  0.00000000000E+00 0. -1.
         -5    1    3    3    0  503  0.29948453980E+02 -0.89538674306E+02 -0.35523092192E+03  0.36759377304E+03  0.47000000000E+01 0.  1.
         13    1    4    4    0    0  0.14676264684E+02  0.63677344114E+01 -0.58914657677E+02  0.61048158660E+02  0.00000000000E+00 0. -1.
        -14    1    4    4    0    0 -0.96179993418E+02 -0.21357138915E+02 -0.50288579343E+03  0.51244593837E+03  0.00000000000E+00 0.  1.
<mgrwt>
<rscale>  2 0.21092689E+03</rscale>
<asrwt>0</asrwt>
<pdfrwt beam="1">  1       21 0.41698474E-02 0.21142337E+03</pdfrwt>
<pdfrwt beam="2">  1       21 0.25484647E+00 0.21142337E+03</pdfrwt>
<totfact> 0.22399543E+04</totfact>
</mgrwt>
</event>
<event>
12    1  0.1019868E-001  0.2043892E+03  0.7546771E-02  0.1146100E+00
         21   -1    0    0  503  502  0.00000000000E+00  0.00000000000E+00  0.10260468327E+04  0.10260468327E+04  0.00000000000E+00 0. -1.
         21   -1    0    0  501  503 -0.00000000000E+00 -0.00000000000E+00 -0.45038121595E+02  0.45038121595E+02  0.00000000000E+00 0.  1.
          6    2    1    2  501    0 -0.10663881981E+03  0.19454231120E+02  0.65659793431E+03  0.68765658175E+03  0.17320629921E+03 0.  0.
         24    2    3    3    0    0 -0.14182195413E+03  0.64775442975E+01  0.48679700851E+03  0.51370057655E+03  0.82228520640E+02 0.  0.
         -6    2    1    2    0  502  0.10663881981E+03 -0.19454231120E+02  0.32441077680E+03  0.38342837255E+03  0.17327625276E+03 0.  0.
        -24    2    5    5    0    0  0.18854102908E+02 -0.58401340777E+02  0.21637451095E+03  0.23880140891E+03  0.80262009116E+02 0.  0.
          5    1    3    3  501    0  0.35183134316E+02  0.12976686823E+02  0.16980092580E+03  0.17395600520E+03  0.47000000000E+01 0. -1.
        -13    1    4    4    0    0 -0.79766086218E+02 -0.37276391144E+02  0.25298957296E+03  0.26787288379E+03  0.00000000000E+00 0.  1.
         14    1    4    4    0    0 -0.62055867909E+02  0.43753935441E+02  0.23380743555E+03  0.24582769276E+03  0.00000000000E+00 0. -1.
         -5    1    5    5    0  502  0.87784716904E+02  0.38947109657E+02  0.10803626586E+03  0.14462696364E+03  0.47000000000E+01 0.  1.
         11    1    6    6    0    0 -0.14560153827E+02 -0.47110038758E+02  0.18545121148E+03  0.19189451704E+03  0.00000000000E+00 0. -1.
        -12    1    6    6    0    0  0.33414256734E+02 -0.11291302019E+02  0.30923299463E+02  0.46906891861E+02  0.00000000000E+00 0.  1.
<mgrwt>
<rscale>  2 0.20437442E+03</rscale>
<asrwt>0</asrwt>
<pdfrwt beam="1">  1       21 0.15785334E+00 0.20438925E+03</pdfrwt>
<pdfrwt beam="2">  1       21 0.69289426E-02 0.20438925E+03</pdfrwt>
<totfact> 0.39900095E+04</totfact>
</mgrwt>
</event>
<event>
12    1  0.1019868E-001  0.1761942E+03  0.7546771E-02  0.1172008E+00
         21   -1    0    0  501  502  0.00000000000E+00  0.00000000000E+00  0.49652694907E+03  0.49652694907E+03  0.00000000000E+00 0. -1.
         21   -1    0    0  502  503 -0.00000000000E+00 -0.00000000000E+00 -0.15320163112E+03  0.15320163112E+03  0.00000000000E+00 0. -1.
         -6    2    1    2    0  503 -0.22761405975E+02  0.20607038826E+02 -0.79553927099E+02  0.19161151043E+03  0.17159082715E+03 0.  0.
        -24    2    3    3    0    0 -0.37054646657E+02 -0.46032913386E+02 -0.71202206764E+02  0.12278548925E+03  0.80712119088E+02 0.  0.
          6    2    1    2  501    0  0.22761405975E+02 -0.20607038826E+02  0.42287924504E+03  0.45811706976E+03  0.17349830565E+03 0.  0.
         24    2    5    5    0    0 -0.21497289071E+02 -0.47740716790E+02  0.37378823135E+03  0.38651339532E+03  0.83268561852E+02 0.  0.
          5    1    5    5  501    0  0.44258695046E+02  0.27133677964E+02  0.49091013696E+02  0.71603674436E+02  0.47000000000E+01 0. -1.
        -13    1    6    6    0    0 -0.29997038955E+02  0.15996356906E+02  0.13600032107E+03  0.14018485336E+03  0.00000000000E+00 0.  1.
         14    1    6    6    0    0  0.84997498841E+01 -0.63737073696E+02  0.23778791028E+03  0.24632854197E+03  0.00000000000E+00 0. -1.
         -5    1    3    3    0  503  0.14293240682E+02  0.66639952212E+02 -0.83517203342E+01  0.68826021188E+02  0.47000000000E+01 0.  1.
         13    1    4    4    0    0 -0.17531305551E+02  0.19625034185E+02 -0.39115901477E+02  0.47143847843E+02  0.00000000000E+00 0. -1.
        -14    1    4    4    0    0 -0.19523341106E+02 -0.65657947571E+02 -0.32086305287E+02  0.75641641403E+02  0.00000000000E+00 0.  1.
<mgrwt>
<rscale>  2 0.17572281E+03</rscale>
<asrwt>0</asrwt>
<pdfrwt beam="1">  1       21 0.76388761E-01 0.17619419E+03</pdfrwt>
<pdfrwt beam="2">  1       21 0.23569482E-01 0.17619419E+03</pdfrwt>
<totfact> 0.26102146E+04</totfact>
</mgrwt>
</event>
<event>
12    1  0.1019868E-001  0.1791857E+03  0.7546771E-02  0.1169567E+00
         21   -1    0    0  501  502  0.00000000000E+00  0.00000000000E+00  0.46817324874E+03  0.46817324874E+03  0.00000000000E+00 0. -1.
         21   -1    0    0  502  503 -0.00000000000E+00 -0.00000000000E+00 -0.41867140050E+03  0.41867140050E+03  0.00000000000E+00 0. -1.
         -6    2    1    2    0  503  0.85445980721E+01  0.16403380120E+01 -0.38155311653E+03  0.42153328593E+03  0.17897438238E+03 0.  0.
        -24    2    3    3    0    0 -0.52574198621E+02 -0.38277502398E+02 -0.19829189239E+03  0.22421195519E+03  0.81988491339E+02 0.  0.
          6    2    1    2  501    0 -0.85445980721E+01 -0.16403380120E+01  0.43105496476E+03  0.46531136331E+03  0.17501594590E+03 0.  0.
         24    2    5    5    0    0  0.44683088568E+02 -0.41453078566E+02  0.19060841009E+03  0.21580209176E+03  0.80771533885E+02 0.  0.
          5    1    5    5  501    0 -0.53227686640E+02  0.39812740554E+02  0.24044655467E+03  0.24950927155E+03  0.47000000000E+01 0. -1.
        -13    1    6    6    0    0  0.66098864727E+02 -0.44315648721E+02  0.14937318541E+03  0.16924918068E+03  0.00000000000E+00 0.  1.
         14    1    6    6    0    0 -0.21415776159E+02  0.28625701556E+01  0.41235224678E+02  0.46552911087E+02  0.00000000000E+00 0. -1.
         -5    1    3    3    0  503  0.61118796694E+02  0.39917840410E+02 -0.18326122414E+03  0.19732133074E+03  0.47000000000E+01 0.  1.
         13    1    4    4    0    0  0.64324393215E+01 -0.44456448870E+02 -0.95244092767E+02  0.10530521986E+03  0.00000000000E+00 0. -1.
        -14    1    4    4    0    0 -0.59006637943E+02  0.61789464716E+01 -0.10304779962E+03  0.11890673533E+03  0.00000000000E+00 0.  1.
<mgrwt>
<rscale>  2 0.17818904E+03</rscale>
<asrwt>0</asrwt>
<pdfrwt beam="1">  1       21 0.72026654E-01 0.17918574E+03</pdfrwt>
<pdfrwt beam="2">  1       21 0.64410985E-01 0.17918574E+03</pdfrwt>
<totfact> 0.39107791E+03</totfact>
</mgrwt>
</event>
<event>
12    1  0.1019868E-001  0.1823995E+03  0.7546771E-02  0.1167030E+00
         21   -1    0    0  503  502  0.00000000000E+00  0.00000000000E+00  0.61693269848E+03  0.61693269848E+03  0.00000000000E+00 0.  1.
         21   -1    0    0  501  503 -0.00000000000E+00 -0.00000000000E+00 -0.23996566026E+03  0.23996566026E+03  0.00000000000E+00 0.  1.
          6    2    1    2  501    0 -0.37773573051E+02 -0.20662213443E+01 -0.18990137083E+03  0.26330989516E+03  0.17843334373E+03 0.  0.
         24    2    3    3    0    0 -0.51357393276E+02 -0.32558955774E+02 -0.38488137373E+02  0.10818934755E+03  0.80783233163E+02 0.  0.
         -6    2    1    2    0  502  0.37773573051E+02  0.20662213443E+01  0.56686840904E+03  0.59358846358E+03  0.17197778589E+03 0.  0.
        -24    2    5    5    0    0 -0.20605420174E+02  0.48363223699E+02  0.23167134560E+03  0.25017809592E+03  0.78446686106E+02 0.  0.
          5    1    3    3  501    0  0.13583820225E+02  0.30492734430E+02 -0.15141323345E+03  0.15512054761E+03  0.47000000000E+01 0. -1.
        -13    1    4    4    0    0 -0.57271932296E+02  0.92354253668E+01 -0.29295390684E+02  0.64989131599E+02  0.00000000000E+00 0.  1.
         14    1    4    4    0    0  0.59145390203E+01 -0.41794381141E+02 -0.91927466888E+01  0.43200215954E+02  0.00000000000E+00 0. -1.
         -5    1    5    5    0  502  0.58378993225E+02 -0.46297002355E+02  0.33519706345E+03  0.34341036766E+03  0.47000000000E+01 0.  1.
         11    1    6    6    0    0 -0.10865912088E+02 -0.15977289746E+02  0.11477258572E+03  0.11638766372E+03  0.00000000000E+00 0. -1.
        -12    1    6    6    0    0 -0.97395080857E+01  0.64340513445E+02  0.11689875988E+03  0.13379043220E+03  0.00000000000E+00 0.  1.
<mgrwt>
<rscale>  2 0.18080107E+03</rscale>
<asrwt>0</asrwt>
<pdfrwt beam="1">  1       21 0.94912722E-01 0.18239948E+03</pdfrwt>
<pdfrwt beam="2">  1       21 0.36917794E-01 0.18239948E+03</pdfrwt>
<totfact> 0.66206226E+03</totfact>
</mgrwt>
</event>
<event>
12    1  0.1019868E-001  0.1842089E+03  0.7546771E-02  0.1164042E+00
         21   -1    0    0  503  502  0.00000000000E+00  0.00000000000E+00  0.34744215379E+03  0.34744215379E+03  0.00000000000E+00 0.  1.
         21   -1    0    0  501  503 -0.00000000000E+00 -0.00000000000E+00 -0.10422757144E+03  0.10422757144E+03  0.00000000000E+00 0.  1.
          6    2    1    2  501    0  0.43428216297E+02 -0.47866303222E+02  0.62222267701E+02  0.19342344961E+03  0.17135876781E+03 0.  0.
         24    2    3    3    0    0  0.60049648431E+02 -0.55566357693E+02 -0.14038034372E+02  0.11485318476E+03  0.79376364600E+02 0.  0.
         -6    2    1    2    0  502 -0.43428216297E+02  0.47866303222E+02  0.18099231465E+03  0.25824627562E+03  0.17249848682E+03 0.  0.
        -24    2    5    5    0    0  0.52851714677E+01  0.72783426710E+02  0.68351267336E+02  0.13293086264E+03  0.87597706903E+02 0.  0.
          5    1    3    3  501    0 -0.16621432134E+02  0.77000544711E+01  0.76260302074E+02  0.78570264843E+02  0.47000000000E+01 0. -1.
        -11    1    4    4    0    0  0.44411142075E+01 -0.36011586527E+02 -0.36785798622E+02  0.51669651052E+02  0.00000000000E+00 0.  1.
         12    1    4    4    0    0  0.55608534223E+02 -0.19554771166E+02  0.22747764249E+02  0.63183533711E+02  0.00000000000E+00 0. -1.
         -5    1    5    5    0  502 -0.48713387765E+02 -0.24917123488E+02  0.11264104732E+03  0.12531541298E+03  0.47000000000E+01 0.  1.
         11    1    6    6    0    0  0.32343873084E+02  0.54662117914E+02  0.75554957244E+01  0.63962166759E+02  0.00000000000E+00 0. -1.
        -12    1    6    6    0    0 -0.27058701617E+02  0.18121308796E+02  0.60795771611E+02  0.68968695881E+02  0.00000000000E+00 0.  1.
<mgrwt>
<rscale>  2 0.18394162E+03</rscale>
<asrwt>0</asrwt>
<pdfrwt beam="1">  1       21 0.53452639E-01 0.18420891E+03</pdfrwt>
<pdfrwt beam="2">  1       21 0.16035011E-01 0.18420891E+03</pdfrwt>
<totfact> 0.11540181E+05</totfact>
</mgrwt>
</event>
<event>
12    1  0.1019868E-001  0.1882939E+03  0.7546771E-02  0.1160157E+00
         21   -1    0    0  501  502  0.00000000000E+00  0.00000000000E+00  0.22368922681E+03  0.22368922681E+03  0.00000000000E+00 0. -1.
         21   -1    0    0  502  503 -0.00000000000E+00 -0.00000000000E+00 -0.28066298280E+03  0.28066298280E+03  0.00000000000E+00 0. -1.
         -6    2    1    2    0  503 -0.68021430376E+02 -0.32824419327E+02 -0.19520221395E+03  0.27076772434E+03  0.17177572215E+03 0.  0.
        -24    2    3    3    0    0 -0.90975747840E+02 -0.69077282723E+02 -0.12199246830E+03  0.18577991550E+03  0.81140353687E+02 0.  0.
          6    2    1    2  501    0  0.68021430376E+02  0.32824419327E+02  0.13822845795E+03  0.23358448527E+03  0.17248260108E+03 0.  0.
         24    2    5    5    0    0  0.73255072888E+02  0.82562780384E+02  0.89526455571E+02  0.16361827477E+03  0.81074257225E+02 0.  0.
          5    1    5    5  501    0 -0.52336425120E+01 -0.49738361057E+02  0.48702002382E+02  0.69966210492E+02  0.47000000000E+01 0. -1.
        -11    1    6    6    0    0  0.23974002901E+01 -0.45800669154E-02 -0.13538893385E+02  0.13749515745E+02  0.00000000000E+00 0.  1.
         12    1    6    6    0    0  0.70857672598E+02  0.82567360451E+02  0.10306534896E+03  0.14986875903E+03  0.00000000000E+00 0. -1.
         -5    1    3    3    0  503  0.22954317465E+02  0.36252863396E+02 -0.73209745651E+02  0.84987808849E+02  0.47000000000E+01 0.  1.
         11    1    4    4    0    0 -0.10321507636E+02 -0.12404047931E+02 -0.74745154527E+02  0.76467195910E+02  0.00000000000E+00 0. -1.
        -12    1    4    4    0    0 -0.80654240204E+02 -0.56673234793E+02 -0.47247313772E+02  0.10931271959E+03  0.00000000000E+00 0.  1.
<mgrwt>
<rscale>  2 0.18813190E+03</rscale>
<asrwt>0</asrwt>
<pdfrwt beam="1">  1       21 0.34413727E-01 0.18829393E+03</pdfrwt>
<pdfrwt beam="2">  1       21 0.43178920E-01 0.18829393E+03</pdfrwt>
<totfact> 0.42054459E+04</totfact>
</mgrwt>
</event>
<event>
12    1  0.1019868E-001  0.1795577E+03  0.7546771E-02  0.1168648E+00
         21   -1    0    0  503  502  0.00000000000E+00  0.00000000000E+00  0.63019261924E+03  0.63019261924E+03  0.00000000000E+00 0. -1.
         21   -1    0    0  501  503 -0.00000000000E+00 -0.00000000000E+00 -0.69855136980E+02  0.69855136980E+02  0.00000000000E+00 0. -1.
          6    2    1    2  501    0  0.40934633505E+02 -0.19780668275E+02  0.97731139356E+02  0.20443177811E+03  0.17370681404E+03 0.  0.
         24    2    3    3    0    0 -0.33224449140E+02 -0.48009841497E+02  0.43911421063E+02  0.10843642491E+03  0.80133865788E+02 0.  0.
         -6    2    1    2    0  502 -0.40934633505E+02  0.19780668275E+02  0.46260634290E+03  0.49561597810E+03  0.17194083343E+03 0.  0.
        -24    2    5    5    0    0 -0.36835349026E+02 -0.45174472810E+02  0.36379816706E+03  0.37720516736E+03  0.80852062431E+02 0.  0.
          5    1    3    3  501    0  0.74159082646E+02  0.28229173221E+02  0.53819718293E+02  0.95995353204E+02  0.47000000000E+01 0. -1.
        -11    1    4    4    0    0 -0.19577017315E+02 -0.64614213172E+02  0.99484620010E+01  0.68243886517E+02  0.00000000000E+00 0.  1.
         12    1    4    4    0    0 -0.13647431825E+02  0.16604371675E+02  0.33962959062E+02  0.40192538392E+02  0.00000000000E+00 0. -1.
         -5    1    5    5    0  502 -0.40992844791E+01  0.64955141086E+02  0.98808175847E+02  0.11841081074E+03  0.47000000000E+01 0.  1.
         13    1    6    6    0    0 -0.44296774914E+02 -0.55640065322E+01  0.28719893514E+03  0.29064822515E+03  0.00000000000E+00 0. -1.
        -14    1    6    6    0    0  0.74614258878E+01 -0.39610466278E+02  0.76599231913E+02  0.86556942210E+02  0.00000000000E+00 0.  1.
<mgrwt>
<rscale>  2 0.17912922E+03</rscale>
<asrwt>0</asrwt>
<pdfrwt beam="1">  1       21 0.96952707E-01 0.17955772E+03</pdfrwt>
<pdfrwt beam="2">  1       21 0.10746945E-01 0.17955772E+03</pdfrwt>
<totfact> 0.63467829E+04</totfact>
</mgrwt>
</event>
<event>
12    1  0.1019868E-001  0.2378192E+03  0.7546771E-02  0.1121636E+00
         21   -1    0    0  503  502  0.00000000000E+00  0.00000000000E+00  0.64214356110E+03  0.64214356110E+03  0.00000000000E+00 0.  1.
         21   -1    0    0  501  503 -0.00000000000E+00 -0.00000000000E+00 -0.10244228942E+03  0.10244228942E+03  0.00000000000E+00 0. -1.
          6    2    1    2  501    0 -0.15781910482E+03 -0.19986572236E+02  0.12535657415E+03  0.26684165852E+03  0.17373504862E+03 0.  0.
         24    2    3    3    0    0 -0.67824521807E+02 -0.73340298459E+02  0.46439865210E+02  0.13570973249E+03  0.79255947880E+02 0.  0.
         -6    2    1    2    0  502  0.15781910482E+03  0.19986572236E+02  0.41434469753E+03  0.47774419200E+03  0.17678136695E+03 0.  0.
        -24    2    5    5    0    0  0.14674955629E+03 -0.37787959805E+02  0.35235617048E+03  0.39215740013E+03  0.81665129780E+02 0.  0.
          5    1    3    3  501    0 -0.89994583017E+02  0.53353726223E+02  0.78916708940E+02  0.13113192603E+03  0.47000000000E+01 0. -1.
        -11    1    4    4    0    0 -0.15502350367E+02 -0.19731156944E+02  0.54861398914E+02  0.60327560137E+02  0.00000000000E+00 0.  1.
         12    1    4    4    0    0 -0.52322171441E+02 -0.53609141515E+02 -0.84215337036E+01  0.75382172350E+02  0.00000000000E+00 0. -1.
         -5    1    5    5    0  502  0.11069548535E+02  0.57774532042E+02  0.61988527049E+02  0.85586791873E+02  0.47000000000E+01 0.  1.
         11    1    6    6    0    0  0.80995463523E+02 -0.47109589566E+02  0.13105101977E+03  0.16110229149E+03  0.00000000000E+00 0. -1.
        -12    1    6    6    0    0  0.65754092766E+02  0.93216297607E+01  0.22130515071E+03  0.23105510864E+03  0.00000000000E+00 0.  1.
<mgrwt>
<rscale>  2 0.23725330E+03</rscale>
<asrwt>0</asrwt>
<pdfrwt beam="1">  1       21 0.98791315E-01 0.23781923E+03</pdfrwt>
<pdfrwt beam="2">  1       21 0.15760353E-01 0.23781923E+03</pdfrwt>
<totfact> 0.29560862E+04</totfact>
</mgrwt>
</event>
<event>
12    1  0.1019868E-001  0.1739080E+03  0.7546771E-02  0.1174357E+00
         21   -1    0    0  501  502  0.00000000000E+00  0.00000000000E+00  0.57253488778E+03  0.57253488778E+03  0.00000000000E+00 0. -1.
         21   -1    0    0  502  503 -0.00000000000E+00 -0.00000000000E+00 -0.17036084900E+03  0.17036084900E+03  0.00000000000E+00 0. -1.
         -6    2    1    2    0  503  0.25263926649E+02 -0.30948336051E+02 -0.10789259200E+03  0.20465781427E+03  0.16925703542E+03 0.  0.
        -24    2    3    3    0    0  0.79023055059E+02 -0.14320127487E+02 -0.94715522510E+02  0.14667276130E+03  0.78052286461E+02 0.  0.
          6    2    1    2  501    0 -0.25263926649E+02  0.30948336051E+02  0.51006663078E+03  0.53823792250E+03  0.16714074275E+03 0.  0.
         24    2    5    5    0    0  0.48113318105E+02  0.21638269880E+02  0.25275249745E+03  0.27046273584E+03  0.80518075038E+02 0.  0.
          5    1    5    5  501    0 -0.73377244754E+02  0.93100661714E+01  0.25731413334E+03  0.26777518667E+03  0.47000000000E+01 0. -1.
        -13    1    6    6    0    0  0.32970315934E+02 -0.15952724597E+02  0.41471386640E+02  0.55329983415E+02  0.00000000000E+00 0.  1.
         14    1    6    6    0    0  0.15143002171E+02  0.37590994476E+02  0.21128111081E+03  0.21513275242E+03  0.00000000000E+00 0. -1.
         -5    1    3    3    0  503 -0.53759128410E+02 -0.16628208564E+02 -0.13177069495E+02  0.57985052970E+02  0.47000000000E+01 0.  1.
         13    1    4    4    0    0  0.25585115306E+02  0.30992545284E+02 -0.47326260256E+02  0.62087928764E+02  0.00000000000E+00 0. -1.
        -14    1    4    4    0    0  0.53437939753E+02 -0.45312672771E+02 -0.47389262254E+02  0.84584832539E+02  0.00000000000E+00 0.  1.
<mgrwt>
<rscale>  2 0.17339100E+03</rscale>
<asrwt>0</asrwt>
<pdfrwt beam="1">  1       21 0.88082290E-01 0.17390805E+03</pdfrwt>
<pdfrwt beam="2">  1       21 0.26209362E-01 0.17390805E+03</pdfrwt>
<totfact> 0.15467119E+04</totfact>
</mgrwt>
</event>
<event>
12    1  0.1019868E-001  0.2408153E+03  0.7546771E-02  0.1119513E+00
         21   -1    0    0  503  502  0.00000000000E+00  0.00000000000E+00  0.70707550474E+03  0.70707550474E+03  0.00000000000E+00 0.  1.
         21   -1    0    0  501  503 -0.00000000000E+00 -0.00000000000E+00 -0.11114573533E+03  0.11114573533E+03  0.00000000000E+00 0. -1.
          6    2    1    2  501    0  0.16165166838E+03 -0.43254064901E+02  0.85897837739E+02  0.25419591979E+03  0.17098231220E+03 0.  0.
         24    2    3    3    0    0  0.15890651522E+03  0.12925751987E+01  0.10310397137E+03  0.20613262772E+03  0.81285176800E+02 0.  0.
         -6    2    1    2    0  502 -0.16165166838E+03  0.43254064901E+02  0.51003193167E+03  0.56402532028E+03  0.17317567546E+03 0.  0.
        -24    2    5    5    0    0 -0.96816318525E+02  0.94814621633E+02  0.32672214664E+03  0.36281229662E+03  0.80760073466E+02 0.  0.
          5    1    3    3  501    0  0.27451531641E+01 -0.44546640100E+02 -0.17206133631E+02  0.48063292070E+02  0.47000000000E+01 0. -1.
        -11    1    4    4    0    0  0.82010961444E+02  0.39018611500E+02  0.37561075246E+02  0.98280640078E+02  0.00000000000E+00 0.  1.
         12    1    4    4    0    0  0.76895553773E+02 -0.37726036302E+02  0.65542896124E+02  0.10785198764E+03  0.00000000000E+00 0. -1.
         -5    1    5    5    0  502 -0.64835349857E+02 -0.51560556732E+02  0.18330978503E+03  0.20121302366E+03  0.47000000000E+01 0.  1.
         11    1    6    6    0    0 -0.88919672988E+00  0.49379874688E+02  0.77117476705E+02  0.91576568556E+02  0.00000000000E+00 0. -1.
        -12    1    6    6    0    0 -0.95927121795E+02  0.45434746945E+02  0.24960466994E+03  0.27123572807E+03  0.00000000000E+00 0.  1.
<mgrwt>
<rscale>  2 0.24042119E+03</rscale>
<asrwt>0</asrwt>
<pdfrwt beam="1">  1       21 0.10878084E+00 0.24081526E+03</pdfrwt>
<pdfrwt beam="2">  1       21 0.17099344E-01 0.24081526E+03</pdfrwt>
<totfact> 0.20136367E+04</totfact>
</mgrwt>
</event>
<event>
12    1  0.1019868E-001  0.1906725E+03  0.7546771E-02  0.1157915E+00
         21   -1    0    0  503  502  0.00000000000E+00  0.00000000000E+00  0.12801207761E+03  0.12801207761E+03  0.00000000000E+00 0. -1.
         21   -1    0    0  501  503 -0.00000000000E+00 -0.00000000000E+00 -0.35614752281E+03  0.35614752281E+03  0.00000000000E+00 0. -1.
          6    2    1    2  501    0 -0.62857637212E+02  0.40343901007E+02 -0.22325465330E+03  0.29342466844E+03  0.17514760325E+03 0.  0.
         24    2    3    3    0    0 -0.68908952607E+02 -0.18731841798E+02 -0.68598830869E+02  0.12769273061E+03  0.80624488880E+02 0.  0.
         -6    2    1    2    0  502  0.62857637212E+02 -0.40343901007E+02 -0.48807919063E+01  0.19073493199E+03  0.17543454405E+03 0.  0.
        -24    2    5    5    0    0  0.70039983320E+02 -0.85600009606E+02  0.20254358499E+02  0.13826048824E+03  0.80453481348E+02 0.  0.
          5    1    3    3  501    0  0.60513153947E+01  0.59075742806E+02 -0.15465582243E+03  0.16573193783E+03  0.47000000000E+01 0. -1.
        -11    1    4    4    0    0 -0.63008064859E+02  0.13831329542E+02 -0.69186014325E+02  0.94594008755E+02  0.00000000000E+00 0.  1.
         12    1    4    4    0    0 -0.59008877481E+01 -0.32563171340E+02  0.58718345585E+00  0.33098721854E+02  0.00000000000E+00 0. -1.
         -5    1    5    5    0  502 -0.71823461084E+01  0.45256108599E+02 -0.25135150406E+02  0.52474443752E+02  0.47000000000E+01 0.  1.
         11    1    6    6    0    0  0.54934827225E+02 -0.52348664338E+02 -0.25194368395E+02  0.79956076061E+02  0.00000000000E+00 0. -1.
        -12    1    6    6    0    0  0.15105156096E+02 -0.33251345268E+02  0.45448726894E+02  0.58304412175E+02  0.00000000000E+00 0.  1.
<mgrwt>
<rscale>  2 0.19060645E+03</rscale>
<asrwt>0</asrwt>
<pdfrwt beam="1">  1       21 0.19694166E-01 0.19067247E+03</pdfrwt>
<pdfrwt beam="2">  1       21 0.54791926E-01 0.19067247E+03</pdfrwt>
<totfact> 0.74762014E+04</totfact>
</mgrwt>
</event>
<event>
12    1  0.1019868E-001  0.2227331E+03  0.7546771E-02  0.1132010E+00
         21   -1    0    0  503  502  0.00000000000E+00  0.00000000000E+00  0.20184109094E+04  0.20184109094E+04  0.00000000000E+00 0. -1.
         21   -1    0    0  501  503 -0.00000000000E+00 -0.00000000000E+00 -0.79030396382E+02  0.79030396382E+02  0.00000000000E+00 0. -1.
          6    2    1    2  501    0  0.13069543407E+03  0.47342984096E+02  0.97932999510E+02  0.24257231109E+03  0.17299652912E+03 0.  0.
         24    2    3    3    0    0  0.12138489208E+03  0.83446815062E+02  0.38090014502E+02  0.17190799437E+03  0.80024036114E+02 0.  0.
         -6    2    1    2    0  502 -0.13069543407E+03 -0.47342984096E+02  0.18414475135E+04  0.18548689947E+04  0.17403272058E+03 0.  0.
        -24    2    5    5    0    0 -0.11424950792E+03 -0.45041951354E+02  0.18255455023E+04  0.18314014170E+04  0.79580412611E+02 0.  0.
          5    1    3    3  501    0  0.93105419864E+01 -0.36103830966E+02  0.59842985008E+02  0.70664316718E+02  0.47000000000E+01 0. -1.
        -13    1    4    4    0    0  0.10978998280E+03  0.43498864661E+02  0.40567267631E+01  0.11816280541E+03  0.00000000000E+00 0.  1.
         14    1    4    4    0    0  0.11594909276E+02  0.39947950400E+02  0.34033287739E+02  0.53745188962E+02  0.00000000000E+00 0. -1.
         -5    1    5    5    0  502 -0.16445926148E+02 -0.23010327418E+01  0.15902011212E+02  0.23467577615E+02  0.47000000000E+01 0.  1.
         13    1    6    6    0    0 -0.68522084927E+01 -0.15130244807E+02  0.73186676797E+03  0.73205521864E+03  0.00000000000E+00 0. -1.
        -14    1    6    6    0    0 -0.10739729943E+03 -0.29911706547E+02  0.10936787343E+04  0.10993461984E+04  0.00000000000E+00 0.  1.
<mgrwt>
<rscale>  2 0.22253067E+03</rscale>
<asrwt>0</asrwt>
<pdfrwt beam="1">  1       21 0.31052472E+00 0.22273312E+03</pdfrwt>
<pdfrwt beam="2">  1       21 0.12158524E-01 0.22273312E+03</pdfrwt>
<totfact> 0.16396229E+03</totfact>
</mgrwt>
</event>
<event>
12    1  0.1019868E-001  0.3165120E+03  0.7546771E-02  0.1077267E+00
         21   -1    0    0  503  502  0.00000000000E+00  0.00000000000E+00  0.62833728773E+03  0.62833728773E+03  0.00000000000E+00 0.  1.
         21   -1    0    0  501  503 -0.00000000000E+00 -0.00000000000E+00 -0.27414335524E+03  0.27414335524E+03  0.00000000000E+00 0. -1.
          6    2    1    2  501    0  0.16645376904E+03  0.20543822889E+03 -0.11479913288E+03  0.33667646247E+03  0.17395538612E+03 0.  0.
         24    2    3    3    0    0  0.15182538407E+03  0.22986793180E+03 -0.98429244503E+02  0.30349720274E+03  0.80820929110E+02 0.  0.
         -6    2    1    2    0  502 -0.16645376904E+03 -0.20543822889E+03  0.46899306537E+03  0.56580418050E+03  0.17397744738E+03 0.  0.
        -24    2    5    5    0    0 -0.14242841500E+03 -0.71196880349E+02  0.24972688433E+03  0.30754519143E+03  0.82859391975E+02 0.  0.
          5    1    3    3  501    0  0.14628384969E+02 -0.24429702909E+02 -0.16369888374E+02  0.33179259733E+02  0.47000000000E+01 0. -1.
        -13    1    4    4    0    0  0.10586633181E+03  0.18169823445E+03 -0.38225367074E+02  0.21373606926E+03  0.00000000000E+00 0.  1.
         14    1    4    4    0    0  0.45959052252E+02  0.48169697346E+02 -0.60203877429E+02  0.89761133481E+02  0.00000000000E+00 0. -1.
         -5    1    5    5    0  502 -0.24025354035E+02 -0.13424134854E+03  0.21926618103E+03  0.25825898908E+03  0.47000000000E+01 0.  1.
         11    1    6    6    0    0 -0.40007977094E+02 -0.57361876642E+02  0.14183432051E+03  0.15813917161E+03  0.00000000000E+00 0. -1.
        -12    1    6    6    0    0 -0.10242043791E+03 -0.13835003707E+02  0.10789256383E+03  0.14940601982E+03  0.00000000000E+00 0.  1.
<mgrwt>
<rscale>  2 0.31650901E+03</rscale>
<asrwt>0</asrwt>
<pdfrwt beam="1">  1       21 0.96667275E-01 0.31651205E+03</pdfrwt>
<pdfrwt beam="2">  1       21 0.42175901E-01 0.31651205E+03</pdfrwt>
<totfact> 0.44483976E+03</totfact>
</mgrwt>
</event>
<event>
12    1  0.1019868E-001  0.1980069E+03  0.7546771E-02  0.1151446E+00
         21   -1    0    0  503  502  0.00000000000E+00  0.00000000000E+00  0.11031419730E+03  0.11031419730E+03  0.00000000000E+00 0. -1.
         21   -1    0    0  501  503 -0.00000000000E+00 -0.00000000000E+00 -0.51472677133E+03  0.51472677133E+03  0.00000000000E+00 0. -1.
          6    2    1    2  501    0 -0.66733343744E+02 -0.70893870295E+02 -0.37611756723E+03  0.42502261803E+03  0.17233839225E+03 0.  0.
         24    2    3    3    0    0 -0.91499905700E+01 -0.95934938404E+02 -0.30477273030E+03  0.32986446855E+03  0.81467267939E+02 0.  0.
         -6    2    1    2    0  502  0.66733343744E+02  0.70893870295E+02 -0.28295006793E+02  0.20001835060E+03  0.17241651067E+03 0.  0.
        -24    2    5    5    0    0  0.17220115774E+02 -0.25311444942E+02  0.93391996396E+01  0.85364759646E+02  0.79137348371E+02 0.  0.
          5    1    3    3  501    0 -0.57583353174E+02  0.25041068109E+02 -0.71344836934E+02  0.95158149478E+02  0.47000000000E+01 0. -1.
        -11    1    4    4    0    0 -0.62532276416E+01 -0.15425199197E+02 -0.22467013473E+01  0.16795454538E+02  0.00000000000E+00 0.  1.
         12    1    4    4    0    0 -0.28967629284E+01 -0.80509739207E+02 -0.30252602895E+03  0.31306901401E+03  0.00000000000E+00 0. -1.
         -5    1    5    5    0  502  0.49513227971E+02  0.96205315236E+02 -0.37634206433E+02  0.11465359095E+03  0.47000000000E+01 0.  1.
         13    1    6    6    0    0  0.33987909398E+02 -0.26451111543E+02  0.34448366541E+02  0.55150061146E+02  0.00000000000E+00 0. -1.
        -14    1    6    6    0    0 -0.16767793624E+02  0.11396666016E+01 -0.25109166901E+02  0.30214698500E+02  0.00000000000E+00 0.  1.
<mgrwt>
<rscale>  2 0.19798989E+03</rscale>
<asrwt>0</asrwt>
<pdfrwt beam="1">  1       21 0.16971415E-01 0.19800690E+03</pdfrwt>
<pdfrwt beam="2">  1       21 0.79188735E-01 0.19800690E+03</pdfrwt>
<totfact> 0.43921077E+04</totfact>
</mgrwt>
</event>
<event>
12    1  0.1019868E-001  0.1823930E+03  0.7546771E-02  0.1167034E+00
         21   -1    0    0  503  502  0.00000000000E+00  0.00000000000E+00  0.62777039135E+02  0.62777039135E+02  0.00000000000E+00 0.  1.
         21   -1    0    0  501  503 -0.00000000000E+00 -0.00000000000E+00 -0.67920529062E+03  0.67920529062E+03  0.00000000000E+00 0.  1.
          6    2    1    2  501    0  0.58426258836E+02  0.58986932731E+01 -0.49647039583E+03  0.52891405367E+03  0.17268120897E+03 0.  0.
         24    2    3    3    0    0  0.10952053104E+02  0.41837778896E+02 -0.43546844730E+03  0.44353990179E+03  0.72280901160E+02 0.  0.
         -6    2    1    2    0  502 -0.58426258836E+02 -0.58986932731E+01 -0.11995785566E+03  0.21306827609E+03  0.16601138767E+03 0.  0.
        -24    2    5    5    0    0 -0.24169587580E+02 -0.64176668350E+02 -0.90903671493E+02  0.13933851600E+03  0.80305235365E+02 0.  0.
          5    1    3    3  501    0  0.47474205732E+02 -0.35939085623E+02 -0.61001948527E+02  0.85374151881E+02  0.47000000000E+01 0. -1.
        -13    1    4    4    0    0  0.20689443320E+02  0.96961808308E+01 -0.36243692391E+03  0.36315643021E+03  0.00000000000E+00 0.  1.
         14    1    4    4    0    0 -0.97373902163E+01  0.32141598065E+02 -0.73031523390E+02  0.80383471579E+02  0.00000000000E+00 0. -1.
         -5    1    5    5    0  502 -0.34256671256E+02  0.58277975077E+02 -0.29054184167E+02  0.73729760085E+02  0.47000000000E+01 0.  1.
         11    1    6    6    0    0 -0.36896079560E+02 -0.53699821661E+02 -0.10086517795E+03  0.12007820641E+03  0.00000000000E+00 0. -1.
        -12    1    6    6    0    0  0.12726491980E+02 -0.10476846690E+02  0.99615064546E+01  0.19260309590E+02  0.00000000000E+00 0.  1.
<mgrwt>
<rscale>  2 0.18079682E+03</rscale>
<asrwt>0</asrwt>
<pdfrwt beam="1">  1       21 0.96580059E-02 0.18239304E+03</pdfrwt>
<pdfrwt beam="2">  1       21 0.10449312E+00 0.18239304E+03</pdfrwt>
<totfact> 0.64084829E+04</totfact>
</mgrwt>
</event>
<event>
12    1  0.1019868E-001  0.2102138E+03  0.7546771E-02  0.1141518E+00
         21   -1    0    0  503  502  0.00000000000E+00  0.00000000000E+00  0.66437709843E+02  0.66437709843E+02  0.00000000000E+00 0. -1.
         21   -1    0    0  501  503 -0.00000000000E+00 -0.00000000000E+00 -0.67743822423E+03  0.67743822423E+03  0.00000000000E+00 0.  1.
          6    2    1    2  501    0 -0.11592593219E+03  0.25672179896E+02 -0.35899666625E+03  0.41570559509E+03  0.17272710509E+03 0.  0.
         24    2    3    3    0    0 -0.10791223915E+03 -0.18660398427E+02 -0.34014843612E+03  0.36664499423E+03  0.82062972016E+02 0.  0.
         -6    2    1    2    0  502  0.11592593219E+03 -0.25672179896E+02 -0.25200384814E+03  0.32817033899E+03  0.17347031257E+03 0.  0.
        -24    2    5    5    0    0  0.11525614982E+03 -0.58787510668E+02 -0.12459376995E+03  0.19644148200E+03  0.79534249591E+02 0.  0.
          5    1    3    3  501    0 -0.80136930361E+01  0.44332578323E+02 -0.18848230133E+02  0.49060600852E+02  0.47000000000E+01 0. -1.
        -13    1    4    4    0    0 -0.97601412785E+02  0.10657826100E+02 -0.19637960163E+03  0.21955539841E+03  0.00000000000E+00 0.  1.
         14    1    4    4    0    0 -0.10310826365E+02 -0.29318224526E+02 -0.14376883449E+03  0.14708959582E+03  0.00000000000E+00 0. -1.
         -5    1    5    5    0  502  0.66978236813E+00  0.33115330772E+02 -0.12741007819E+03  0.13172885699E+03  0.47000000000E+01 0.  1.
         13    1    6    6    0    0  0.83618538659E+02 -0.59094072328E+02 -0.47036997373E+02  0.11267940590E+03  0.00000000000E+00 0. -1.
        -14    1    6    6    0    0  0.31637611159E+02  0.30656166009E+00 -0.77556772580E+02  0.83762076102E+02  0.00000000000E+00 0.  1.
<mgrwt>
<rscale>  2 0.21006039E+03</rscale>
<asrwt>0</asrwt>
<pdfrwt beam="1">  1       21 0.10221186E-01 0.21021378E+03</pdfrwt>
<pdfrwt beam="2">  1       21 0.10422127E+00 0.21021378E+03</pdfrwt>
<totfact> 0.57561220E+04</totfact>
</mgrwt>
</event>
<event>
12    1  0.1019868E-001  0.2298514E+03  0.7546771E-02  0.1126894E+00
         21   -1    0    0  503  502  0.00000000000E+00  0.00000000000E+00  0.11064092880E+04  0.11064092880E+04  0.00000000000E+00 0.  1.
         21   -1    0    0  501  503 -0.00000000000E+00 -0.00000000000E+00 -0.49109439642E+02  0.49109439642E+02  0.00000000000E+00 0. -1.
          6    2    1    2  501    0  0.69993330504E+02 -0.13318347600E+03  0.42556740380E+03  0.48327058315E+03  0.17264395954E+03 0.  0.
         24    2    3    3    0    0  0.36729286596E+02  0.32894486262E+01  0.13975557926E+03  0.16477121922E+03  0.79107975478E+02 0.  0.
         -6    2    1    2    0  502 -0.69993330504E+02  0.13318347600E+03  0.63173244455E+03  0.67224814448E+03  0.17376645728E+03 0.  0.
        -24    2    5    5    0    0 -0.19577971477E+02 -0.28864556168E+00  0.16657160087E+03  0.18567521455E+03  0.79660572413E+02 0.  0.
          5    1    3    3  501    0  0.33264043908E+02 -0.13647292462E+03  0.28581182455E+03  0.31849936393E+03  0.47000000000E+01 0. -1.
        -13    1    4    4    0    0  0.61627690381E+02  0.72957685014E+01  0.10009097805E+03  0.11776843527E+03  0.00000000000E+00 0.  1.
         14    1    4    4    0    0 -0.24898403785E+02 -0.40063198752E+01  0.39664601207E+02  0.47002783948E+02  0.00000000000E+00 0. -1.
         -5    1    5    5    0  502 -0.50415359027E+02  0.13347212156E+03  0.46516084367E+03  0.48657292994E+03  0.47000000000E+01 0.  1.
         11    1    6    6    0    0 -0.44706399306E+02  0.43319099052E+01  0.14636214314E+03  0.15309900237E+03  0.00000000000E+00 0. -1.
        -12    1    6    6    0    0  0.25128427829E+02 -0.46205554669E+01  0.20209457729E+02  0.32576212175E+02  0.00000000000E+00 0.  1.
<mgrwt>
<rscale>  2 0.22963929E+03</rscale>
<asrwt>0</asrwt>
<pdfrwt beam="1">  1       21 0.17021679E+00 0.22985144E+03</pdfrwt>
<pdfrwt beam="2">  1       21 0.75552993E-02 0.22985144E+03</pdfrwt>
<totfact> 0.27524666E+04</totfact>
</mgrwt>
</event>
<event>
12    1  0.1019868E-001  0.2137280E+03  0.7546771E-02  0.1138659E+00
         21   -1    0    0  503  502  0.00000000000E+00  0.00000000000E+00  0.90454119493E+03  0.90454119493E+03  0.00000000000E+00 0. -1.
         21   -1    0    0  501  503 -0.00000000000E+00 -0.00000000000E+00 -0.50520233507E+02  0.50520233507E+02  0.00000000000E+00 0.  1.
          6    2    1    2  501    0  0.31684964668E+02 -0.12110008754E+03  0.43940597914E+03  0.48860108796E+03  0.17315958090E+03 0.  0.
         24    2    3    3    0    0 -0.45386361161E+02 -0.71317584747E+02  0.19955973771E+03  0.23176145632E+03  0.82116770803E+02 0.  0.
         -6    2    1    2    0  502 -0.31684964668E+02  0.12110008754E+03  0.41461498228E+03  0.46646034049E+03  0.17323538185E+03 0.  0.
        -24    2    5    5    0    0  0.46624829314E+02  0.88708232503E+02  0.25319494320E+03  0.28408661671E+03  0.80959874687E+02 0.  0.
          5    1    3    3  501    0  0.77071325829E+02 -0.49782502791E+02  0.23984624143E+03  0.25683963163E+03  0.47000000000E+01 0. -1.
        -13    1    4    4    0    0  0.56724837006E+01 -0.16233824651E+02 -0.13718908004E+01  0.17250977320E+02  0.00000000000E+00 0.  1.
         14    1    4    4    0    0 -0.51058844862E+02 -0.55083760096E+02  0.20093162851E+03  0.21451047900E+03  0.00000000000E+00 0. -1.
         -5    1    5    5    0  502 -0.78309793982E+02  0.32391855035E+02  0.16142003908E+03  0.18237372378E+03  0.47000000000E+01 0.  1.
         13    1    6    6    0    0  0.70317331697E+01 -0.13143164107E+02  0.62952075171E+02  0.64692749226E+02  0.00000000000E+00 0. -1.
        -14    1    6    6    0    0  0.39593096144E+02  0.10185139661E+03  0.19024286803E+03  0.21939386748E+03  0.00000000000E+00 0.  1.
<mgrwt>
<rscale>  2 0.21371266E+03</rscale>
<asrwt>0</asrwt>
<pdfrwt beam="1">  1       21 0.13916017E+00 0.21372802E+03</pdfrwt>
<pdfrwt beam="2">  1       21 0.77723443E-02 0.21372802E+03</pdfrwt>
<totfact> 0.45325268E+04</totfact>
</mgrwt>
</event>
<event>
12    1  0.1019868E-001  0.1848897E+03  0.7546771E-02  0.1163386E+00
         21   -1    0    0  501  502  0.00000000000E+00  0.00000000000E+00  0.73680127093E+02  0.73680127093E+02  0.00000000000E+00 0. -1.
         21   -1    0    0  502  503 -0.00000000000E+00 -0.00000000000E+00 -0.62393667792E+03  0.62393667792E+03  0.00000000000E+00 0.  1.
         -6    2    1    2    0  503  0.70174214914E+01 -0.64321235090E+02 -0.97680767401E+02  0.20910700212E+03  0.17319855810E+03 0.  0.
        -24    2    3    3    0    0  0.22885397911E+02 -0.40221686624E+02  0.13773370758E+02  0.93882456888E+02  0.80515119431E+02 0.  0.
          6    2    1    2  501    0 -0.70174214914E+01  0.64321235090E+02 -0.45257578342E+03  0.48850980289E+03  0.17213518608E+03 0.  0.
         24    2    5    5    0    0 -0.43855670573E+02  0.98155216268E+02 -0.33125449707E+03  0.35719819106E+03  0.79392943936E+02 0.  0.
          5    1    5    5  501    0  0.36838249081E+02 -0.33833981178E+02 -0.12132128636E+03  0.13131161183E+03  0.47000000000E+01 0. -1.
        -13    1    6    6    0    0 -0.77099889899E+01  0.19822402695E+01 -0.13887300696E+03  0.13910098946E+03  0.00000000000E+00 0.  1.
         14    1    6    6    0    0 -0.36145681583E+02  0.96172975998E+02 -0.19238149011E+03  0.21809720160E+03  0.00000000000E+00 0. -1.
         -5    1    3    3    0  503 -0.15867976420E+02 -0.24099548466E+02 -0.11145413816E+03  0.11522454523E+03  0.47000000000E+01 0.  1.
         13    1    4    4    0    0  0.38446914450E+02 -0.54216606634E+02 -0.37720373411E+01  0.66572020634E+02  0.00000000000E+00 0. -1.
        -14    1    4    4    0    0 -0.15561516539E+02  0.13994920010E+02  0.17545408099E+02  0.27310436255E+02  0.00000000000E+00 0.  1.
<mgrwt>
<rscale>  2 0.18464027E+03</rscale>
<asrwt>0</asrwt>
<pdfrwt beam="1">  1       21 0.11335404E-01 0.18488971E+03</pdfrwt>
<pdfrwt beam="2">  1       21 0.95990255E-01 0.18488971E+03</pdfrwt>
<totfact> 0.58951201E+04</totfact>
</mgrwt>
</event>
<event>
12    1  0.1019868E-001  0.2248822E+03  0.7546771E-02  0.1130802E+00
         21   -1    0    0  501  502  0.00000000000E+00  0.00000000000E+00  0.57311804624E+02  0.57311804624E+02  0.00000000000E+00 0.  1.
         21   -1    0    0  502  503 -0.00000000000E+00 -0.00000000000E+00 -0.15935606003E+04  0.15935606003E+04  0.00000000000E+00 0.  1.
         -6    2    1    2    0  503 -0.54309697508E+02  0.13011980287E+03 -0.13211275955E+04  0.13396664412E+04  0.17160228408E+03 0.  0.
        -24    2    3    3    0    0 -0.10479962359E+02  0.14790053378E+03 -0.87528623511E+03  0.89129850228E+03  0.79389100521E+02 0.  0.
          6    2    1    2  501    0  0.54309697508E+02 -0.13011980287E+03 -0.21512120026E+03  0.31120596375E+03  0.17518936820E+03 0.  0.
         24    2    5    5    0    0 -0.16885977238E+02 -0.13050625381E+03 -0.14795988735E+03  0.21321767160E+03  0.79073565150E+02 0.  0.
          5    1    5    5  501    0  0.71195674747E+02  0.38645094595E+00 -0.67161312917E+02  0.97988292157E+02  0.47000000000E+01 0. -1.
        -13    1    6    6    0    0  0.23788047638E+02 -0.92043956964E+02 -0.11095381733E+03  0.14611198036E+03  0.00000000000E+00 0.  1.
         14    1    6    6    0    0 -0.40674024876E+02 -0.38462296850E+02 -0.37006070019E+02  0.67105691240E+02  0.00000000000E+00 0. -1.
         -5    1    3    3    0  503 -0.43829735149E+02 -0.17780730910E+02 -0.44584136034E+03  0.44836793894E+03  0.47000000000E+01 0.  1.
         11    1    4    4    0    0  0.93195050941E+01  0.15350151840E+02 -0.30288514654E+03  0.30341702710E+03  0.00000000000E+00 0. -1.
        -12    1    4    4    0    0 -0.19799467453E+02  0.13255038194E+03 -0.57240108857E+03  0.58788147518E+03  0.00000000000E+00 0.  1.
<mgrwt>
<rscale>  2 0.22418322E+03</rscale>
<asrwt>0</asrwt>
<pdfrwt beam="1">  1       21 0.88172022E-02 0.22488224E+03</pdfrwt>
<pdfrwt beam="2">  1       21 0.24516313E+00 0.22488224E+03</pdfrwt>
<totfact> 0.69774122E+03</totfact>
</mgrwt>
</event>
<event>
12    1  0.1019868E-001  0.1998552E+03  0.7546771E-02  0.1150231E+00
         21   -1    0    0  503  502  0.00000000000E+00  0.00000000000E+00  0.10921935841E+04  0.10921935841E+04  0.00000000000E+00 0.  1.
         21   -1    0    0  501  503 -0.00000000000E+00 -0.00000000000E+00 -0.36402752637E+02  0.36402752637E+02  0.00000000000E+00 0.  1.
          6    2    1    2  501    0  0.60911771107E+02  0.70087152917E+02  0.56648669926E+03  0.60070732339E+03  0.17697359991E+03 0.  0.
         24    2    3    3    0    0  0.49219022563E+02  0.51193421538E+02  0.15471228216E+03  0.18830708814E+03  0.80500873292E+02 0.  0.
         -6    2    1    2    0  502 -0.60911771107E+02 -0.70087152917E+02  0.48930413223E+03  0.52788901338E+03  0.17500235360E+03 0.  0.
        -24    2    5    5    0    0  0.21610743852E+02  0.89117126833E+01  0.18227154048E+03  0.20025829346E+03  0.79586599097E+02 0.  0.
          5    1    3    3  501    0  0.11692748544E+02  0.18893731378E+02  0.41177441710E+03  0.41240023525E+03  0.47000000000E+01 0. -1.
        -11    1    4    4    0    0  0.53549389725E+02  0.44836174506E+02  0.16279814408E+03  0.17714698812E+03  0.00000000000E+00 0.  1.
         12    1    4    4    0    0 -0.43303671621E+01  0.63572470322E+01 -0.80858619147E+01  0.11160100022E+02  0.00000000000E+00 0. -1.
         -5    1    5    5    0  502 -0.82522514959E+02 -0.78998865600E+02  0.30703259175E+03  0.32763071992E+03  0.47000000000E+01 0.  1.
         11    1    6    6    0    0  0.37208247184E+02 -0.21836647306E+02  0.64930765357E+02  0.77957020941E+02  0.00000000000E+00 0. -1.
        -12    1    6    6    0    0 -0.15597503332E+02  0.30748359990E+02  0.11734077512E+03  0.12230127251E+03  0.00000000000E+00 0.  1.
<mgrwt>
<rscale>  2 0.19941792E+03</rscale>
<asrwt>0</asrwt>
<pdfrwt beam="1">  1       21 0.16802976E+00 0.19985522E+03</pdfrwt>
<pdfrwt beam="2">  1       21 0.56004243E-02 0.19985522E+03</pdfrwt>
<totfact> 0.48659786E+04</totfact>
</mgrwt>
</event>
<event>
12    1  0.1019868E-001  0.1892982E+03  0.7546771E-02  0.1159737E+00
         21   -1    0    0  503  502  0.00000000000E+00  0.00000000000E+00  0.14381148259E+03  0.14381148259E+03  0.00000000000E+00 0. -1.
         21   -1    0    0  501  503 -0.00000000000E+00 -0.00000000000E+00 -0.27564414769E+03  0.27564414769E+03  0.00000000000E+00 0.  1.
          6    2    1    2  501    0 -0.69656330084E+02  0.21867490542E+02 -0.13572117536E+03  0.23292494072E+03  0.17465279586E+03 0.  0.
         24    2    3    3    0    0 -0.15658524502E+02 -0.49101365078E+02 -0.44049562345E+02  0.10494792673E+03  0.80109736863E+02 0.  0.
         -6    2    1    2    0  502  0.69656330084E+02 -0.21867490542E+02  0.38885102575E+01  0.18653068957E+03  0.17160532094E+03 0.  0.
        -24    2    5    5    0    0 -0.21136534416E+02  0.21938998591E+02  0.37356452674E+01  0.85612573739E+02  0.79921742913E+02 0.  0.
          5    1    3    3  501    0 -0.53997805582E+02  0.70968855620E+02 -0.91671613018E+02  0.12797701399E+03  0.47000000000E+01 0. -1.
        -13    1    4    4    0    0 -0.15174745227E+02 -0.39812654826E+01 -0.56093061622E+02  0.58245643010E+02  0.00000000000E+00 0.  1.
         14    1    4    4    0    0 -0.48377927505E+00 -0.45120099596E+02  0.12043499277E+02  0.46702283721E+02  0.00000000000E+00 0. -1.
         -5    1    5    5    0  502  0.90792864501E+02 -0.43806489133E+02  0.15286499008E+00  0.10091811583E+03  0.47000000000E+01 0.  1.
         13    1    6    6    0    0 -0.32178333791E+02  0.28039718827E+02  0.32865495343E+02  0.53868467415E+02  0.00000000000E+00 0. -1.
        -14    1    6    6    0    0  0.11041799375E+02 -0.61007202363E+01 -0.29129850076E+02  0.31744106324E+02  0.00000000000E+00 0.  1.
<mgrwt>
<rscale>  2 0.18859221E+03</rscale>
<asrwt>0</asrwt>
<pdfrwt beam="1">  1       21 0.22124844E-01 0.18929815E+03</pdfrwt>
<pdfrwt beam="2">  1       21 0.42406792E-01 0.18929815E+03</pdfrwt>
<totfact> 0.10231003E+05</totfact>
</mgrwt>
</event>
<event>
12    1  0.1019868E-001  0.1986958E+03  0.7546771E-02  0.1151167E+00
         21   -1    0    0  503  502  0.00000000000E+00  0.00000000000E+00  0.50895072383E+03  0.50895072383E+03  0.00000000000E+00 0.  1.
         21   -1    0    0  501  503 -0.00000000000E+00 -0.00000000000E+00 -0.16373540715E+03  0.16373540715E+03  0.00000000000E+00 0.  1.
          6    2    1    2  501    0 -0.17919256547E+02 -0.94770468062E+02 -0.72524380533E+02  0.21009942454E+03  0.17198674673E+03 0.  0.
         24    2    3    3    0    0 -0.38804367608E+02 -0.79712180883E+02 -0.11094519241E+03  0.16361083818E+03  0.81239521933E+02 0.  0.
         -6    2    1    2    0  502  0.17919256547E+02  0.94770468062E+02  0.41773969721E+03  0.46258670644E+03  0.17371662261E+03 0.  0.
        -24    2    5    5    0    0  0.17124395340E+02 -0.19250054574E+02  0.14804159898E+03  0.16973782804E+03  0.78935452888E+02 0.  0.
          5    1    3    3  501    0  0.20885111061E+02 -0.15058287179E+02  0.38420811879E+02  0.46488586365E+02  0.47000000000E+01 0. -1.
        -13    1    4    4    0    0 -0.40402811991E+02 -0.53049029100E+01 -0.18020762334E+02  0.44556448319E+02  0.00000000000E+00 0.  1.
         14    1    4    4    0    0  0.15984443833E+01 -0.74407277973E+02 -0.92924430078E+02  0.11905438986E+03  0.00000000000E+00 0. -1.
         -5    1    5    5    0  502  0.79486120609E+00  0.11402052264E+03  0.26969809824E+03  0.29284887840E+03  0.47000000000E+01 0.  1.
         13    1    6    6    0    0 -0.31202829984E+02 -0.48756542882E+01  0.44440856220E+02  0.54519522240E+02  0.00000000000E+00 0. -1.
        -14    1    6    6    0    0  0.48327225325E+02 -0.14374400286E+02  0.10360074276E+03  0.11521830580E+03  0.00000000000E+00 0.  1.
<mgrwt>
<rscale>  2 0.19831703E+03</rscale>
<asrwt>0</asrwt>
<pdfrwt beam="1">  1       21 0.78300111E-01 0.19869576E+03</pdfrwt>
<pdfrwt beam="2">  1       21 0.25190063E-01 0.19869576E+03</pdfrwt>
<totfact> 0.21474075E+04</totfact>
</mgrwt>
</event>
<event>
12    1  0.1019868E-001  0.1856508E+03  0.7546771E-02  0.1162469E+00
         21   -1    0    0  501  502  0.00000000000E+00  0.00000000000E+00  0.90496780820E+03  0.90496780820E+03  0.00000000000E+00 0.  1.
         21   -1    0    0  502  503 -0.00000000000E+00 -0.00000000000E+00 -0.66914834012E+02  0.66914834012E+02  0.00000000000E+00 0. -1.
         -6    2    1    2    0  503  0.65427964382E+02  0.20097275705E+02  0.73817979689E+03  0.76116727319E+03  0.17257313301E+03 0.  0.
        -24    2    3    3    0    0 -0.25521174375E+02 -0.17794840969E+02  0.39604881786E+03  0.40510090978E+03  0.79272279323E+02 0.  0.
          6    2    1    2  501    0 -0.65427964382E+02 -0.20097275705E+02  0.99873177305E+02  0.21071536902E+03  0.17245751994E+03 0.  0.
         24    2    5    5    0    0 -0.53931096159E+01  0.92656042992E+01  0.11651983977E+03  0.14168230535E+03  0.79887830941E+02 0.  0.
          5    1    5    5  501    0 -0.60034854766E+02 -0.29362880004E+02 -0.16646662469E+02  0.69033063675E+02  0.47000000000E+01 0. -1.
        -13    1    6    6    0    0 -0.26717917587E+02  0.98986088005E+01  0.11692271447E+03  0.12034430081E+03  0.00000000000E+00 0.  1.
         14    1    6    6    0    0  0.21324807971E+02 -0.63300450128E+00 -0.40287470036E+00  0.21338004539E+02  0.00000000000E+00 0. -1.
         -5    1    3    3    0  503  0.90949138757E+02  0.37892116674E+02  0.34213097903E+03  0.35606636342E+03  0.47000000000E+01 0.  1.
         11    1    4    4    0    0 -0.19465325627E+02  0.23406837133E+02  0.28287369735E+03  0.28450713098E+03  0.00000000000E+00 0. -1.
        -12    1    4    4    0    0 -0.60558487485E+01 -0.41201678102E+02  0.11317512051E+03  0.12059377880E+03  0.00000000000E+00 0.  1.
<mgrwt>
<rscale>  2 0.18562389E+03</rscale>
<asrwt>0</asrwt>
<pdfrwt beam="1">  1       21 0.13922581E+00 0.18565076E+03</pdfrwt>
<pdfrwt beam="2">  1       21 0.10294590E-01 0.18565076E+03</pdfrwt>
<totfact> 0.28101210E+04</totfact>
</mgrwt>
</event>
<event>
12    1  0.1019868E-001  0.2126542E+03  0.7546771E-02  0.1139491E+00
         21   -1    0    0  501  502  0.00000000000E+00  0.00000000000E+00  0.96323433275E+02  0.96323433275E+02  0.00000000000E+00 0.  1.
         21   -1    0    0  502  503 -0.00000000000E+00 -0.00000000000E+00 -0.47258521473E+03  0.47258521473E+03  0.00000000000E+00 0.  1.
         -6    2    1    2    0  503 -0.46989186243E+02 -0.11224610305E+03 -0.16468154139E+03  0.26896433467E+03  0.17439791276E+03 0.  0.
        -24    2    3    3    0    0  0.39505543177E+02 -0.51686558471E+02 -0.10619340123E+03  0.14816802183E+03  0.80277867174E+02 0.  0.
          6    2    1    2  501    0  0.46989186243E+02  0.11224610305E+03 -0.21158024007E+03  0.29994431334E+03  0.17433651896E+03 0.  0.
         24    2    5    5    0    0  0.66266977519E+02  0.53798847762E+02 -0.20523849169E+03  0.23789576251E+03  0.84769847350E+02 0.  0.
          5    1    5    5  501    0 -0.19277791276E+02  0.58447255288E+02 -0.63417483770E+01  0.62048550827E+02  0.47000000000E+01 0. -1.
        -11    1    6    6    0    0  0.86345961604E+01  0.40903686444E+02 -0.26124274020E+02  0.49296506049E+02  0.00000000000E+00 0.  1.
         12    1    6    6    0    0  0.57632381359E+02  0.12895161317E+02 -0.17911421767E+03  0.18859925646E+03  0.00000000000E+00 0. -1.
         -5    1    3    3    0  503 -0.86494729420E+02 -0.60559544579E+02 -0.58488140154E+02  0.12079631284E+03  0.47000000000E+01 0.  1.
         11    1    4    4    0    0  0.12940127040E+02 -0.69516017299E+02 -0.80409768112E+02  0.10707779582E+03  0.00000000000E+00 0. -1.
        -12    1    4    4    0    0  0.26565416136E+02  0.17829458828E+02 -0.25783633121E+02  0.41090226010E+02  0.00000000000E+00 0.  1.
<mgrwt>
<rscale>  2 0.21264160E+03</rscale>
<asrwt>0</asrwt>
<pdfrwt beam="1">  1       21 0.14818990E-01 0.21265419E+03</pdfrwt>
<pdfrwt beam="2">  1       21 0.72705419E-01 0.21265419E+03</pdfrwt>
<totfact> 0.67713128E+04</totfact>
</mgrwt>
</event>
<event>
12    1  0.1019868E-001  0.3642142E+03  0.7546771E-02  0.1057382E+00
         21   -1    0    0  503  502  0.00000000000E+00  0.00000000000E+00  0.36633988528E+03  0.36633988528E+03  0.00000000000E+00 0. -1.
         21   -1    0    0  501  503 -0.00000000000E+00 -0.00000000000E+00 -0.40523168063E+03  0.40523168063E+03  0.00000000000E+00 0. -1.
          6    2    1    2  501    0 -0.22964205946E+03 -0.22349689324E+03 -0.15171629422E+03  0.39028253531E+03  0.16314498667E+03 0.  0.
         24    2    3    3    0    0 -0.21933509379E+03 -0.17916021610E+03 -0.17042212576E+03  0.34084598391E+03  0.83222697623E+02 0.  0.
         -6    2    1    2    0  502  0.22964205946E+03  0.22349689324E+03  0.11282449887E+03  0.38128903059E+03  0.17310580737E+03 0.  0.
        -24    2    5    5    0    0  0.18083135115E+03  0.96152043495E+02  0.29754665262E+02  0.22153333192E+03  0.79034701372E+02 0.  0.
          5    1    3    3  501    0 -0.10306965669E+02 -0.44336677133E+02  0.18705831533E+02  0.49436551395E+02  0.47000000000E+01 0. -1.
        -11    1    4    4    0    0 -0.70085226635E+01 -0.37415089949E+02 -0.35696964941E+02  0.52185071158E+02  0.00000000000E+00 0.  1.
         12    1    4    4    0    0 -0.21232657113E+03 -0.14174512616E+03 -0.13472516082E+03  0.28866091276E+03  0.00000000000E+00 0. -1.
         -5    1    5    5    0  502  0.48810708315E+02  0.12734484974E+03  0.83069833613E+02  0.15975569867E+03  0.47000000000E+01 0.  1.
         11    1    6    6    0    0  0.11539984410E+03  0.91386056925E+02  0.45483936039E+02  0.15406921775E+03  0.00000000000E+00 0. -1.
        -12    1    6    6    0    0  0.65431507046E+02  0.47659865694E+01 -0.15729270777E+02  0.67464114176E+02  0.00000000000E+00 0.  1.
<mgrwt>
<rscale>  2 0.36305175E+03</rscale>
<asrwt>0</asrwt>
<pdfrwt beam="1">  1       21 0.56359983E-01 0.36421416E+03</pdfrwt>
<pdfrwt beam="2">  1       21 0.62343335E-01 0.36421416E+03</pdfrwt>
<totfact> 0.64400113E+03</totfact>
</mgrwt>
</event>
<event>
12    1  0.1019868E-001  0.2088768E+03  0.7546771E-02  0.1142813E+00
         21   -1    0    0  501  502  0.00000000000E+00  0.00000000000E+00  0.47443392537E+03  0.47443392537E+03  0.00000000000E+00 0. -1.
         21   -1    0    0  502  503 -0.00000000000E+00 -0.00000000000E+00 -0.20750756313E+03  0.20750756313E+03  0.00000000000E+00 0.  1.
         -6    2    1    2    0  503 -0.57913853645E+02  0.10175948279E+03 -0.12157661898E+03  0.24168243488E+03  0.17297548458E+03 0.  0.
        -24    2    3    3    0    0 -0.18371194054E+02 -0.15562034749E+02 -0.50887601869E+02  0.99039567744E+02  0.81483803658E+02 0.  0.
          6    2    1    2  501    0  0.57913853645E+02 -0.10175948279E+03  0.38850298122E+03  0.44025905361E+03  0.17083460156E+03 0.  0.
         24    2    5    5    0    0  0.95165724909E+02 -0.58843113928E+02  0.32163017313E+03  0.35237515810E+03  0.90571830742E+02 0.  0.
          5    1    5    5  501    0 -0.37251871264E+02 -0.42916368863E+02  0.66872808090E+02  0.87883895515E+02  0.47000000000E+01 0. -1.
        -13    1    6    6    0    0  0.72859253129E+02 -0.12099954244E+02  0.97371125698E+02  0.12221299349E+03  0.00000000000E+00 0.  1.
         14    1    6    6    0    0  0.22306471779E+02 -0.46743159684E+02  0.22425904743E+03  0.23016216460E+03  0.00000000000E+00 0. -1.
         -5    1    3    3    0  503 -0.39542659590E+02  0.11732151754E+03 -0.70689017109E+02  0.14264286714E+03  0.47000000000E+01 0.  1.
         11    1    4    4    0    0 -0.12155706834E+01  0.32801757936E+02 -0.26681951372E+02  0.42300821089E+02  0.00000000000E+00 0. -1.
        -12    1    4    4    0    0 -0.17155623371E+02 -0.48363792685E+02 -0.24205650497E+02  0.56738746656E+02  0.00000000000E+00 0.  1.
<mgrwt>
<rscale>  2 0.20843305E+03</rscale>
<asrwt>0</asrwt>
<pdfrwt beam="1">  1       21 0.72989834E-01 0.20887682E+03</pdfrwt>
<pdfrwt beam="2">  1       21 0.31924241E-01 0.20887682E+03</pdfrwt>
<totfact> 0.15776516E+04</totfact>
</mgrwt>
</event>
<event>
12    1  0.1019868E-001  0.1977508E+03  0.7546771E-02  0.1153925E+00
         21   -1    0    0  503  502  0.00000000000E+00  0.00000000000E+00  0.96484021814E+02  0.96484021814E+02  0.00000000000E+00 0.  1.
         21   -1    0    0  501  503 -0.00000000000E+00 -0.00000000000E+00 -0.38462725463E+03  0.38462725463E+03  0.00000000000E+00 0.  1.
          6    2    1    2  501    0  0.37379189996E+02 -0.61297720418E+02 -0.13464852606E+03  0.23077949570E+03  0.17313097844E+03 0.  0.
         24    2    3    3    0    0 -0.65393787072E+01 -0.85778388980E+02 -0.41796322049E+02  0.12508292244E+03  0.80610851998E+02 0.  0.
         -6    2    1    2    0  502 -0.37379189996E+02  0.61297720418E+02 -0.15349470676E+03  0.25033178074E+03  0.18425732299E+03 0.  0.
        -24    2    5    5    0    0  0.26632623635E+02  0.63251741078E+02 -0.15250867949E+03  0.18611034561E+03  0.81658337184E+02 0.  0.
          5    1    3    3  501    0  0.43918568703E+02  0.24480668561E+02 -0.92852204007E+02  0.10569657326E+03  0.47000000000E+01 0. -1.
        -11    1    4    4    0    0  0.36148210534E+02 -0.31240792375E+02 -0.97107664543E+01  0.48754273845E+02  0.00000000000E+00 0.  1.
         12    1    4    4    0    0 -0.42687589242E+02 -0.54537596605E+02 -0.32085555595E+02  0.76328648596E+02  0.00000000000E+00 0. -1.
         -5    1    5    5    0  502 -0.64011813631E+02 -0.19540206595E+01 -0.98602727085E+00  0.64221435135E+02  0.47000000000E+01 0.  1.
         11    1    6    6    0    0 -0.61246389573E+01  0.66258275518E+02 -0.13063864774E+03  0.14660875335E+03  0.00000000000E+00 0. -1.
        -12    1    6    6    0    0  0.32757262593E+02 -0.30065344399E+01 -0.21870031753E+02  0.39501592256E+02  0.00000000000E+00 0.  1.
<mgrwt>
<rscale>  2 0.19511777E+03</rscale>
<asrwt>0</asrwt>
<pdfrwt beam="1">  1       21 0.14843696E-01 0.19775079E+03</pdfrwt>
<pdfrwt beam="2">  1       21 0.59173424E-01 0.19775079E+03</pdfrwt>
<totfact> 0.10651769E+05</totfact>
</mgrwt>
</event>
<event>
12    1  0.1019868E-001  0.1937321E+03  0.7546771E-02  0.1155503E+00
         21   -1    0    0  501  502  0.00000000000E+00  0.00000000000E+00  0.14232763285E+03  0.14232763285E+03  0.00000000000E+00 0. -1.
         21   -1    0    0  502  503 -0.00000000000E+00 -0.00000000000E+00 -0.27128233185E+03  0.27128233185E+03  0.00000000000E+00 0. -1.
         -6    2    1    2    0  503  0.13740116111E+02 -0.84878808174E+02 -0.10410387740E+03  0.21993120368E+03  0.17360562835E+03 0.  0.
        -24    2    3    3    0    0  0.57356083175E+02 -0.50290850721E+02 -0.11365369548E+03  0.16325697312E+03  0.88976327373E+02 0.  0.
          6    2    1    2  501    0 -0.13740116111E+02  0.84878808174E+02 -0.24850821603E+02  0.19367876102E+03  0.17175766728E+03 0.  0.
         24    2    5    5    0    0  0.84224102306E+01  0.12339068558E+03 -0.15216243736E+02  0.14797036611E+03  0.79796596998E+02 0.  0.
          5    1    5    5  501    0 -0.22162526342E+02 -0.38511877402E+02 -0.96345778673E+01  0.45708394914E+02  0.47000000000E+01 0. -1.
        -13    1    6    6    0    0 -0.68539851494E+01 -0.78207218455E+01 -0.11937804432E+02  0.15831992208E+02  0.00000000000E+00 0.  1.
         14    1    6    6    0    0  0.15276395380E+02  0.13121140742E+03 -0.32784393042E+01  0.13213837390E+03  0.00000000000E+00 0. -1.
         -5    1    3    3    0  503 -0.43615967064E+02 -0.34587957453E+02  0.95498180855E+01  0.56674230556E+02  0.47000000000E+01 0.  1.
         13    1    4    4    0    0  0.58168667424E+02 -0.69584515791E+02 -0.66982913094E+02  0.11274887740E+03  0.00000000000E+00 0. -1.
        -14    1    4    4    0    0 -0.81258424921E+00  0.19293665070E+02 -0.46670782389E+02  0.50508095725E+02  0.00000000000E+00 0.  1.
<mgrwt>
<rscale>  2 0.19331719E+03</rscale>
<asrwt>0</asrwt>
<pdfrwt beam="1">  1       21 0.21896559E-01 0.19373208E+03</pdfrwt>
<pdfrwt beam="2">  1       21 0.41735743E-01 0.19373208E+03</pdfrwt>
<totfact> 0.10759618E+05</totfact>
</mgrwt>
</event>
<event>
12    1  0.1019868E-001  0.1870542E+03  0.7546771E-02  0.1161646E+00
         21   -1    0    0  501  502  0.00000000000E+00  0.00000000000E+00  0.49344435409E+03  0.49344435409E+03  0.00000000000E+00 0.  1.
         21   -1    0    0  502  503 -0.00000000000E+00 -0.00000000000E+00 -0.12483701817E+03  0.12483701817E+03  0.00000000000E+00 0.  1.
         -6    2    1    2    0  503  0.40364879090E+02  0.51781822560E+02 -0.21014641966E+02  0.18608401452E+03  0.17284375798E+03 0.  0.
        -24    2    3    3    0    0  0.69536169324E+02 -0.19491995756E+02 -0.58362177270E+01  0.10744944252E+03  0.79347996311E+02 0.  0.
          6    2    1    2  501    0 -0.40364879090E+02 -0.51781822560E+02  0.38962197788E+03  0.43219735774E+03  0.17515304672E+03 0.  0.
         24    2    5    5    0    0 -0.43915126217E+02  0.66347363663E+01  0.11242022034E+03  0.14884598048E+03  0.86857710802E+02 0.  0.
          5    1    5    5  501    0  0.35502471276E+01 -0.58416558926E+02  0.27720175754E+03  0.28335137726E+03  0.47000000000E+01 0. -1.
        -11    1    6    6    0    0 -0.42181684474E+02 -0.29311913231E+02  0.96860838867E+02  0.10963806305E+03  0.00000000000E+00 0.  1.
         12    1    6    6    0    0 -0.17334417431E+01  0.35946649597E+02  0.15559381473E+02  0.39207917432E+02  0.00000000000E+00 0. -1.
         -5    1    3    3    0  503 -0.29171290235E+02  0.71273818316E+02 -0.15178424239E+02  0.78634572000E+02  0.47000000000E+01 0.  1.
         13    1    4    4    0    0  0.25707293396E+02 -0.39935755811E+02  0.21235429104E+02  0.52025695336E+02  0.00000000000E+00 0. -1.
        -14    1    4    4    0    0  0.43828875928E+02  0.20443760055E+02 -0.27071646831E+02  0.55423747189E+02  0.00000000000E+00 0.  1.
<mgrwt>
<rscale>  2 0.18651169E+03</rscale>
<asrwt>0</asrwt>
<pdfrwt beam="1">  1       21 0.75914515E-01 0.18705419E+03</pdfrwt>
<pdfrwt beam="2">  1       21 0.19205695E-01 0.18705419E+03</pdfrwt>
<totfact> 0.38633455E+04</totfact>
</mgrwt>
</event>
<event>
12    1  0.1019868E-001  0.1759743E+03  0.7546771E-02  0.1172191E+00
         21   -1    0    0  503  502  0.00000000000E+00  0.00000000000E+00  0.97826588960E+02  0.97826588960E+02  0.00000000000E+00 0.  1.
         21   -1    0    0  501  503 -0.00000000000E+00 -0.00000000000E+00 -0.53478791174E+03  0.53478791174E+03  0.00000000000E+00 0.  1.
          6    2    1    2  501    0  0.25349674490E+02  0.25119120752E+02 -0.14354101489E+02  0.17483308782E+03  0.17054909013E+03 0.  0.
         24    2    3    3    0    0 -0.23653092092E+02 -0.93664187349E+01  0.40760438214E+02  0.93284169664E+02  0.79958266746E+02 0.  0.
         -6    2    1    2    0  502 -0.25349674490E+02 -0.25119120752E+02 -0.42260722129E+03  0.45778141287E+03  0.17231767833E+03 0.  0.
        -24    2    5    5    0    0 -0.53045975189E+02 -0.61123317344E+02 -0.20016787635E+03  0.23070270533E+03  0.81281142435E+02 0.  0.
          5    1    3    3  501    0  0.49002766582E+02  0.34485539487E+02 -0.55114539703E+02  0.81548918160E+02  0.47000000000E+01 0. -1.
        -11    1    4    4    0    0 -0.13015280609E+02 -0.19324573899E+02  0.62732530174E+02  0.66919406959E+02  0.00000000000E+00 0.  1.
         12    1    4    4    0    0 -0.10637811483E+02  0.99581551640E+01 -0.21972091959E+02  0.26364762705E+02  0.00000000000E+00 0. -1.
         -5    1    5    5    0  502  0.27696300699E+02  0.36004196592E+02 -0.22243934494E+03  0.22707870755E+03  0.47000000000E+01 0.  1.
         11    1    6    6    0    0  0.10633852457E+02  0.11066366523E+02 -0.12528719023E+02  0.19811917788E+02  0.00000000000E+00 0. -1.
        -12    1    6    6    0    0 -0.63679827647E+02 -0.72189683867E+02 -0.18763915733E+03  0.21089078754E+03  0.00000000000E+00 0.  1.
<mgrwt>
<rscale>  2 0.17553984E+03</rscale>
<asrwt>0</asrwt>
<pdfrwt beam="1">  1       21 0.15050244E-01 0.17597431E+03</pdfrwt>
<pdfrwt beam="2">  1       21 0.82275063E-01 0.17597431E+03</pdfrwt>
<totfact> 0.50734261E+04</totfact>
</mgrwt>
</event>
<event>
12    1  0.1019868E-001  0.1832572E+03  0.7546771E-02  0.1164689E+00
         21   -1    0    0  503  502  0.00000000000E+00  0.00000000000E+00  0.86646701417E+03  0.86646701417E+03  0.00000000000E+00 0. -1.
         21   -1    0    0  501  503 -0.00000000000E+00 -0.00000000000E+00 -0.10780094213E+03  0.10780094213E+03  0.00000000000E+00 0. -1.
          6    2    1    2  501    0  0.58746145301E+02 -0.48852856046E+01 -0.10515768910E+02  0.18355864686E+03  0.17351720329E+03 0.  0.
         24    2    3    3    0    0 -0.42698269642E+00 -0.43369584400E+02 -0.47744017141E+02  0.10361783878E+03  0.81092923085E+02 0.  0.
         -6    2    1    2    0  502 -0.58746145301E+02  0.48852856046E+01  0.76918184095E+03  0.79070930943E+03  0.17350945788E+03 0.  0.
        -24    2    5    5    0    0 -0.46759646550E+02  0.21028924877E+02  0.76162144570E+03  0.76871970240E+03  0.90741798931E+02 0.  0.
          5    1    3    3  501    0  0.59173127997E+02  0.38484298796E+02  0.37228248231E+02  0.79940808084E+02  0.47000000000E+01 0. -1.
        -11    1    4    4    0    0 -0.83216916242E+01 -0.25618501746E+02  0.19738750643E+02  0.33394257891E+02  0.00000000000E+00 0.  1.
         12    1    4    4    0    0  0.78947089277E+01 -0.17751082654E+02 -0.67482767784E+02  0.70223580884E+02  0.00000000000E+00 0. -1.
         -5    1    5    5    0  502 -0.11986498751E+02 -0.16143639273E+02  0.75603952474E+01  0.21989607035E+02  0.47000000000E+01 0.  1.
         13    1    6    6    0    0 -0.20757995557E+02 -0.77201495249E+01  0.65323135161E+03  0.65360668128E+03  0.00000000000E+00 0. -1.
        -14    1    6    6    0    0 -0.26001650993E+02  0.28749074402E+02  0.10839009409E+03  0.11511302112E+03  0.00000000000E+00 0.  1.
<mgrwt>
<rscale>  2 0.18325535E+03</rscale>
<asrwt>0</asrwt>
<pdfrwt beam="1">  1       21 0.13330261E+00 0.18325718E+03</pdfrwt>
<pdfrwt beam="2">  1       21 0.16584761E-01 0.18325718E+03</pdfrwt>
<totfact> 0.13331861E+04</totfact>
</mgrwt>
</event>
<event>
12    1  0.1019868E-001  0.2181165E+03  0.7546771E-02  0.1135466E+00
         21   -1    0    0  501  502  0.00000000000E+00  0.00000000000E+00  0.59754829239E+02  0.59754829239E+02  0.00000000000E+00 0. -1.
         21   -1    0    0  502  503 -0.00000000000E+00 -0.00000000000E+00 -0.82266233498E+03  0.82266233498E+03  0.00000000000E+00 0. -1.
         -6    2    1    2    0  503 -0.10279894703E+03  0.84065813431E+02 -0.29673173948E+03  0.36773797011E+03  0.17189184084E+03 0.  0.
        -24    2    3    3    0    0 -0.26798281413E+02  0.16336805285E+02 -0.45185449598E+02  0.96332469666E+02  0.79077055857E+02 0.  0.
          6    2    1    2  501    0  0.10279894703E+03 -0.84065813431E+02 -0.46617576626E+03  0.51467919411E+03  0.17303220308E+03 0.  0.
         24    2    5    5    0    0 -0.28951536834E+00  0.86399560948E+00 -0.12633965866E+03  0.14950666835E+03  0.79935625486E+02 0.  0.
          5    1    5    5  501    0  0.10308846239E+03 -0.84929809041E+02 -0.33983610760E+03  0.36517252576E+03  0.47000000000E+01 0. -1.
        -13    1    6    6    0    0 -0.19807117065E+02 -0.53376367929E+01  0.99294160275E+00  0.20537725921E+02  0.00000000000E+00 0.  1.
         14    1    6    6    0    0  0.19517601697E+02  0.62016324024E+01 -0.12733260026E+03  0.12896894243E+03  0.00000000000E+00 0. -1.
         -5    1    3    3    0  503 -0.76000665614E+02  0.67729008146E+02 -0.25154628988E+03  0.27140550044E+03  0.47000000000E+01 0.  1.
         11    1    4    4    0    0 -0.32347261406E+02  0.15945754707E+02 -0.65770448938E+02  0.75009095230E+02  0.00000000000E+00 0. -1.
        -12    1    4    4    0    0  0.55489799930E+01  0.39105057854E+00  0.20584999340E+02  0.21323374437E+02  0.00000000000E+00 0.  1.
<mgrwt>
<rscale>  2 0.21789031E+03</rscale>
<asrwt>0</asrwt>
<pdfrwt beam="1">  1       21 0.91930513E-02 0.21811655E+03</pdfrwt>
<pdfrwt beam="2">  1       21 0.12656343E+00 0.21811655E+03</pdfrwt>
<totfact> 0.42919624E+04</totfact>
</mgrwt>
</event>
<event>
12    1  0.1019868E-001  0.1873288E+03  0.7546771E-02  0.1160951E+00
         21   -1    0    0  503  502  0.00000000000E+00  0.00000000000E+00  0.24006786725E+03  0.24006786725E+03  0.00000000000E+00 0.  1.
         21   -1    0    0  501  503 -0.00000000000E+00 -0.00000000000E+00 -0.16963988506E+03  0.16963988506E+03  0.00000000000E+00 0.  1.
          6    2    1    2  501    0  0.16963201077E+02  0.66342488610E+02  0.11174259866E+03  0.21812493000E+03  0.17436456276E+03 0.  0.
         24    2    3    3    0    0  0.53750192841E+02  0.46088225013E+02  0.13446062528E+03  0.17014872037E+03  0.76535740522E+02 0.  0.
         -6    2    1    2    0  502 -0.16963201077E+02 -0.66342488610E+02 -0.41314616469E+02  0.19158282231E+03  0.17409194205E+03 0.  0.
        -24    2    5    5    0    0 -0.16240991554E+02 -0.49324363338E+02 -0.95447321598E+02  0.13463918405E+03  0.79503811575E+02 0.  0.
          5    1    3    3  501    0 -0.36786991764E+02  0.20254263596E+02 -0.22718026619E+02  0.47976209629E+02  0.47000000000E+01 0. -1.
        -13    1    4    4    0    0  0.51252744521E+02  0.17167591724E+02  0.12998785739E+03  0.14077788567E+03  0.00000000000E+00 0.  1.
         14    1    4    4    0    0  0.24974483205E+01  0.28920633289E+02  0.44727678885E+01  0.29370834693E+02  0.00000000000E+00 0. -1.
         -5    1    5    5    0  502 -0.72220952287E+00 -0.17018125272E+02  0.54132705129E+02  0.56943638266E+02  0.47000000000E+01 0.  1.
         11    1    6    6    0    0  0.22676291518E+02 -0.48673863891E+02 -0.40290882821E+02  0.67132067312E+02  0.00000000000E+00 0. -1.
        -12    1    6    6    0    0 -0.38917283072E+02 -0.65049944719E+00 -0.55156438777E+02  0.67507116734E+02  0.00000000000E+00 0.  1.
<mgrwt>
<rscale>  2 0.18726533E+03</rscale>
<asrwt>0</asrwt>
<pdfrwt beam="1">  1       21 0.36933518E-01 0.18732879E+03</pdfrwt>
<pdfrwt beam="2">  1       21 0.26098444E-01 0.18732879E+03</pdfrwt>
<totfact> 0.98830963E+04</totfact>
</mgrwt>
</event>
<event>
12    1  0.1019868E-001  0.1807119E+03  0.7546771E-02  0.1167267E+00
         21   -1    0    0  501  502  0.00000000000E+00  0.00000000000E+00  0.21144490183E+04  0.21144490183E+04  0.00000000000E+00 0.  1.
         21   -1    0    0  502  503 -0.00000000000E+00 -0.00000000000E+00 -0.45807156743E+02  0.45807156743E+02  0.00000000000E+00 0.  1.
         -6    2    1    2    0  503 -0.20661853481E+02 -0.45894521895E+02  0.15356482595E+03  0.23667180309E+03  0.17291086514E+03 0.  0.
        -24    2    3    3    0    0  0.47741881717E+02 -0.32517075116E+02  0.12852439681E+03  0.16246169487E+03  0.80861822148E+02 0.  0.
          6    2    1    2  501    0  0.20661853481E+02  0.45894521895E+02  0.19150770357E+04  0.19235843720E+04  0.17356141379E+03 0.  0.
         24    2    5    5    0    0 -0.46895850980E+02  0.56040814359E+02  0.13721878245E+04  0.13763935677E+04  0.78867191334E+02 0.  0.
          5    1    5    5  501    0  0.67557704460E+02 -0.10146292465E+02  0.54288921120E+03  0.54719080431E+03  0.47000000000E+01 0. -1.
        -13    1    6    6    0    0 -0.42883478421E+01  0.58236025543E+02  0.10128464995E+04  0.10145283910E+04  0.00000000000E+00 0.  1.
         14    1    6    6    0    0 -0.42607503138E+02 -0.21952111832E+01  0.35934132491E+03  0.36186517664E+03  0.00000000000E+00 0. -1.
         -5    1    3    3    0  503 -0.68403735198E+02 -0.13377446778E+02  0.25040429138E+02  0.74210108224E+02  0.47000000000E+01 0.  1.
         11    1    4    4    0    0  0.42696695948E+02 -0.54358714431E+02  0.64177740079E+02  0.94322107701E+02  0.00000000000E+00 0. -1.
        -12    1    4    4    0    0  0.50451857692E+01  0.21841639314E+02  0.64346656729E+02  0.68139587170E+02  0.00000000000E+00 0.  1.
<mgrwt>
<rscale>  2 0.18055550E+03</rscale>
<asrwt>0</asrwt>
<pdfrwt beam="1">  1       21 0.32529977E+00 0.18071188E+03</pdfrwt>
<pdfrwt beam="2">  1       21 0.70472565E-02 0.18071188E+03</pdfrwt>
<totfact> 0.37031293E+03</totfact>
</mgrwt>
</event>
<event>
12    1  0.1019868E-001  0.1971956E+03  0.7546771E-02  0.1152233E+00
         21   -1    0    0  501  502  0.00000000000E+00  0.00000000000E+00  0.18471664971E+03  0.18471664971E+03  0.00000000000E+00 0.  1.
         21   -1    0    0  502  503 -0.00000000000E+00 -0.00000000000E+00 -0.21155544393E+03  0.21155544393E+03  0.00000000000E+00 0.  1.
         -6    2    1    2    0  503 -0.41860648899E+02  0.83604933447E+02 -0.30429265258E+02  0.19904385792E+03  0.17306189172E+03 0.  0.
        -24    2    3    3    0    0 -0.14408199566E+02  0.16618522070E+02  0.45058385564E+02  0.94347670257E+02  0.79921544547E+02 0.  0.
          6    2    1    2  501    0  0.41860648899E+02 -0.83604933447E+02  0.35904710357E+01  0.19722823572E+03  0.17362023690E+03 0.  0.
         24    2    5    5    0    0  0.58671565890E+02 -0.61646358195E+02 -0.56213154381E+02  0.13117258062E+03  0.82484550429E+02 0.  0.
          5    1    5    5  501    0 -0.16810916991E+02 -0.21958575252E+02  0.59803625417E+02  0.66055655096E+02  0.47000000000E+01 0. -1.
        -13    1    6    6    0    0 -0.16412740214E+02 -0.34425380263E+02 -0.12547234211E+02  0.40148697786E+02  0.00000000000E+00 0.  1.
         14    1    6    6    0    0  0.75084306104E+02 -0.27220977933E+02 -0.43665920170E+02  0.91023882838E+02  0.00000000000E+00 0. -1.
         -5    1    3    3    0  503 -0.27452449333E+02  0.66986411377E+02 -0.75487650822E+02  0.10469618766E+03  0.47000000000E+01 0.  1.
         11    1    4    4    0    0 -0.41198295670E+02  0.29459944775E+02  0.39250684401E+02  0.64076549050E+02  0.00000000000E+00 0. -1.
        -12    1    4    4    0    0  0.26790096103E+02 -0.12841422705E+02  0.58077011634E+01  0.30271121207E+02  0.00000000000E+00 0.  1.
<mgrwt>
<rscale>  2 0.19707258E+03</rscale>
<asrwt>0</asrwt>
<pdfrwt beam="1">  1       21 0.28417946E-01 0.19719555E+03</pdfrwt>
<pdfrwt beam="2">  1       21 0.32546991E-01 0.19719555E+03</pdfrwt>
<totfact> 0.10736303E+05</totfact>
</mgrwt>
</event>
<event>
12    1  0.1019868E-001  0.1927296E+03  0.7546771E-02  0.1157307E+00
         21   -1    0    0  501  502  0.00000000000E+00  0.00000000000E+00  0.10922982365E+04  0.10922982365E+04  0.00000000000E+00 0.  1.
         21   -1    0    0  502  503 -0.00000000000E+00 -0.00000000000E+00 -0.60770737815E+02  0.60770737815E+02  0.00000000000E+00 0.  1.
         -6    2    1    2    0  503  0.70526546449E+02 -0.77829720809E+01  0.13030403401E+03  0.23264534789E+03  0.17919304732E+03 0.  0.
        -24    2    3    3    0    0  0.98533477512E+02 -0.53227268715E+02  0.78963479898E+02  0.15843271567E+03  0.79521732332E+02 0.  0.
          6    2    1    2  501    0 -0.70526546449E+02  0.77829720809E+01  0.90122346467E+03  0.92042362642E+03  0.17303569109E+03 0.  0.
         24    2    5    5    0    0  0.23682502304E+02 -0.85057074159E+01  0.54160701271E+03  0.54828554926E+03  0.81521036204E+02 0.  0.
          5    1    5    5  501    0 -0.94209048754E+02  0.16288679497E+02  0.35961645197E+03  0.37213807716E+03  0.47000000000E+01 0. -1.
        -11    1    6    6    0    0 -0.16523319980E+01  0.27576145460E+02  0.37259816542E+03  0.37362088656E+03  0.00000000000E+00 0.  1.
         12    1    6    6    0    0  0.25334834302E+02 -0.36081852876E+02  0.16900884729E+03  0.17466466270E+03  0.00000000000E+00 0. -1.
         -5    1    3    3    0  503 -0.28006931062E+02  0.45444296634E+02  0.51340554114E+02  0.74212632219E+02  0.47000000000E+01 0.  1.
         11    1    4    4    0    0 -0.71625466664E+01  0.11018849308E+02  0.37372226509E+01  0.13663233437E+02  0.00000000000E+00 0. -1.
        -12    1    4    4    0    0  0.10569602418E+03 -0.64246118022E+02  0.75226257247E+02  0.14476948224E+03  0.00000000000E+00 0.  1.
<mgrwt>
<rscale>  2 0.19128571E+03</rscale>
<asrwt>0</asrwt>
<pdfrwt beam="1">  1       21 0.16804587E+00 0.19272965E+03</pdfrwt>
<pdfrwt beam="2">  1       21 0.93493451E-02 0.19272965E+03</pdfrwt>
<totfact> 0.20123450E+04</totfact>
</mgrwt>
</event>
<event>
12    1  0.1019868E-001  0.1968790E+03  0.7546771E-02  0.1152455E+00
         21   -1    0    0  503  502  0.00000000000E+00  0.00000000000E+00  0.13379619129E+03  0.13379619129E+03  0.00000000000E+00 0.  1.
         21   -1    0    0  501  503 -0.00000000000E+00 -0.00000000000E+00 -0.10930400692E+04  0.10930400692E+04  0.00000000000E+00 0.  1.
          6    2    1    2  501    0 -0.84894402603E+02 -0.39876146063E+02 -0.10057108975E+04  0.10248003446E+04  0.17310161860E+03 0.  0.
         24    2    3    3    0    0 -0.70808377199E+02 -0.14231556925E+02 -0.97920612645E+03  0.98504290566E+03  0.79047608486E+02 0.  0.
         -6    2    1    2    0  502  0.84894402603E+02  0.39876146063E+02  0.46467019560E+02  0.20203591589E+03  0.17280671511E+03 0.  0.
        -24    2    5    5    0    0  0.11773320346E+03  0.35315383021E+02  0.68214506296E+02  0.16210809877E+03  0.80731241434E+02 0.  0.
          5    1    3    3  501    0 -0.14086025404E+02 -0.25644589138E+02 -0.26504771012E+02  0.39757438929E+02  0.47000000000E+01 0. -1.
        -13    1    4    4    0    0 -0.60275031978E+02 -0.33347849009E+02 -0.90694995166E+03  0.90956218772E+03  0.00000000000E+00 0.  1.
         14    1    4    4    0    0 -0.10533345221E+02  0.19116292083E+02 -0.72256174794E+02  0.75480717938E+02  0.00000000000E+00 0. -1.
         -5    1    5    5    0  502 -0.32838800853E+02  0.45607630423E+01 -0.21747486736E+02  0.39927817125E+02  0.47000000000E+01 0.  1.
         11    1    6    6    0    0  0.45027244881E+02  0.37277755980E+02 -0.52985167091E+01  0.58695469602E+02  0.00000000000E+00 0. -1.
        -12    1    6    6    0    0  0.72705958575E+02 -0.19623729593E+01  0.73513023005E+02  0.10341262917E+03  0.00000000000E+00 0.  1.
<mgrwt>
<rscale>  2 0.19681415E+03</rscale>
<asrwt>0</asrwt>
<pdfrwt beam="1">  1       21 0.20584029E-01 0.19687899E+03</pdfrwt>
<pdfrwt beam="2">  1       21 0.16816001E+00 0.19687899E+03</pdfrwt>
<totfact> 0.47912049E+03</totfact>
</mgrwt>
</event>
<event>
12    1  0.1019868E-001  0.2562198E+03  0.7546771E-02  0.1109472E+00
         21   -1    0    0  503  502  0.00000000000E+00  0.00000000000E+00  0.62035872257E+02  0.62035872257E+02  0.00000000000E+00 0. -1.
         21   -1    0    0  501  503 -0.00000000000E+00 -0.00000000000E+00 -0.14224338281E+04  0.14224338281E+04  0.00000000000E+00 0.  1.
          6    2    1    2  501    0 -0.17564896673E+03 -0.69804443836E+02 -0.10560433171E+04  0.10866250713E+04  0.17263064077E+03 0.  0.
         24    2    3    3    0    0 -0.37392161892E+02  0.10421268861E+02 -0.25343851548E+03  0.26824394578E+03  0.78847680375E+02 0.  0.
         -6    2    1    2    0  502  0.17564896673E+03  0.69804443836E+02 -0.30435463877E+03  0.39784462906E+03  0.17298376468E+03 0.  0.
        -24    2    5    5    0    0  0.15634443379E+03  0.34831640314E+02 -0.30877758083E+03  0.35737965168E+03  0.81974361002E+02 0.  0.
          5    1    3    3  501    0 -0.13825680484E+03 -0.80225712697E+02 -0.80260480159E+03  0.81838112551E+03  0.47000000000E+01 0. -1.
        -13    1    4    4    0    0 -0.22154941204E+02 -0.18759088404E+02 -0.21780825967E+03  0.21973434597E+03  0.00000000000E+00 0.  1.
         14    1    4    4    0    0 -0.15237220688E+02  0.29180357265E+02 -0.35630255814E+02  0.48509599810E+02  0.00000000000E+00 0. -1.
         -5    1    5    5    0  502  0.19304532935E+02  0.34972803523E+02  0.44229420692E+01  0.40464977383E+02  0.47000000000E+01 0.  1.
         13    1    6    6    0    0  0.30197039271E+02  0.14273842435E+02 -0.14246365321E+02  0.36312018444E+02  0.00000000000E+00 0. -1.
        -14    1    6    6    0    0  0.12614739452E+03  0.20557797879E+02 -0.29453121551E+03  0.32106763323E+03  0.00000000000E+00 0.  1.
<mgrwt>
<rscale>  2 0.25616024E+03</rscale>
<asrwt>0</asrwt>
<pdfrwt beam="1">  1       21 0.95439805E-02 0.25621983E+03</pdfrwt>
<pdfrwt beam="2">  1       21 0.21883597E+00 0.25621983E+03</pdfrwt>
<totfact> 0.85666938E+03</totfact>
</mgrwt>
</event>
<event>
12    1  0.1019868E-001  0.4380457E+03  0.7546771E-02  0.1031426E+00
         21   -1    0    0  501  502  0.00000000000E+00  0.00000000000E+00  0.27745214966E+04  0.27745214966E+04  0.00000000000E+00 0. -1.
         21   -1    0    0  502  503 -0.00000000000E+00 -0.00000000000E+00 -0.91181791174E+02  0.91181791174E+02  0.00000000000E+00 0.  1.
         -6    2    1    2    0  503  0.11673786762E+03  0.38498061039E+03  0.63613074938E+03  0.77236412199E+03  0.17333841614E+03 0.  0.
        -24    2    3    3    0    0  0.89181097251E+02  0.34748508197E+03  0.62368011099E+03  0.72396578895E+03  0.80314584141E+02 0.  0.
          6    2    1    2  501    0 -0.11673786762E+03 -0.38498061039E+03  0.20472089560E+04  0.20933391657E+04  0.17078218058E+03 0.  0.
         24    2    5    5    0    0 -0.13576246654E+03 -0.21945135869E+03  0.12828347836E+04  0.13110017487E+04  0.80437287194E+02 0.  0.
          5    1    5    5  501    0  0.19024598919E+02 -0.16552925169E+03  0.76437417244E+03  0.78233741699E+03  0.47000000000E+01 0. -1.
        -11    1    6    6    0    0 -0.63473303186E+02 -0.13389678086E+03  0.90006304420E+03  0.91217908970E+03  0.00000000000E+00 0.  1.
         12    1    6    6    0    0 -0.72289163350E+02 -0.85554577829E+02  0.38277173936E+03  0.39882265905E+03  0.00000000000E+00 0. -1.
         -5    1    3    3    0  503  0.27556770366E+02  0.37495528417E+02  0.12450638391E+02  0.48398333035E+02  0.47000000000E+01 0.  1.
         13    1    4    4    0    0 -0.52508048698E+01  0.38718420269E+02  0.11506247636E+03  0.12151568000E+03  0.00000000000E+00 0. -1.
        -14    1    4    4    0    0  0.94431902120E+02  0.30876666170E+03  0.50861763464E+03  0.60245010896E+03  0.00000000000E+00 0.  1.
<mgrwt>
<rscale>  2 0.43779415E+03</rscale>
<asrwt>0</asrwt>
<pdfrwt beam="1">  1       21 0.42684940E+00 0.43804567E+03</pdfrwt>
<pdfrwt beam="2">  1       21 0.14027970E-01 0.43804567E+03</pdfrwt>
<totfact> 0.20005104E+02</totfact>
</mgrwt>
</event>
<event>
12    1  0.1019868E-001  0.2088436E+03  0.7546771E-02  0.1142566E+00
         21   -1    0    0  501  502  0.00000000000E+00  0.00000000000E+00  0.10382579787E+03  0.10382579787E+03  0.00000000000E+00 0.  1.
         21   -1    0    0  502  503 -0.00000000000E+00 -0.00000000000E+00 -0.56667494493E+03  0.56667494493E+03  0.00000000000E+00 0.  1.
         -6    2    1    2    0  503  0.64533698832E+02  0.96617275945E+02 -0.40257443366E+03  0.45352156972E+03  0.17354003361E+03 0.  0.
        -24    2    3    3    0    0 -0.29818362833E+02  0.64976873319E+02 -0.17485266673E+03  0.20496026993E+03  0.79524388446E+02 0.  0.
          6    2    1    2  501    0 -0.64533698832E+02 -0.96617275945E+02 -0.60274713396E+02  0.21697917308E+03  0.17305324088E+03 0.  0.
         24    2    5    5    0    0 -0.50865528344E+02 -0.11480039315E+03  0.29991399489E+01  0.14957653846E+03  0.81226312103E+02 0.  0.
          5    1    5    5  501    0 -0.13668170488E+02  0.18183117203E+02 -0.63273853345E+02  0.67402634614E+02  0.47000000000E+01 0. -1.
        -13    1    6    6    0    0 -0.59460462612E+02 -0.41785061848E+02  0.17238733099E+02  0.74690775378E+02  0.00000000000E+00 0.  1.
         14    1    6    6    0    0  0.85949342684E+01 -0.73015331299E+02 -0.14239593151E+02  0.74885763086E+02  0.00000000000E+00 0. -1.
         -5    1    3    3    0  503  0.94352061665E+02  0.31640402626E+02 -0.22772176693E+03  0.24856129979E+03  0.47000000000E+01 0.  1.
         13    1    4    4    0    0 -0.43442514086E+02  0.31203556520E+01 -0.68428753159E+02  0.81114011788E+02  0.00000000000E+00 0. -1.
        -14    1    4    4    0    0  0.13624151252E+02  0.61856517667E+02 -0.10642391357E+03  0.12384625814E+03  0.00000000000E+00 0.  1.
<mgrwt>
<rscale>  2 0.20874242E+03</rscale>
<asrwt>0</asrwt>
<pdfrwt beam="1">  1       21 0.15973200E-01 0.20884358E+03</pdfrwt>
<pdfrwt beam="2">  1       21 0.87180760E-01 0.20884358E+03</pdfrwt>
<totfact> 0.39206940E+04</totfact>
</mgrwt>
</event>
<event>
12    1  0.1019868E-001  0.2757896E+03  0.7546771E-02  0.1098038E+00
         21   -1    0    0  503  502  0.00000000000E+00  0.00000000000E+00  0.13978294393E+04  0.13978294393E+04  0.00000000000E+00 0. -1.
         21   -1    0    0  501  503 -0.00000000000E+00 -0.00000000000E+00 -0.85888066120E+02  0.85888066120E+02  0.00000000000E+00 0.  1.
          6    2    1    2  501    0 -0.16980509776E+03 -0.13107306539E+03  0.11051948714E+04  0.11390378873E+04  0.17302509964E+03 0.  0.
         24    2    3    3    0    0 -0.75931371229E+02 -0.14269976644E+03  0.71548702111E+03  0.73798707340E+03  0.81082961459E+02 0.  0.
         -6    2    1    2    0  502  0.16980509776E+03  0.13107306539E+03  0.20674650175E+03  0.34467961815E+03  0.17333783052E+03 0.  0.
        -24    2    5    5    0    0  0.19026631172E+02  0.66540273487E+02  0.72607286812E+02  0.13275027568E+03  0.86955143065E+02 0.  0.
          5    1    3    3  501    0 -0.93873726526E+02  0.11626701052E+02  0.38970785031E+03  0.40105081387E+03  0.47000000000E+01 0. -1.
        -13    1    4    4    0    0 -0.33751452066E+01 -0.83348507186E+01  0.32459266780E+01  0.95601977838E+01  0.00000000000E+00 0.  1.
         14    1    4    4    0    0 -0.72556226023E+02 -0.13436491572E+03  0.71224109444E+03  0.72842687561E+03  0.00000000000E+00 0. -1.
         -5    1    5    5    0  502  0.15077846658E+03  0.64532791904E+02  0.13413921494E+03  0.21192934247E+03  0.47000000000E+01 0.  1.
         11    1    6    6    0    0  0.21018232888E+02 -0.62961089573E+01 -0.86718806534E+01  0.23592554245E+02  0.00000000000E+00 0. -1.
        -12    1    6    6    0    0 -0.19916017168E+01  0.72836382445E+02  0.81279167466E+02  0.10915772144E+03  0.00000000000E+00 0.  1.
<mgrwt>
<rscale>  2 0.27574051E+03</rscale>
<asrwt>0</asrwt>
<pdfrwt beam="1">  1       21 0.21505067E+00 0.27578964E+03</pdfrwt>
<pdfrwt beam="2">  1       21 0.13213550E-01 0.27578964E+03</pdfrwt>
<totfact> 0.49801590E+03</totfact>
</mgrwt>
</event>
<event>
12    1  0.1019868E-001  0.1752073E+03  0.7546771E-02  0.1172646E+00
         21   -1    0    0  501  502  0.00000000000E+00  0.00000000000E+00  0.64696336996E+02  0.64696336996E+02  0.00000000000E+00 0.  1.
         21   -1    0    0  502  503 -0.00000000000E+00 -0.00000000000E+00 -0.56134188499E+03  0.56134188499E+03  0.00000000000E+00 0.  1.
         -6    2    1    2    0  503  0.33585536609E+02  0.11210613505E+02 -0.37267194547E+03  0.41180330251E+03  0.17159229263E+03 0.  0.
        -24    2    3    3    0    0 -0.26770982384E+02 -0.19149102371E+01 -0.96595636072E+02  0.12886265967E+03  0.80959963994E+02 0.  0.
          6    2    1    2  501    0 -0.33585536609E+02 -0.11210613505E+02 -0.12397360253E+03  0.21423491948E+03  0.17109494580E+03 0.  0.
         24    2    5    5    0    0 -0.69312682194E+02 -0.22919565212E+00 -0.13616518317E+03  0.17464015836E+03  0.84580892408E+02 0.  0.
          5    1    5    5  501    0  0.35727145585E+02 -0.10981417853E+02  0.12191580642E+02  0.39594761122E+02  0.47000000000E+01 0. -1.
        -11    1    6    6    0    0 -0.87527243662E+02 -0.74676912981E+01 -0.97139201595E+02  0.13096873399E+03  0.00000000000E+00 0.  1.
         12    1    6    6    0    0  0.18214561467E+02  0.72384956460E+01 -0.39025981572E+02  0.43671424368E+02  0.00000000000E+00 0. -1.
         -5    1    3    3    0  503  0.60356518993E+02  0.13125523742E+02 -0.27607630940E+03  0.28294064284E+03  0.47000000000E+01 0.  1.
         13    1    4    4    0    0 -0.22692326746E+02 -0.28066625516E+02 -0.87803052732E+01  0.37145267823E+02  0.00000000000E+00 0. -1.
        -14    1    4    4    0    0 -0.40786556387E+01  0.26151715278E+02 -0.87815330799E+02  0.91717391847E+02  0.00000000000E+00 0.  1.
<mgrwt>
<rscale>  2 0.17508536E+03</rscale>
<asrwt>0</asrwt>
<pdfrwt beam="1">  1       21 0.99532825E-02 0.17520725E+03</pdfrwt>
<pdfrwt beam="2">  1       21 0.86360291E-01 0.17520725E+03</pdfrwt>
<totfact> 0.95214499E+04</totfact>
</mgrwt>
</event>
<event>
12    1  0.1372394E-001  0.1739176E+03  0.7546771E-02  0.1175472E+00
         21   -1    0    0  503  502  0.00000000000E+00  0.00000000000E+00  0.16997097875E+03  0.16997097875E+03  0.00000000000E+00 0.  1.
         21   -1    0    0  501  503 -0.00000000000E+00 -0.00000000000E+00 -0.17230828519E+03  0.17230828519E+03  0.00000000000E+00 0.  1.
          6    2    1    2  501    0 -0.39076910712E+01 -0.88865091813E+01 -0.13063264742E+02  0.17440750961E+03  0.17364645239E+03 0.  0.
         24    2    3    3    0    0  0.12267440551E+02 -0.48447639461E+02 -0.61216666473E+02  0.10985088323E+03  0.76302506016E+02 0.  0.
         -6    2    1    2    0  502  0.39076910712E+01  0.88865091813E+01  0.10725958301E+02  0.16787175433E+03  0.16724724101E+03 0.  0.
        -24    2    5    5    0    0 -0.22133164414E+02 -0.30644590204E+02  0.53710010826E+02  0.10375816182E+03  0.80324485722E+02 0.  0.
          5    1    3    3  501    0 -0.16175131622E+02  0.39561130280E+02  0.48153401731E+02  0.64556626385E+02  0.47000000000E+01 0. -1.
        -11    1    4    4    0    0  0.29690048477E+02 -0.48833672328E+02 -0.13040712185E+02  0.58619849078E+02  0.00000000000E+00 0.  1.
         12    1    4    4    0    0 -0.17422607926E+02  0.38603286721E+00 -0.48175954288E+02  0.51231034148E+02  0.00000000000E+00 0. -1.
         -5    1    5    5    0  502  0.26040855485E+02  0.39531099385E+02 -0.42984052525E+02  0.64113592509E+02  0.47000000000E+01 0.  1.
         13    1    6    6    0    0  0.23452696481E+02 -0.13759112612E+02 -0.48816309956E+01  0.27625576433E+02  0.00000000000E+00 0. -1.
        -14    1    6    6    0    0 -0.45585860894E+02 -0.16885477592E+02  0.58591641822E+02  0.76132585391E+02  0.00000000000E+00 0.  1.
<mgrwt>
<rscale>  2 0.17229790E+03</rscale>
<asrwt>0</asrwt>
<pdfrwt beam="1">  1       21 0.26149381E-01 0.17391760E+03</pdfrwt>
<pdfrwt beam="2">  1       21 0.26508967E-01 0.17391760E+03</pdfrwt>
<totfact> 0.18919999E+05</totfact>
</mgrwt>
</event>
<event>
12    1  0.1019868E-001  0.2804072E+03  0.7546771E-02  0.1095732E+00
         21   -1    0    0  501  502  0.00000000000E+00  0.00000000000E+00  0.70588454173E+03  0.70588454173E+03  0.00000000000E+00 0.  1.
         21   -1    0    0  502  503 -0.00000000000E+00 -0.00000000000E+00 -0.11074087045E+03  0.11074087045E+03  0.00000000000E+00 0.  1.
         -6    2    1    2    0  503 -0.18504093862E+03 -0.11995125318E+03  0.31197805736E+03  0.41947407354E+03  0.17320432440E+03 0.  0.
        -24    2    3    3    0    0 -0.92840676369E+02 -0.11703365889E+03  0.12601193903E+03  0.21183282551E+03  0.81718227362E+02 0.  0.
          6    2    1    2  501    0  0.18504093862E+03  0.11995125318E+03  0.28316561393E+03  0.39715133864E+03  0.17005284111E+03 0.  0.
         24    2    5    5    0    0  0.16694227261E+03  0.15089393450E+03  0.22272973962E+03  0.32672693846E+03  0.80642752614E+02 0.  0.
          5    1    5    5  501    0  0.18098666003E+02 -0.30942681315E+02  0.60435874310E+02  0.70424400187E+02  0.47000000000E+01 0. -1.
        -11    1    6    6    0    0  0.10974638933E+03  0.45721581669E+02  0.12083518173E+03  0.16951658959E+03  0.00000000000E+00 0.  1.
         12    1    6    6    0    0  0.57195883280E+02  0.10517235283E+03  0.10189455788E+03  0.15721034887E+03  0.00000000000E+00 0. -1.
         -5    1    3    3    0  503 -0.92200262248E+02 -0.29175942941E+01  0.18596611833E+03  0.20764124803E+03  0.47000000000E+01 0.  1.
         11    1    4    4    0    0 -0.90813869185E+01 -0.76061583245E+02  0.64362961292E+02  0.10005212052E+03  0.00000000000E+00 0. -1.
        -12    1    4    4    0    0 -0.83759289450E+02 -0.40972075645E+02  0.61648977738E+02  0.11178070499E+03  0.00000000000E+00 0.  1.
<mgrwt>
<rscale>  2 0.27992203E+03</rscale>
<asrwt>0</asrwt>
<pdfrwt beam="1">  1       21 0.10859762E+00 0.28040719E+03</pdfrwt>
<pdfrwt beam="2">  1       21 0.17037057E-01 0.28040719E+03</pdfrwt>
<totfact> 0.19970578E+04</totfact>
</mgrwt>
</event>
<event>
12    1  0.1019868E-001  0.2279901E+03  0.7546771E-02  0.1128313E+00
         21   -1    0    0  503  502  0.00000000000E+00  0.00000000000E+00  0.10940865231E+03  0.10940865231E+03  0.00000000000E+00 0.  1.
         21   -1    0    0  501  503 -0.00000000000E+00 -0.00000000000E+00 -0.98772760410E+03  0.98772760410E+03  0.00000000000E+00 0.  1.
          6    2    1    2  501    0 -0.57979361741E+02  0.13432032046E+03 -0.83612809710E+03  0.86665430118E+03  0.17485973843E+03 0.  0.
         24    2    3    3    0    0 -0.31920067505E+02  0.60916367422E+02 -0.21054869843E+03  0.23622674692E+03  0.82113500835E+02 0.  0.
         -6    2    1    2    0  502  0.57979361741E+02 -0.13432032046E+03 -0.42190854689E+02  0.23048195523E+03  0.17302690136E+03 0.  0.
        -24    2    5    5    0    0  0.95128493521E+02 -0.78148603983E+02 -0.52107557937E+02  0.16224889340E+03  0.91939497673E+02 0.  0.
          5    1    3    3  501    0 -0.26059294237E+02  0.73403953034E+02 -0.62557939867E+03  0.63042755427E+03  0.47000000000E+01 0. -1.
        -11    1    4    4    0    0  0.12392396122E+02  0.23837773525E+02 -0.15055782751E+03  0.15293616430E+03  0.00000000000E+00 0.  1.
         12    1    4    4    0    0 -0.44312463627E+02  0.37078593897E+02 -0.59990870923E+02  0.83290582614E+02  0.00000000000E+00 0. -1.
         -5    1    5    5    0  502 -0.37149131780E+02 -0.56171716473E+02  0.99167032483E+01  0.68233061831E+02  0.47000000000E+01 0.  1.
         11    1    6    6    0    0 -0.16766688766E+02 -0.24114128963E+02 -0.11112069086E+02  0.31402088261E+02  0.00000000000E+00 0. -1.
        -12    1    6    6    0    0  0.11189518229E+03 -0.54034475020E+02 -0.40995488851E+02  0.13084680514E+03  0.00000000000E+00 0.  1.
<mgrwt>
<rscale>  2 0.22763862E+03</rscale>
<asrwt>0</asrwt>
<pdfrwt beam="1">  1       21 0.16832100E-01 0.22799009E+03</pdfrwt>
<pdfrwt beam="2">  1       21 0.15195809E+00 0.22799009E+03</pdfrwt>
<totfact> 0.89422314E+03</totfact>
</mgrwt>
</event>
<event>
12    1  0.1019868E-001  0.1921606E+03  0.7546771E-02  0.1156640E+00
         21   -1    0    0  501  502  0.00000000000E+00  0.00000000000E+00  0.13900755432E+03  0.13900755432E+03  0.00000000000E+00 0. -1.
         21   -1    0    0  502  503 -0.00000000000E+00 -0.00000000000E+00 -0.26785816174E+03  0.26785816174E+03  0.00000000000E+00 0.  1.
         -6    2    1    2    0  503  0.81514722721E+02  0.12944939632E+02 -0.43269381025E+02  0.19697193574E+03  0.17353236774E+03 0.  0.
        -24    2    3    3    0    0  0.71336064740E+02 -0.19825737215E+02 -0.89278467492E+02  0.13938332248E+03  0.77299235705E+02 0.  0.
          6    2    1    2  501    0 -0.81514722721E+02 -0.12944939632E+02 -0.85581226397E+02  0.20989378031E+03  0.17297118610E+03 0.  0.
         24    2    5    5    0    0 -0.54553682169E+00  0.41770410315E+02 -0.21023787171E+02  0.92678032462E+02  0.80013456904E+02 0.  0.
          5    1    5    5  501    0 -0.80969185899E+02 -0.54715349946E+02 -0.64557439225E+02  0.11721574785E+03  0.47000000000E+01 0. -1.
        -13    1    6    6    0    0 -0.24771129258E+02  0.62287109854E+01 -0.38539853222E+02  0.46235548787E+02  0.00000000000E+00 0.  1.
         14    1    6    6    0    0  0.24225592436E+02  0.35541699329E+02  0.17516066050E+02  0.46442483676E+02  0.00000000000E+00 0. -1.
         -5    1    3    3    0  503  0.10178657981E+02  0.32770676847E+02  0.46009086467E+02  0.57588613257E+02  0.47000000000E+01 0.  1.
         13    1    4    4    0    0 -0.10466002038E+01 -0.20816502177E+02  0.40894481735E+01  0.21240191177E+02  0.00000000000E+00 0. -1.
        -14    1    4    4    0    0  0.72382664944E+02  0.99076496203E+00 -0.93367915665E+02  0.11814313131E+03  0.00000000000E+00 0.  1.
<mgrwt>
<rscale>  2 0.19203384E+03</rscale>
<asrwt>0</asrwt>
<pdfrwt beam="1">  1       21 0.21385778E-01 0.19216062E+03</pdfrwt>
<pdfrwt beam="2">  1       21 0.41208947E-01 0.19216062E+03</pdfrwt>
<totfact> 0.11548996E+05</totfact>
</mgrwt>
</event>
<event>
12    1  0.1019868E-001  0.2971383E+03  0.7546771E-02  0.1086716E+00
         21   -1    0    0  501  502  0.00000000000E+00  0.00000000000E+00  0.12517233802E+04  0.12517233802E+04  0.00000000000E+00 0.  1.
         21   -1    0    0  502  503 -0.00000000000E+00 -0.00000000000E+00 -0.10304230696E+03  0.10304230696E+03  0.00000000000E+00 0.  1.
         -6    2    1    2    0  503  0.82069321741E+02 -0.22733818443E+03  0.95501136291E+03  0.10000839669E+04  0.17234620376E+03 0.  0.
        -24    2    3    3    0    0  0.73557263405E+02 -0.15810933507E+03  0.86454556996E+03  0.88575445011E+03  0.81930888706E+02 0.  0.
          6    2    1    2  501    0 -0.82069321741E+02  0.22733818443E+03  0.19366971029E+03  0.35468172019E+03  0.17283848612E+03 0.  0.
         24    2    5    5    0    0 -0.10269417445E+02  0.20892361206E+03  0.13704476885E+03  0.26128580634E+03  0.75726265664E+02 0.  0.
          5    1    5    5  501    0 -0.71799904296E+02  0.18414572367E+02  0.56624941436E+02  0.93395913856E+02  0.47000000000E+01 0. -1.
        -11    1    6    6    0    0 -0.28056088769E+02  0.68064543366E+02  0.78759717579E+02  0.10781010757E+03  0.00000000000E+00 0.  1.
         12    1    6    6    0    0  0.17786671325E+02  0.14085906870E+03  0.58285051276E+02  0.15347569877E+03  0.00000000000E+00 0. -1.
         -5    1    3    3    0  503  0.85120583363E+01 -0.69228849360E+02  0.90465792946E+02  0.11432951681E+03  0.47000000000E+01 0.  1.
         11    1    4    4    0    0  0.21222569401E+02 -0.12309458104E+02  0.27859210216E+03  0.27967030518E+03  0.00000000000E+00 0. -1.
        -12    1    4    4    0    0  0.52334694004E+02 -0.14579987697E+03  0.58595346780E+03  0.60608414494E+03  0.00000000000E+00 0.  1.
<mgrwt>
<rscale>  2 0.29706675E+03</rscale>
<asrwt>0</asrwt>
<pdfrwt beam="1">  1       21 0.19257282E+00 0.29713829E+03</pdfrwt>
<pdfrwt beam="2">  1       21 0.15852663E-01 0.29713829E+03</pdfrwt>
<totfact> 0.49234295E+03</totfact>
</mgrwt>
</event>
<event>
12    1  0.1019868E-001  0.2061388E+03  0.7546771E-02  0.1144892E+00
         21   -1    0    0  501  502  0.00000000000E+00  0.00000000000E+00  0.24755191679E+03  0.24755191679E+03  0.00000000000E+00 0. -1.
         21   -1    0    0  502  503 -0.00000000000E+00 -0.00000000000E+00 -0.21023925330E+03  0.21023925330E+03  0.00000000000E+00 0.  1.
         -6    2    1    2    0  503  0.11139153350E+03  0.28606919840E+01 -0.80557225016E+02  0.22132027875E+03  0.17342705092E+03 0.  0.
        -24    2    3    3    0    0  0.10968226752E+03 -0.69467162623E+01  0.25787522373E+01  0.13745856186E+03  0.82521206914E+02 0.  0.
          6    2    1    2  501    0 -0.11139153350E+03 -0.28606919840E+01  0.11786988850E+03  0.23647089133E+03  0.17207241074E+03 0.  0.
         24    2    5    5    0    0 -0.43316561752E+02  0.60215567995E+02  0.81904018800E+02  0.13682928288E+03  0.80695385290E+02 0.  0.
          5    1    5    5  501    0 -0.68074971744E+02 -0.63076259979E+02  0.35965869704E+02  0.99641608450E+02  0.47000000000E+01 0. -1.
        -11    1    6    6    0    0 -0.38296958775E+02 -0.48832040002E+01  0.10364665543E+02  0.39974104424E+02  0.00000000000E+00 0.  1.
         12    1    6    6    0    0 -0.50196029770E+01  0.65098771995E+02  0.71539353257E+02  0.96855178456E+02  0.00000000000E+00 0. -1.
         -5    1    3    3    0  503  0.17092659801E+01  0.98074082464E+01 -0.83135977253E+02  0.83861716895E+02  0.47000000000E+01 0.  1.
         11    1    4    4    0    0  0.65505606455E+02  0.36836946950E+02  0.37969956816E+01  0.75248669847E+02  0.00000000000E+00 0. -1.
        -12    1    4    4    0    0  0.44176661061E+02 -0.43783663212E+02 -0.12182434442E+01  0.62209892010E+02  0.00000000000E+00 0.  1.
<mgrwt>
<rscale>  2 0.20585360E+03</rscale>
<asrwt>0</asrwt>
<pdfrwt beam="1">  1       21 0.38084910E-01 0.20613879E+03</pdfrwt>
<pdfrwt beam="2">  1       21 0.32344500E-01 0.20613879E+03</pdfrwt>
<totfact> 0.60767226E+04</totfact>
</mgrwt>
</event>
<event>
12    1  0.1019868E-001  0.1915794E+03  0.7546771E-02  0.1157291E+00
         21   -1    0    0  501  502  0.00000000000E+00  0.00000000000E+00  0.31138872455E+02  0.31138872455E+02  0.00000000000E+00 0.  1.
         21   -1    0    0  502  503 -0.00000000000E+00 -0.00000000000E+00 -0.11719361503E+04  0.11719361503E+04  0.00000000000E+00 0. -1.
         -6    2    1    2    0  503 -0.84121225575E+02 -0.16224069688E+01 -0.57515569189E+03  0.60622334254E+03  0.17211524724E+03 0.  0.
        -24    2    3    3    0    0 -0.84547007069E+02  0.50515307754E+02 -0.29447147567E+03  0.32069883953E+03  0.80214107049E+02 0.  0.
          6    2    1    2  501    0  0.84121225575E+02  0.16224069688E+01 -0.56564158595E+03  0.59685168021E+03  0.17088742380E+03 0.  0.
         24    2    5    5    0    0  0.12225584281E+03  0.38899498016E+01 -0.49576490833E+03  0.51707555059E+03  0.81379714139E+02 0.  0.
          5    1    5    5  501    0 -0.38134617232E+02 -0.22675428329E+01 -0.69876677622E+02  0.79776129622E+02  0.47000000000E+01 0. -1.
        -13    1    6    6    0    0  0.51704640961E+02  0.31597962053E+02 -0.31964139195E+03  0.32533432120E+03  0.00000000000E+00 0.  1.
         14    1    6    6    0    0  0.70551201847E+02 -0.27708012252E+02 -0.17612351638E+03  0.19174122939E+03  0.00000000000E+00 0. -1.
         -5    1    3    3    0  503  0.42578149390E+00 -0.52137714723E+02 -0.28068421622E+03  0.28552450301E+03  0.47000000000E+01 0.  1.
         11    1    4    4    0    0 -0.92906001943E+01 -0.19006376478E+02 -0.83891809911E+02  0.86518167855E+02  0.00000000000E+00 0. -1.
        -12    1    4    4    0    0 -0.75256406875E+02  0.69521684232E+02 -0.21057966576E+03  0.23418067167E+03  0.00000000000E+00 0.  1.
<mgrwt>
<rscale>  2 0.19130324E+03</rscale>
<asrwt>0</asrwt>
<pdfrwt beam="1">  1       21 0.47905957E-02 0.19157941E+03</pdfrwt>
<pdfrwt beam="2">  1       21 0.18029787E+00 0.19157941E+03</pdfrwt>
<totfact> 0.52413734E+04</totfact>
</mgrwt>
</event>
<event>
12    1  0.1019868E-001  0.1744355E+03  0.7546771E-02  0.1173390E+00
         21   -1    0    0  503  502  0.00000000000E+00  0.00000000000E+00  0.17180302899E+03  0.17180302899E+03  0.00000000000E+00 0. -1.
         21   -1    0    0  501  503 -0.00000000000E+00 -0.00000000000E+00 -0.19005261701E+03  0.19005261701E+03  0.00000000000E+00 0. -1.
          6    2    1    2  501    0  0.11006704746E+01  0.19333703787E+02 -0.56990108499E+02  0.18316999913E+03  0.17299818652E+03 0.  0.
         24    2    3    3    0    0 -0.49128415418E+02 -0.14478296205E+02  0.56627109948E+01  0.95913605650E+02  0.80895804530E+02 0.  0.
         -6    2    1    2    0  502 -0.11006704746E+01 -0.19333703787E+02  0.38740520477E+02  0.17868564686E+03  0.17335722913E+03 0.  0.
        -24    2    5    5    0    0 -0.20473846517E+02 -0.23880680591E+02  0.89615985935E+02  0.12385501734E+03  0.79495755161E+02 0.  0.
          5    1    3    3  501    0  0.50229085893E+02  0.33811999992E+02 -0.62652819494E+02  0.87256393482E+02  0.47000000000E+01 0. -1.
        -13    1    4    4    0    0 -0.16158940609E+02  0.32064855746E+02 -0.90095019805E+01  0.37019420060E+02  0.00000000000E+00 0.  1.
         14    1    4    4    0    0 -0.32969474808E+02 -0.46543151951E+02  0.14672212975E+02  0.58894185590E+02  0.00000000000E+00 0. -1.
         -5    1    5    5    0  502  0.19373176043E+02  0.45469768037E+01 -0.50875465458E+02  0.54830629521E+02  0.47000000000E+01 0.  1.
         13    1    6    6    0    0 -0.28344914068E+02 -0.49713217754E+02  0.50498142114E+02  0.76321035960E+02  0.00000000000E+00 0. -1.
        -14    1    6    6    0    0  0.78710675510E+01  0.25832537164E+02  0.39117843821E+02  0.47533981381E+02  0.00000000000E+00 0.  1.
<mgrwt>
<rscale>  2 0.17434619E+03</rscale>
<asrwt>0</asrwt>
<pdfrwt beam="1">  1       21 0.26431235E-01 0.17443547E+03</pdfrwt>
<pdfrwt beam="2">  1       21 0.29238864E-01 0.17443547E+03</pdfrwt>
<totfact> 0.15342224E+05</totfact>
</mgrwt>
</event>
<event>
12    1  0.1019868E-001  0.1904389E+03  0.7546771E-02  0.1158561E+00
         21   -1    0    0  501  502  0.00000000000E+00  0.00000000000E+00  0.13319415591E+04  0.13319415591E+04  0.00000000000E+00 0. -1.
         21   -1    0    0  502  503 -0.00000000000E+00 -0.00000000000E+00 -0.42830426166E+02  0.42830426166E+02  0.00000000000E+00 0. -1.
         -6    2    1    2    0  503 -0.62500852011E+02  0.40737720871E+02  0.22321788036E+03  0.29199989838E+03  0.17283460342E+03 0.  0.
        -24    2    3    3    0    0  0.68974287285E+01  0.28080268084E+02  0.20136085417E+03  0.21799887086E+03  0.78366052118E+02 0.  0.
          6    2    1    2  501    0  0.62500852011E+02 -0.40737720871E+02  0.10658932525E+04  0.10827720869E+04  0.17521714485E+03 0.  0.
         24    2    5    5    0    0  0.57351259270E+02 -0.31969747943E+02  0.31654127055E+03  0.33333638009E+03  0.81262135141E+02 0.  0.
          5    1    5    5  501    0  0.51495927410E+01 -0.87679729282E+01  0.74935198199E+03  0.74943570676E+03  0.47000000000E+01 0. -1.
        -11    1    6    6    0    0  0.41115932402E+02 -0.43430883415E+02  0.30402207102E+03  0.30984864241E+03  0.00000000000E+00 0.  1.
         12    1    6    6    0    0  0.16235326867E+02  0.11461135472E+02  0.12519199527E+02  0.23487737686E+02  0.00000000000E+00 0. -1.
         -5    1    3    3    0  503 -0.69398280739E+02  0.12657452787E+02  0.21857026189E+02  0.74001027523E+02  0.47000000000E+01 0.  1.
         13    1    4    4    0    0  0.34104780455E+02 -0.56754686139E+01  0.51781135469E+02  0.62262613054E+02  0.00000000000E+00 0. -1.
        -14    1    4    4    0    0 -0.27207351727E+02  0.33755736698E+02  0.14957971871E+03  0.15573625781E+03  0.00000000000E+00 0.  1.
<mgrwt>
<rscale>  2 0.18988905E+03</rscale>
<asrwt>0</asrwt>
<pdfrwt beam="1">  1       21 0.20491405E+00 0.19043888E+03</pdfrwt>
<pdfrwt beam="2">  1       21 0.65892974E-02 0.19043888E+03</pdfrwt>
<totfact> 0.21008415E+04</totfact>
</mgrwt>
</event>
<event>
12    1  0.1019868E-001  0.2375150E+03  0.7546771E-02  0.1121736E+00
         21   -1    0    0  503  502  0.00000000000E+00  0.00000000000E+00  0.17882739654E+04  0.17882739654E+04  0.00000000000E+00 0. -1.
         21   -1    0    0  501  503 -0.00000000000E+00 -0.00000000000E+00 -0.78389184223E+02  0.78389184223E+02  0.00000000000E+00 0. -1.
          6    2    1    2  501    0  0.86984769317E+01  0.16280111116E+03  0.13060669233E+03  0.26962442940E+03  0.17046806021E+03 0.  0.
         24    2    3    3    0    0 -0.51023182475E+02  0.12772673364E+03  0.59902596603E+02  0.17053836724E+03  0.81101972767E+02 0.  0.
         -6    2    1    2    0  502 -0.86984769317E+01 -0.16280111116E+03  0.15792780888E+04  0.15970387202E+04  0.17272384518E+03 0.  0.
        -24    2    5    5    0    0 -0.72681094774E+02 -0.10321422626E+03  0.10021232537E+04  0.10132800663E+04  0.80930582743E+02 0.  0.
          5    1    3    3  501    0  0.59721659406E+02  0.35074377522E+02  0.70704095726E+02  0.99086062155E+02  0.47000000000E+01 0. -1.
        -13    1    4    4    0    0 -0.40036040225E+02  0.12062434341E+03  0.77311001847E+02  0.14876191632E+03  0.00000000000E+00 0.  1.
         14    1    4    4    0    0 -0.10987142250E+02  0.71023902260E+01 -0.17408405244E+02  0.21776450925E+02  0.00000000000E+00 0. -1.
         -5    1    5    5    0  502  0.63982617842E+02 -0.59586884894E+02  0.57715483515E+03  0.58375865387E+03  0.47000000000E+01 0.  1.
         13    1    6    6    0    0  0.13663979500E+02 -0.41220228591E+02  0.31678180634E+03  0.31974446737E+03  0.00000000000E+00 0. -1.
        -14    1    6    6    0    0 -0.86345074274E+02 -0.61993997673E+02  0.68534144733E+03  0.69353559896E+03  0.00000000000E+00 0.  1.
<mgrwt>
<rscale>  2 0.23710514E+03</rscale>
<asrwt>0</asrwt>
<pdfrwt beam="1">  1       21 0.27511904E+00 0.23751504E+03</pdfrwt>
<pdfrwt beam="2">  1       21 0.12059876E-01 0.23751504E+03</pdfrwt>
<totfact> 0.26320545E+03</totfact>
</mgrwt>
</event>
<event>
12    1  0.1019868E-001  0.2590013E+03  0.7546771E-02  0.1107750E+00
         21   -1    0    0  503  502  0.00000000000E+00  0.00000000000E+00  0.30874878423E+03  0.30874878423E+03  0.00000000000E+00 0.  1.
         21   -1    0    0  501  503 -0.00000000000E+00 -0.00000000000E+00 -0.12963055276E+04  0.12963055276E+04  0.00000000000E+00 0. -1.
          6    2    1    2  501    0 -0.18940308531E+03 -0.40765704936E+02 -0.12259847825E+04  0.12530444374E+04  0.17189038281E+03 0.  0.
         24    2    3    3    0    0 -0.60814998421E+02 -0.60262890687E+02 -0.39639346359E+03  0.41330704822E+03  0.79780060820E+02 0.  0.
         -6    2    1    2    0  502  0.18940308531E+03  0.40765704936E+02  0.23842803913E+03  0.35200987446E+03  0.17183611510E+03 0.  0.
        -24    2    5    5    0    0  0.33558841739E+02 -0.14008550334E+02  0.48131347321E+02  0.99973035474E+02  0.79721677639E+02 0.  0.
          5    1    3    3  501    0 -0.12858808689E+03  0.19497185751E+02 -0.82959131890E+03  0.83973738915E+03  0.47000000000E+01 0. -1.
        -11    1    4    4    0    0 -0.77641398857E+02 -0.32724738952E+02 -0.26881352510E+03  0.28170872658E+03  0.00000000000E+00 0.  1.
         12    1    4    4    0    0  0.16826400437E+02 -0.27538151736E+02 -0.12757993848E+03  0.13159832163E+03  0.00000000000E+00 0. -1.
         -5    1    5    5    0  502  0.15584424357E+03  0.54774255270E+02  0.19029669180E+03  0.25203683899E+03  0.47000000000E+01 0.  1.
         13    1    6    6    0    0 -0.77098816576E+01  0.19909006730E+02 -0.77068149916E+01  0.22698145772E+02  0.00000000000E+00 0. -1.
        -14    1    6    6    0    0  0.41268723397E+02 -0.33917557064E+02  0.55838162313E+02  0.77274889702E+02  0.00000000000E+00 0.  1.
<mgrwt>
<rscale>  2 0.25899230E+03</rscale>
<asrwt>0</asrwt>
<pdfrwt beam="1">  1       21 0.47499813E-01 0.25900130E+03</pdfrwt>
<pdfrwt beam="2">  1       21 0.19943162E+00 0.25900130E+03</pdfrwt>
<totfact> 0.53543167E+02</totfact>
</mgrwt>
</event>
<event>
12    1  0.1019868E-001  0.1953897E+03  0.7546771E-02  0.1155019E+00
         21   -1    0    0  503  502  0.00000000000E+00  0.00000000000E+00  0.78799335625E+03  0.78799335625E+03  0.00000000000E+00 0. -1.
         21   -1    0    0  501  503 -0.00000000000E+00 -0.00000000000E+00 -0.46976381668E+02  0.46976381668E+02  0.00000000000E+00 0. -1.
          6    2    1    2  501    0 -0.77185929322E+02  0.51791067255E+02  0.37054193199E+03  0.41612740735E+03  0.16498700994E+03 0.  0.
         24    2    3    3    0    0 -0.38818682562E+02 -0.17658902958E+02  0.10322043864E+03  0.13723994834E+03  0.79759748602E+02 0.  0.
         -6    2    1    2    0  502  0.77185929322E+02 -0.51791067255E+02  0.37047504259E+03  0.41884233057E+03  0.17186377851E+03 0.  0.
        -24    2    5    5    0    0 -0.13317142857E+02 -0.16864704856E+02  0.87693554095E+02  0.11984715151E+03  0.78812535373E+02 0.  0.
          5    1    3    3  501    0 -0.38367246760E+02  0.69449970213E+02  0.26732149335E+03  0.27888745901E+03  0.47000000000E+01 0. -1.
        -13    1    4    4    0    0 -0.29588386521E+02 -0.16929477390E+02  0.11631221390E+03  0.12120483044E+03  0.00000000000E+00 0.  1.
         14    1    4    4    0    0 -0.92302960409E+01 -0.72942556769E+00 -0.13091775253E+02  0.16035117896E+02  0.00000000000E+00 0. -1.
         -5    1    5    5    0  502  0.90503072178E+02 -0.34926362399E+02  0.28278148850E+03  0.29899517906E+03  0.47000000000E+01 0.  1.
         13    1    6    6    0    0 -0.55284184756E+00  0.14956052601E+02  0.84046158855E+02  0.85368295999E+02  0.00000000000E+00 0. -1.
        -14    1    6    6    0    0 -0.12764301009E+02 -0.31820757457E+02  0.36473952396E+01  0.34478855512E+02  0.00000000000E+00 0.  1.
<mgrwt>
<rscale>  2 0.19386688E+03</rscale>
<asrwt>0</asrwt>
<pdfrwt beam="1">  1       21 0.12122974E+00 0.19538971E+03</pdfrwt>
<pdfrwt beam="2">  1       21 0.72271362E-02 0.19538971E+03</pdfrwt>
<totfact> 0.73606906E+04</totfact>
</mgrwt>
</event>
<event>
12    1  0.1019868E-001  0.2758692E+03  0.7546771E-02  0.1098164E+00
         21   -1    0    0  501  502  0.00000000000E+00  0.00000000000E+00  0.54521219330E+03  0.54521219330E+03  0.00000000000E+00 0. -1.
         21   -1    0    0  502  503 -0.00000000000E+00 -0.00000000000E+00 -0.20153942767E+03  0.20153942767E+03  0.00000000000E+00 0.  1.
         -6    2    1    2    0  503 -0.34204062950E+02 -0.21116846212E+03 -0.36064419604E+02  0.27821656417E+03  0.17418891153E+03 0.  0.
        -24    2    3    3    0    0 -0.13818610921E+02 -0.36504211800E+02  0.19859599157E+02  0.93628501531E+02  0.82754946277E+02 0.  0.
          6    2    1    2  501    0  0.34204062950E+02  0.21116846212E+03  0.37973718523E+03  0.46853505680E+03  0.17193816414E+03 0.  0.
         24    2    5    5    0    0  0.15410787564E+02  0.34460957554E+02  0.83006051279E+02  0.12263017793E+03  0.81994548733E+02 0.  0.
          5    1    5    5  501    0  0.18793275387E+02  0.17670750457E+03  0.29673113395E+03  0.34590487887E+03  0.47000000000E+01 0. -1.
        -13    1    6    6    0    0 -0.22417098235E+02 -0.15360378934E+02  0.19186205332E+02  0.33265267312E+02  0.00000000000E+00 0.  1.
         14    1    6    6    0    0  0.37827885799E+02  0.49821336488E+02  0.63819845947E+02  0.89364910621E+02  0.00000000000E+00 0. -1.
         -5    1    3    3    0  503 -0.20385452029E+02 -0.17466425032E+03 -0.55924018761E+02  0.18458806264E+03  0.47000000000E+01 0.  1.
         11    1    4    4    0    0 -0.36875348638E+01 -0.79772300888E+01 -0.32215990951E+02  0.33393175743E+02  0.00000000000E+00 0. -1.
        -12    1    4    4    0    0 -0.10131076057E+02 -0.28526981711E+02  0.52075590108E+02  0.60235325787E+02  0.00000000000E+00 0.  1.
<mgrwt>
<rscale>  2 0.27551461E+03</rscale>
<asrwt>0</asrwt>
<pdfrwt beam="1">  1       21 0.83878799E-01 0.27586920E+03</pdfrwt>
<pdfrwt beam="2">  1       21 0.31006066E-01 0.27586920E+03</pdfrwt>
<totfact> 0.11759967E+04</totfact>
</mgrwt>
</event>
<event>
12    1  0.1019868E-001  0.2257123E+03  0.7546771E-02  0.1130072E+00
         21   -1    0    0  501  502  0.00000000000E+00  0.00000000000E+00  0.21605714413E+03  0.21605714413E+03  0.00000000000E+00 0. -1.
         21   -1    0    0  502  503 -0.00000000000E+00 -0.00000000000E+00 -0.30974923555E+03  0.30974923555E+03  0.00000000000E+00 0.  1.
         -6    2    1    2    0  503  0.16719936297E+02 -0.14066654801E+03 -0.17701202590E+03  0.28520656856E+03  0.17304015556E+03 0.  0.
        -24    2    3    3    0    0  0.28016237363E+02 -0.13452636285E+03 -0.66696733632E+02  0.17404514539E+03  0.83432646485E+02 0.  0.
          6    2    1    2  501    0 -0.16719936297E+02  0.14066654801E+03  0.83319934483E+02  0.24059981112E+03  0.17572542112E+03 0.  0.
         24    2    5    5    0    0 -0.62368845376E+02  0.23133339372E+02  0.20354201897E+01  0.90509370726E+02  0.61341494845E+02 0.  0.
          5    1    5    5  501    0  0.45648909080E+02  0.11753320864E+03  0.81284514293E+02  0.15009044039E+03  0.47000000000E+01 0. -1.
        -11    1    6    6    0    0 -0.10405826588E+02  0.35178952728E+02 -0.36475933905E+01  0.36866582152E+02  0.00000000000E+00 0.  1.
         12    1    6    6    0    0 -0.51963018788E+02 -0.12045613356E+02  0.56830135803E+01  0.53642788574E+02  0.00000000000E+00 0. -1.
         -5    1    3    3    0  503 -0.11296301067E+02 -0.61401851548E+01 -0.11031529227E+03  0.11116142316E+03  0.47000000000E+01 0.  1.
         13    1    4    4    0    0  0.23878459500E+02 -0.14573438049E+03 -0.66833582411E+02  0.16209694082E+03  0.00000000000E+00 0. -1.
        -14    1    4    4    0    0  0.41377778634E+01  0.11208017636E+02  0.13684877920E+00  0.11948204575E+02  0.00000000000E+00 0.  1.
<mgrwt>
<rscale>  2 0.22518946E+03</rscale>
<asrwt>0</asrwt>
<pdfrwt beam="1">  1       21 0.33239561E-01 0.22571233E+03</pdfrwt>
<pdfrwt beam="2">  1       21 0.47653728E-01 0.22571233E+03</pdfrwt>
<totfact> 0.36088108E+04</totfact>
</mgrwt>
</event>
<event>
12    1  0.1019868E-001  0.1949825E+03  0.7546771E-02  0.1156144E+00
         21   -1    0    0  501  502  0.00000000000E+00  0.00000000000E+00  0.13690366185E+03  0.13690366185E+03  0.00000000000E+00 0.  1.
         21   -1    0    0  502  503 -0.00000000000E+00 -0.00000000000E+00 -0.19023976560E+04  0.19023976560E+04  0.00000000000E+00 0.  1.
         -6    2    1    2    0  503 -0.84099191331E+02  0.23528206925E+02 -0.18257976240E+04  0.18352065217E+04  0.16376740522E+03 0.  0.
        -24    2    3    3    0    0 -0.98981400012E+02  0.39935686474E+01 -0.17644436253E+04  0.17689533302E+04  0.78238810292E+02 0.  0.
          6    2    1    2  501    0  0.84099191331E+02 -0.23528206925E+02  0.60303629861E+02  0.20409479613E+03  0.17433274944E+03 0.  0.
         24    2    5    5    0    0  0.23762418403E+02  0.41779010404E+02  0.60542736083E+02  0.11505713008E+03  0.85220784155E+02 0.  0.
          5    1    5    5  501    0  0.60336772928E+02 -0.65307217329E+02 -0.23910622185E+00  0.89037666043E+02  0.47000000000E+01 0. -1.
        -11    1    6    6    0    0  0.37134813500E+02 -0.10211196012E+01  0.59572318712E+02  0.70206112381E+02  0.00000000000E+00 0.  1.
         12    1    6    6    0    0 -0.13372395097E+02  0.42800130005E+02  0.97041737040E+00  0.44851017702E+02  0.00000000000E+00 0. -1.
         -5    1    3    3    0  503  0.14882208681E+02  0.19534638277E+02 -0.61353998668E+02  0.66253191473E+02  0.47000000000E+01 0.  1.
         13    1    4    4    0    0 -0.29308769893E+02  0.17477245263E+01 -0.14153600408E+03  0.14454929604E+03  0.00000000000E+00 0. -1.
        -14    1    4    4    0    0 -0.69672630119E+02  0.22458441212E+01 -0.16229076212E+04  0.16244040342E+04  0.00000000000E+00 0.  1.
<mgrwt>
<rscale>  2 0.19259235E+03</rscale>
<asrwt>0</asrwt>
<pdfrwt beam="1">  1       21 0.21062102E-01 0.19498246E+03</pdfrwt>
<pdfrwt beam="2">  1       21 0.29267656E+00 0.19498246E+03</pdfrwt>
<totfact> 0.78557774E+02</totfact>
</mgrwt>
</event>
<event>
12    1  0.1019868E-001  0.1797421E+03  0.7546771E-02  0.1168610E+00
         21   -1    0    0  501  502  0.00000000000E+00  0.00000000000E+00  0.39163192239E+03  0.39163192239E+03  0.00000000000E+00 0.  1.
         21   -1    0    0  502  503 -0.00000000000E+00 -0.00000000000E+00 -0.22761382700E+03  0.22761382700E+03  0.00000000000E+00 0.  1.
         -6    2    1    2    0  503  0.23169060019E+02 -0.42279755491E+02 -0.16629154995E+03  0.24319831226E+03  0.17078687430E+03 0.  0.
        -24    2    3    3    0    0 -0.86650260207E+01 -0.31167724219E+02 -0.18470257677E+03  0.20449505424E+03  0.81588452830E+02 0.  0.
          6    2    1    2  501    0 -0.23169060019E+02  0.42279755491E+02  0.33030964535E+03  0.37604743713E+03  0.17315550841E+03 0.  0.
         24    2    5    5    0    0 -0.11387921233E+02 -0.32041470091E+02  0.25314885174E+03  0.26816640139E+03  0.81685599328E+02 0.  0.
          5    1    5    5  501    0 -0.11781138786E+02  0.74321225582E+02  0.77160793603E+02  0.10788103574E+03  0.47000000000E+01 0. -1.
        -13    1    6    6    0    0 -0.21341904043E+02 -0.16567952288E+02  0.24742809731E+03  0.24889884943E+03  0.00000000000E+00 0.  1.
         14    1    6    6    0    0  0.99539828097E+01 -0.15473517803E+02  0.57207544356E+01  0.19267551954E+02  0.00000000000E+00 0. -1.
         -5    1    3    3    0  503  0.31834086040E+02 -0.11112031271E+02  0.18411026813E+02  0.38703258019E+02  0.47000000000E+01 0.  1.
         11    1    4    4    0    0 -0.39175955299E+02  0.29785085143E+01 -0.11075609108E+03  0.11751824836E+03  0.00000000000E+00 0. -1.
        -12    1    4    4    0    0  0.30510929279E+02 -0.34146232734E+02 -0.73946485687E+02  0.86976805879E+02  0.00000000000E+00 0.  1.
<mgrwt>
<rscale>  2 0.17916917E+03</rscale>
<asrwt>0</asrwt>
<pdfrwt beam="1">  1       21 0.60251065E-01 0.17974207E+03</pdfrwt>
<pdfrwt beam="2">  1       21 0.35017512E-01 0.17974207E+03</pdfrwt>
<totfact> 0.20344951E+04</totfact>
</mgrwt>
</event>
<event>
12    1  0.1019868E-001  0.1772718E+03  0.7546771E-02  0.1170723E+00
         21   -1    0    0  503  502  0.00000000000E+00  0.00000000000E+00  0.19625248848E+04  0.19625248848E+04  0.00000000000E+00 0. -1.
         21   -1    0    0  501  503 -0.00000000000E+00 -0.00000000000E+00 -0.95295708531E+02  0.95295708531E+02  0.00000000000E+00 0. -1.
          6    2    1    2  501    0 -0.40685250302E+01 -0.33493037622E+02 -0.49722848972E+01  0.17734153207E+03  0.17403148829E+03 0.  0.
         24    2    3    3    0    0 -0.30683645083E+02 -0.82979436120E+02 -0.13059066992E+02  0.12037878726E+03  0.80581885665E+02 0.  0.
         -6    2    1    2    0  502  0.40685250302E+01  0.33493037622E+02  0.18722014612E+04  0.18804790613E+04  0.17298801166E+03 0.  0.
        -24    2    5    5    0    0  0.30548824785E+02 -0.38561959007E+02  0.11993125241E+04  0.12032089966E+04  0.83313286670E+02 0.  0.
          5    1    3    3  501    0  0.26615120053E+02  0.49486398498E+02  0.80867820950E+01  0.56962744811E+02  0.47000000000E+01 0. -1.
        -11    1    4    4    0    0 -0.40980338013E+02 -0.47148798170E+02  0.24830905836E+02  0.67223293263E+02  0.00000000000E+00 0.  1.
         12    1    4    4    0    0  0.10296692930E+02 -0.35830637950E+02 -0.37889972828E+02  0.53155493998E+02  0.00000000000E+00 0. -1.
         -5    1    5    5    0  502 -0.26480299755E+02  0.72054996629E+02  0.67288893707E+03  0.67727006463E+03  0.47000000000E+01 0.  1.
         13    1    6    6    0    0  0.77062229926E+00 -0.21800724517E+02  0.10419819076E+04  0.10422102288E+04  0.00000000000E+00 0. -1.
        -14    1    6    6    0    0  0.29778202486E+02 -0.16761234490E+02  0.15733061654E+03  0.16099876778E+03  0.00000000000E+00 0.  1.
<mgrwt>
<rscale>  2 0.17701518E+03</rscale>
<asrwt>0</asrwt>
<pdfrwt beam="1">  1       21 0.30192687E+00 0.17727181E+03</pdfrwt>
<pdfrwt beam="2">  1       21 0.14660880E-01 0.17727181E+03</pdfrwt>
<totfact> 0.13898812E+03</totfact>
</mgrwt>
</event>
<event>
12    1  0.1019868E-001  0.1775809E+03  0.7546771E-02  0.1170393E+00
         21   -1    0    0  501  502  0.00000000000E+00  0.00000000000E+00  0.82234939029E+03  0.82234939029E+03  0.00000000000E+00 0. -1.
         21   -1    0    0  502  503 -0.00000000000E+00 -0.00000000000E+00 -0.38452791614E+02  0.38452791614E+02  0.00000000000E+00 0. -1.
         -6    2    1    2    0  503  0.33042539832E+02  0.20595528683E+02  0.35260915132E+03  0.39438624334E+03  0.17231166562E+03 0.  0.
        -24    2    3    3    0    0 -0.10321020610E+02  0.72984986505E+02  0.20114422425E+03  0.22828757449E+03  0.78885271086E+02 0.  0.
          6    2    1    2  501    0 -0.33042539832E+02 -0.20595528683E+02  0.43128744736E+03  0.46641593856E+03  0.17325986336E+03 0.  0.
         24    2    5    5    0    0 -0.60449475324E+02  0.35396541806E+02  0.19675084288E+03  0.22369024789E+03  0.80121024630E+02 0.  0.
          5    1    5    5  501    0  0.27406935491E+02 -0.55992070488E+02  0.23453660448E+03  0.24272569067E+03  0.47000000000E+01 0. -1.
        -11    1    6    6    0    0 -0.11759113278E+02  0.51609963028E+02  0.12232611291E+03  0.13328744475E+03  0.00000000000E+00 0.  1.
         12    1    6    6    0    0 -0.48690362045E+02 -0.16213421222E+02  0.74424729968E+02  0.90402803135E+02  0.00000000000E+00 0. -1.
         -5    1    3    3    0  503  0.43363560443E+02 -0.52389457822E+02  0.15146492706E+03  0.16609866886E+03  0.47000000000E+01 0.  1.
         11    1    4    4    0    0  0.12921600780E+02 -0.42273258232E+01  0.23961720503E+01  0.13805060334E+02  0.00000000000E+00 0. -1.
        -12    1    4    4    0    0 -0.23242621390E+02  0.77212312328E+02  0.19874805220E+03  0.21448251415E+03  0.00000000000E+00 0.  1.
<mgrwt>
<rscale>  2 0.17734917E+03</rscale>
<asrwt>0</asrwt>
<pdfrwt beam="1">  1       21 0.12651528E+00 0.17758087E+03</pdfrwt>
<pdfrwt beam="2">  1       21 0.59158147E-02 0.17758087E+03</pdfrwt>
<totfact> 0.94132392E+04</totfact>
</mgrwt>
</event>
<event>
12    1  0.1019868E-001  0.2112002E+03  0.7546771E-02  0.1140691E+00
         21   -1    0    0  503  502  0.00000000000E+00  0.00000000000E+00  0.10677742857E+03  0.10677742857E+03  0.00000000000E+00 0.  1.
         21   -1    0    0  501  503 -0.00000000000E+00 -0.00000000000E+00 -0.47002007337E+03  0.47002007337E+03  0.00000000000E+00 0. -1.
          6    2    1    2  501    0 -0.64970277630E+02  0.10140960921E+03 -0.84633262303E+02  0.22718529989E+03  0.17304717733E+03 0.  0.
         24    2    3    3    0    0  0.19855983703E+02  0.82906774479E+02 -0.20305493420E+02  0.11902800076E+03  0.80545381989E+02 0.  0.
         -6    2    1    2    0  502  0.64970277630E+02 -0.10140960921E+03 -0.27860938250E+03  0.34961220204E+03  0.17349483562E+03 0.  0.
        -24    2    5    5    0    0  0.23778838564E+01  0.11467093211E+02 -0.75920402656E+02  0.10927104815E+03  0.77711684226E+02 0.  0.
          5    1    3    3  501    0 -0.84826261333E+02  0.18502834728E+02 -0.64327768883E+02  0.10815729913E+03  0.47000000000E+01 0. -1.
        -11    1    4    4    0    0 -0.29858770866E+02  0.21300821615E+02  0.21512391998E+01  0.36740972078E+02  0.00000000000E+00 0.  1.
         12    1    4    4    0    0  0.49714754570E+02  0.61605952864E+02 -0.22456732620E+02  0.82287028687E+02  0.00000000000E+00 0. -1.
         -5    1    5    5    0  502  0.62592393773E+02 -0.11287670242E+03 -0.20268897984E+03  0.24034115390E+03  0.47000000000E+01 0.  1.
         11    1    6    6    0    0 -0.32275266639E+02 -0.90766678743E+01 -0.53582495310E+02  0.63207298154E+02  0.00000000000E+00 0. -1.
        -12    1    6    6    0    0  0.34653150496E+02  0.20543761085E+02 -0.22337907347E+02  0.46063749993E+02  0.00000000000E+00 0.  1.
<mgrwt>
<rscale>  2 0.21110820E+03</rscale>
<asrwt>0</asrwt>
<pdfrwt beam="1">  1       21 0.16427297E-01 0.21120015E+03</pdfrwt>
<pdfrwt beam="2">  1       21 0.72310780E-01 0.21120015E+03</pdfrwt>
<totfact> 0.56792421E+04</totfact>
</mgrwt>
</event>
<event>
12    1  0.1019868E-001  0.2255294E+03  0.7546771E-02  0.1129842E+00
         21   -1    0    0  501  502  0.00000000000E+00  0.00000000000E+00  0.30726689350E+03  0.30726689350E+03  0.00000000000E+00 0.  1.
         21   -1    0    0  502  503 -0.00000000000E+00 -0.00000000000E+00 -0.16929043072E+03  0.16929043072E+03  0.00000000000E+00 0. -1.
         -6    2    1    2    0  503  0.10438218762E+02  0.14418993040E+03  0.10478173275E+03  0.24868194668E+03  0.17310056801E+03 0.  0.
        -24    2    3    3    0    0 -0.52484439828E+02  0.12621702745E+03  0.84860477565E+02  0.18011641151E+03  0.80964600914E+02 0.  0.
          6    2    1    2  501    0 -0.10438218762E+02 -0.14418993040E+03  0.33194730026E+02  0.22787537755E+03  0.17299018802E+03 0.  0.
         24    2    5    5    0    0  0.86708906452E+01 -0.80843454968E+01 -0.17348598678E+02  0.81360510109E+02  0.78600367317E+02 0.  0.
          5    1    5    5  501    0 -0.19109109408E+02 -0.13610558490E+03  0.50543328704E+02  0.14651486744E+03  0.47000000000E+01 0. -1.
        -13    1    6    6    0    0 -0.95384527784E+01  0.27894786468E+02  0.11642308606E+02  0.31696128204E+02  0.00000000000E+00 0.  1.
         14    1    6    6    0    0  0.18209343424E+02 -0.35979131964E+02 -0.28990907284E+02  0.49664381905E+02  0.00000000000E+00 0. -1.
         -5    1    3    3    0  503  0.62922658590E+02  0.17972902950E+02  0.19921255188E+02  0.68565535168E+02  0.47000000000E+01 0.  1.
         13    1    4    4    0    0 -0.87526414638E+01  0.98218892872E+02  0.26721711479E+02  0.10216461968E+03  0.00000000000E+00 0. -1.
        -14    1    4    4    0    0 -0.43731798364E+02  0.27998134575E+02  0.58138766086E+02  0.77951791832E+02  0.00000000000E+00 0.  1.
<mgrwt>
<rscale>  2 0.22550820E+03</rscale>
<asrwt>0</asrwt>
<pdfrwt beam="1">  1       21 0.47271830E-01 0.22552938E+03</pdfrwt>
<pdfrwt beam="2">  1       21 0.26044682E-01 0.22552938E+03</pdfrwt>
<totfact> 0.59083108E+04</totfact>
</mgrwt>
</event>
<event>
12    1  0.1019868E-001  0.2538054E+03  0.7546771E-02  0.1111625E+00
         21   -1    0    0  503  502  0.00000000000E+00  0.00000000000E+00  0.55976899849E+02  0.55976899849E+02  0.00000000000E+00 0. -1.
         21   -1    0    0  501  503 -0.00000000000E+00 -0.00000000000E+00 -0.12708507427E+04  0.12708507427E+04  0.00000000000E+00 0.  1.
          6    2    1    2  501    0  0.17498187238E+03  0.55954659631E+02 -0.83270039629E+03  0.87052117253E+03  0.17512162126E+03 0.  0.
         24    2    3    3    0    0  0.76282265964E+01  0.14216363311E+02 -0.28393807191E+03  0.29527209013E+03  0.79400778976E+02 0.  0.
         -6    2    1    2    0  502 -0.17498187238E+03 -0.55954659631E+02 -0.38217344655E+03  0.45630647001E+03  0.16855109531E+03 0.  0.
        -24    2    5    5    0    0 -0.16427066630E+03 -0.50358178373E+02 -0.39584661109E+03  0.43746247981E+03  0.71819800813E+02 0.  0.
          5    1    3    3  501    0  0.16735364579E+03  0.41738296319E+02 -0.54876232438E+03  0.57524908240E+03  0.47000000000E+01 0. -1.
        -13    1    4    4    0    0  0.36152924874E+02 -0.15101292748E+02 -0.11658044694E+03  0.12298814426E+03  0.00000000000E+00 0.  1.
         14    1    4    4    0    0 -0.28524698278E+02  0.29317656059E+02 -0.16735762496E+03  0.17228394586E+03  0.00000000000E+00 0. -1.
         -5    1    5    5    0  502 -0.10711206087E+02 -0.55964812577E+01  0.13673164544E+02  0.18843990207E+02  0.47000000000E+01 0.  1.
         13    1    6    6    0    0 -0.10356691934E+03 -0.43461561796E+02 -0.17196535804E+03  0.20539498169E+03  0.00000000000E+00 0. -1.
        -14    1    6    6    0    0 -0.60703746953E+02 -0.68966165770E+01 -0.22388125306E+03  0.23206749812E+03  0.00000000000E+00 0.  1.
<mgrwt>
<rscale>  2 0.25267580E+03</rscale>
<asrwt>0</asrwt>
<pdfrwt beam="1">  1       21 0.86118317E-02 0.25380536E+03</pdfrwt>
<pdfrwt beam="2">  1       21 0.19551548E+00 0.25380536E+03</pdfrwt>
<totfact> 0.14506707E+04</totfact>
</mgrwt>
</event>
<event>
12    1  0.1019868E-001  0.4298502E+03  0.7546771E-02  0.1034008E+00
         21   -1    0    0  503  502  0.00000000000E+00  0.00000000000E+00  0.99093026297E+03  0.99093026297E+03  0.00000000000E+00 0.  1.
         21   -1    0    0  501  503 -0.00000000000E+00 -0.00000000000E+00 -0.18965096032E+03  0.18965096032E+03  0.00000000000E+00 0. -1.
          6    2    1    2  501    0 -0.38647211369E+03  0.65955201142E+02  0.48412448736E+03  0.64741621105E+03  0.17623974535E+03 0.  0.
         24    2    3    3    0    0 -0.12647728682E+03 -0.20868900745E+02  0.21980324878E+03  0.26659664506E+03  0.79550536677E+02 0.  0.
         -6    2    1    2    0  502  0.38647211369E+03 -0.65955201142E+02  0.31715481528E+03  0.53316501224E+03  0.17310970569E+03 0.  0.
        -24    2    5    5    0    0  0.18722355183E+03 -0.79616628594E+02  0.11289347725E+03  0.24745290502E+03  0.84240946605E+02 0.  0.
          5    1    3    3  501    0 -0.25999482688E+03  0.86824101887E+02  0.26432123858E+03  0.38081956599E+03  0.47000000000E+01 0. -1.
        -13    1    4    4    0    0 -0.13364328402E+03 -0.94575478799E+01  0.21266172497E+03  0.25134633843E+03  0.00000000000E+00 0.  1.
         14    1    4    4    0    0  0.71659972006E+01 -0.11411352865E+02  0.71415238110E+01  0.15250306634E+02  0.00000000000E+00 0. -1.
         -5    1    5    5    0  502  0.19924856186E+03  0.13661427452E+02  0.20426133803E+03  0.28571210723E+03  0.47000000000E+01 0.  1.
         13    1    6    6    0    0  0.17486234645E+03 -0.59480604458E+02  0.68186177322E+02  0.19688610233E+03  0.00000000000E+00 0. -1.
        -14    1    6    6    0    0  0.12361205379E+02 -0.20136024136E+02  0.44707299932E+02  0.50566802683E+02  0.00000000000E+00 0.  1.
<mgrwt>
<rscale>  2 0.42953143E+03</rscale>
<asrwt>0</asrwt>
<pdfrwt beam="1">  1       21 0.15245081E+00 0.42985024E+03</pdfrwt>
<pdfrwt beam="2">  1       21 0.29177071E-01 0.42985024E+03</pdfrwt>
<totfact> 0.27959914E+03</totfact>
</mgrwt>
</event>
<event>
12    1  0.1019868E-001  0.2945519E+03  0.7546771E-02  0.1088101E+00
         21   -1    0    0  501  502  0.00000000000E+00  0.00000000000E+00  0.90327556930E+02  0.90327556930E+02  0.00000000000E+00 0.  1.
         21   -1    0    0  502  503 -0.00000000000E+00 -0.00000000000E+00 -0.11631411608E+04  0.11631411608E+04  0.00000000000E+00 0. -1.
         -6    2    1    2    0  503 -0.12448691651E+03 -0.20251057829E+03 -0.80031845226E+03  0.85280152115E+03  0.17393470829E+03 0.  0.
        -24    2    3    3    0    0 -0.74820408133E+02 -0.63741332469E+02 -0.52826590101E+03  0.54335306618E+03  0.80663755320E+02 0.  0.
          6    2    1    2  501    0  0.12448691651E+03  0.20251057829E+03 -0.27249515156E+03  0.40066719653E+03  0.17254874109E+03 0.  0.
         24    2    5    5    0    0  0.95945364952E+02  0.10514893785E+03 -0.76250558054E+02  0.17969674675E+03  0.78835023963E+02 0.  0.
          5    1    5    5  501    0  0.28541551556E+02  0.97361640439E+02 -0.19624459351E+03  0.22097044978E+03  0.47000000000E+01 0. -1.
        -11    1    6    6    0    0  0.12179278455E+02  0.71203428693E+02 -0.36950574659E+02  0.81139435843E+02  0.00000000000E+00 0.  1.
         12    1    6    6    0    0  0.83766086497E+02  0.33945509158E+02 -0.39299983395E+02  0.98557310911E+02  0.00000000000E+00 0. -1.
         -5    1    3    3    0  503 -0.49666508375E+02 -0.13876924582E+03 -0.27205255125E+03  0.30944845497E+03  0.47000000000E+01 0.  1.
         13    1    4    4    0    0 -0.19731799052E+02 -0.56722717745E+02 -0.15955494472E+03  0.17048340384E+03  0.00000000000E+00 0. -1.
        -14    1    4    4    0    0 -0.55088609081E+02 -0.70186147242E+01 -0.36871095629E+03  0.37286966234E+03  0.00000000000E+00 0.  1.
<mgrwt>
<rscale>  2 0.29434759E+03</rscale>
<asrwt>0</asrwt>
<pdfrwt beam="1">  1       21 0.13896548E-01 0.29455188E+03</pdfrwt>
<pdfrwt beam="2">  1       21 0.17894478E+00 0.29455188E+03</pdfrwt>
<totfact> 0.77762756E+03</totfact>
</mgrwt>
</event>
<event>
12    1  0.1019868E-001  0.2186492E+03  0.7546771E-02  0.1135174E+00
         21   -1    0    0  503  502  0.00000000000E+00  0.00000000000E+00  0.49425744142E+03  0.49425744142E+03  0.00000000000E+00 0. -1.
         21   -1    0    0  501  503 -0.00000000000E+00 -0.00000000000E+00 -0.96392540005E+02  0.96392540005E+02  0.00000000000E+00 0. -1.
          6    2    1    2  501    0  0.93961605393E+02 -0.90376793350E+02  0.21532492826E+03  0.30581968909E+03  0.17367817779E+03 0.  0.
         24    2    3    3    0    0  0.10424774358E+02 -0.59769785769E+02  0.18522640507E+03  0.21178138758E+03  0.82833759890E+02 0.  0.
         -6    2    1    2    0  502 -0.93961605393E+02  0.90376793350E+02  0.18253997315E+03  0.28483029233E+03  0.17552978542E+03 0.  0.
        -24    2    5    5    0    0 -0.38629547014E+02  0.10970026735E+03  0.17539032440E+03  0.22559988790E+03  0.81284395614E+02 0.  0.
          5    1    3    3  501    0  0.83536831036E+02 -0.30607007582E+02  0.30098523186E+02  0.94038301508E+02  0.47000000000E+01 0. -1.
        -11    1    4    4    0    0  0.13495713293E+02 -0.31186775960E+02  0.17921994091E+03  0.18241309298E+03  0.00000000000E+00 0.  1.
         12    1    4    4    0    0 -0.30709389359E+01 -0.28583009809E+02  0.60064641625E+01  0.29368294595E+02  0.00000000000E+00 0. -1.
         -5    1    5    5    0  502 -0.55332058380E+02 -0.19323473996E+02  0.71496487535E+01  0.59230404431E+02  0.47000000000E+01 0.  1.
         11    1    6    6    0    0  0.12066166914E+02  0.75215584453E+02  0.12432465659E+03  0.14580671029E+03  0.00000000000E+00 0. -1.
        -12    1    6    6    0    0 -0.50695713928E+02  0.34484682893E+02  0.51065667805E+02  0.79793177611E+02  0.00000000000E+00 0.  1.
<mgrwt>
<rscale>  2 0.21827730E+03</rscale>
<asrwt>0</asrwt>
<pdfrwt beam="1">  1       21 0.76039605E-01 0.21864916E+03</pdfrwt>
<pdfrwt beam="2">  1       21 0.14829622E-01 0.21864916E+03</pdfrwt>
<totfact> 0.61013178E+04</totfact>
</mgrwt>
</event>
<event>
12    1  0.1019868E-001  0.1814583E+03  0.7546771E-02  0.1166492E+00
         21   -1    0    0  503  502  0.00000000000E+00  0.00000000000E+00  0.47908859440E+03  0.47908859440E+03  0.00000000000E+00 0.  1.
         21   -1    0    0  501  503 -0.00000000000E+00 -0.00000000000E+00 -0.80902928699E+02  0.80902928699E+02  0.00000000000E+00 0.  1.
          6    2    1    2  501    0  0.36365927468E+02 -0.26654148970E+02  0.30853725035E+03  0.35794181391E+03  0.17576741153E+03 0.  0.
         24    2    3    3    0    0  0.47717773585E+02  0.47075544856E+02  0.20438415773E+03  0.22974318340E+03  0.80721456566E+02 0.  0.
         -6    2    1    2    0  502 -0.36365927468E+02  0.26654148970E+02  0.89648415350E+02  0.20204970919E+03  0.17536910295E+03 0.  0.
        -24    2    5    5    0    0 -0.18409135085E+02  0.22536124163E+02  0.13097013395E+03  0.15656367892E+03  0.80698428883E+02 0.  0.
          5    1    3    3  501    0 -0.11351846117E+02 -0.73729693827E+02  0.10415309262E+03  0.12819863051E+03  0.47000000000E+01 0. -1.
        -11    1    4    4    0    0  0.57142319893E+02  0.32895327784E+01  0.14060448182E+03  0.15180805662E+03  0.00000000000E+00 0.  1.
         12    1    4    4    0    0 -0.94245463081E+01  0.43786012078E+02  0.63779675915E+02  0.77935126782E+02  0.00000000000E+00 0. -1.
         -5    1    5    5    0  502 -0.17956792383E+02  0.41180248073E+01 -0.41321718600E+02  0.45486030263E+02  0.47000000000E+01 0.  1.
         13    1    6    6    0    0  0.29196124657E+02  0.20895700334E+02  0.74401100650E+02  0.82610942165E+02  0.00000000000E+00 0. -1.
        -14    1    6    6    0    0 -0.47605259743E+02  0.16404238292E+01  0.56569033300E+02  0.73952736758E+02  0.00000000000E+00 0.  1.
<mgrwt>
<rscale>  2 0.18136176E+03</rscale>
<asrwt>0</asrwt>
<pdfrwt beam="1">  1       21 0.73705936E-01 0.18145828E+03</pdfrwt>
<pdfrwt beam="2">  1       21 0.12446605E-01 0.18145828E+03</pdfrwt>
<totfact> 0.91253768E+04</totfact>
</mgrwt>
</event>
<event>
12    1  0.1019868E-001  0.2155315E+03  0.7546771E-02  0.1137287E+00
         21   -1    0    0  503  502  0.00000000000E+00  0.00000000000E+00  0.38487535610E+03  0.38487535610E+03  0.00000000000E+00 0. -1.
         21   -1    0    0  501  503 -0.00000000000E+00 -0.00000000000E+00 -0.20770683247E+03  0.20770683247E+03  0.00000000000E+00 0. -1.
          6    2    1    2  501    0  0.10455375968E+03 -0.74195805690E+02 -0.10329196041E+03  0.23887059483E+03  0.17307058024E+03 0.  0.
         24    2    3    3    0    0  0.65515843505E+02 -0.94147911356E+02 -0.15722844830E+02  0.14082731141E+03  0.80180850748E+02 0.  0.
         -6    2    1    2    0  502 -0.10455375968E+03  0.74195805690E+02  0.28046048404E+03  0.35371159373E+03  0.17325502066E+03 0.  0.
        -24    2    5    5    0    0  0.10687946286E+02  0.23298394726E+02  0.79791622277E+02  0.11672788265E+03  0.81250527439E+02 0.  0.
          5    1    3    3  501    0  0.39037916179E+02  0.19952105666E+02 -0.87569115583E+02  0.98043283421E+02  0.47000000000E+01 0. -1.
        -13    1    4    4    0    0  0.27249945785E+02 -0.55541937315E+02 -0.47378604257E+02  0.77924312556E+02  0.00000000000E+00 0.  1.
         14    1    4    4    0    0  0.38265897720E+02 -0.38605974041E+02  0.31655759427E+02  0.62902998854E+02  0.00000000000E+00 0. -1.
         -5    1    5    5    0  502 -0.11524170597E+03  0.50897410964E+02  0.20066886176E+03  0.23698371108E+03  0.47000000000E+01 0.  1.
         11    1    6    6    0    0 -0.97553120437E+01 -0.14894856842E+02 -0.74670620848E+01  0.19307508633E+02  0.00000000000E+00 0. -1.
        -12    1    6    6    0    0  0.20443258329E+02  0.38193251569E+02  0.87258684362E+02  0.97420374015E+02  0.00000000000E+00 0.  1.
<mgrwt>
<rscale>  2 0.21549439E+03</rscale>
<asrwt>0</asrwt>
<pdfrwt beam="1">  1       21 0.59211593E-01 0.21553146E+03</pdfrwt>
<pdfrwt beam="2">  1       21 0.31954897E-01 0.21553146E+03</pdfrwt>
<totfact> 0.24785443E+04</totfact>
</mgrwt>
</event>
<event>
12    1  0.1019868E-001  0.2292557E+03  0.7546771E-02  0.1127194E+00
         21   -1    0    0  501  502  0.00000000000E+00  0.00000000000E+00  0.11578063533E+04  0.11578063533E+04  0.00000000000E+00 0.  1.
         21   -1    0    0  502  503 -0.00000000000E+00 -0.00000000000E+00 -0.13362151100E+03  0.13362151100E+03  0.00000000000E+00 0.  1.
         -6    2    1    2    0  503 -0.14190181369E+03 -0.51395365384E+02 -0.12631478851E+02  0.22960337077E+03  0.17257040679E+03 0.  0.
        -24    2    3    3    0    0 -0.14804550135E+03  0.10912571730E+02 -0.36342812998E+01  0.16617574675E+03  0.74596354579E+02 0.  0.
          6    2    1    2  501    0  0.14190181369E+03  0.51395365384E+02  0.10368163212E+04  0.10618244936E+04  0.17235301832E+03 0.  0.
         24    2    5    5    0    0  0.15752170808E+03  0.51111003525E+02  0.67934448888E+03  0.70398058505E+03  0.81573931851E+02 0.  0.
          5    1    5    5  501    0 -0.15619894386E+02  0.28436185932E+00  0.35747183231E+03  0.35784390850E+03  0.47000000000E+01 0. -1.
        -13    1    6    6    0    0  0.41195792729E+02  0.17437604238E+02  0.35423781039E+03  0.35705124239E+03  0.00000000000E+00 0.  1.
         14    1    6    6    0    0  0.11632591535E+03  0.33673399287E+02  0.32510667849E+03  0.34692934266E+03  0.00000000000E+00 0. -1.
         -5    1    3    3    0  503  0.61436876566E+01 -0.62307937114E+02 -0.89971975514E+01  0.63427624023E+02  0.47000000000E+01 0.  1.
         11    1    4    4    0    0 -0.10562800690E+03  0.40691548631E+01  0.31904974715E+02  0.11041630891E+03  0.00000000000E+00 0. -1.
        -12    1    4    4    0    0 -0.42417494448E+02  0.68434168666E+01 -0.35539256014E+02  0.55759437835E+02  0.00000000000E+00 0.  1.
<mgrwt>
<rscale>  2 0.22921474E+03</rscale>
<asrwt>0</asrwt>
<pdfrwt beam="1">  1       21 0.17812405E+00 0.22925565E+03</pdfrwt>
<pdfrwt beam="2">  1       21 0.20557156E-01 0.22925565E+03</pdfrwt>
<totfact> 0.39818195E+03</totfact>
</mgrwt>
</event>
<event>
12    1  0.1019868E-001  0.2304081E+03  0.7546771E-02  0.1126398E+00
         21   -1    0    0  503  502  0.00000000000E+00  0.00000000000E+00  0.96779836278E+02  0.96779836278E+02  0.00000000000E+00 0. -1.
         21   -1    0    0  501  503 -0.00000000000E+00 -0.00000000000E+00 -0.68750916876E+03  0.68750916876E+03  0.00000000000E+00 0. -1.
          6    2    1    2  501    0  0.14562739426E+03 -0.45505268359E+02 -0.47192493511E+03  0.52505475931E+03  0.17231160288E+03 0.  0.
         24    2    3    3    0    0  0.86976036874E+02 -0.86552698492E+02 -0.23425012217E+03  0.27678820911E+03  0.81745901164E+02 0.  0.
         -6    2    1    2    0  502 -0.14562739426E+03  0.45505268359E+02 -0.11880439738E+03  0.25923424574E+03  0.17265526901E+03 0.  0.
        -24    2    5    5    0    0 -0.11329866861E+03  0.59586875822E+02 -0.14043222401E+02  0.14859776010E+03  0.74141069132E+02 0.  0.
          5    1    3    3  501    0  0.58651357390E+02  0.41047430133E+02 -0.23767481293E+03  0.24826655020E+03  0.47000000000E+01 0. -1.
        -11    1    4    4    0    0  0.19201014542E+02 -0.45193169999E+02 -0.16255845978E+03  0.16981270394E+03  0.00000000000E+00 0.  1.
         12    1    4    4    0    0  0.67775022333E+02 -0.41359528492E+02 -0.71691662397E+02  0.10697550517E+03  0.00000000000E+00 0. -1.
         -5    1    5    5    0  502 -0.32328725656E+02 -0.14081607463E+02 -0.10476117498E+03  0.11063648564E+03  0.47000000000E+01 0.  1.
         11    1    6    6    0    0 -0.10679752532E+03  0.30424115899E+02  0.81996991796E+01  0.11134888104E+03  0.00000000000E+00 0. -1.
        -12    1    6    6    0    0 -0.65011432869E+01  0.29162759923E+02 -0.22242921580E+02  0.37248879054E+02  0.00000000000E+00 0.  1.
<mgrwt>
<rscale>  2 0.23034376E+03</rscale>
<asrwt>0</asrwt>
<pdfrwt beam="1">  1       21 0.14889205E-01 0.23040814E+03</pdfrwt>
<pdfrwt beam="2">  1       21 0.10577065E+00 0.23040814E+03</pdfrwt>
<totfact> 0.27950320E+04</totfact>
</mgrwt>
</event>
<event>
12    1  0.1019868E-001  0.2069932E+03  0.7546771E-02  0.1145701E+00
         21   -1    0    0  501  502  0.00000000000E+00  0.00000000000E+00  0.35358281319E+03  0.35358281319E+03  0.00000000000E+00 0.  1.
         21   -1    0    0  502  503 -0.00000000000E+00 -0.00000000000E+00 -0.11705593373E+03  0.11705593373E+03  0.00000000000E+00 0.  1.
         -6    2    1    2    0  503  0.45965229560E+02 -0.84882378510E+02  0.10194835713E+03  0.23073720874E+03  0.18310754071E+03 0.  0.
        -24    2    3    3    0    0  0.28600073712E+02 -0.12822008449E+03  0.10003841401E+03  0.18377506143E+03  0.80667432343E+02 0.  0.
          6    2    1    2  501    0 -0.45965229560E+02  0.84882378510E+02  0.13457852232E+03  0.23990153818E+03  0.17356136909E+03 0.  0.
         24    2    5    5    0    0 -0.86818646061E+02  0.21639223793E+02  0.99348446221E+02  0.15664322616E+03  0.81616500934E+02 0.  0.
          5    1    5    5  501    0  0.40853416502E+02  0.63243154717E+02  0.35230076100E+02  0.83258312020E+02  0.47000000000E+01 0. -1.
        -13    1    6    6    0    0 -0.49971165398E+02 -0.23155043523E+02  0.20517048259E+02  0.58772635478E+02  0.00000000000E+00 0.  1.
         14    1    6    6    0    0 -0.36847480663E+02  0.44794267317E+02  0.78831397961E+02  0.97870590681E+02  0.00000000000E+00 0. -1.
         -5    1    3    3    0  503  0.17365155848E+02  0.43337705983E+02  0.19099431238E+01  0.46962147313E+02  0.47000000000E+01 0.  1.
         11    1    4    4    0    0  0.35541934916E+02 -0.69521498422E+02  0.97093910492E+02  0.12459412239E+03  0.00000000000E+00 0. -1.
        -12    1    4    4    0    0 -0.69418612042E+01 -0.58698586072E+02  0.29445035170E+01  0.59180939032E+02  0.00000000000E+00 0.  1.
<mgrwt>
<rscale>  2 0.20486185E+03</rscale>
<asrwt>0</asrwt>
<pdfrwt beam="1">  1       21 0.54397355E-01 0.20699322E+03</pdfrwt>
<pdfrwt beam="2">  1       21 0.18008605E-01 0.20699322E+03</pdfrwt>
<totfact> 0.89021015E+04</totfact>
</mgrwt>
</event>
<event>
12    1  0.1019868E-001  0.1799295E+03  0.7546771E-02  0.1168016E+00
         21   -1    0    0  503  502  0.00000000000E+00  0.00000000000E+00  0.62845672173E+02  0.62845672173E+02  0.00000000000E+00 0. -1.
         21   -1    0    0  501  503 -0.00000000000E+00 -0.00000000000E+00 -0.76282512005E+03  0.76282512005E+03  0.00000000000E+00 0. -1.
          6    2    1    2  501    0 -0.46807552120E+02  0.67039407927E+01 -0.58643035514E+03  0.61341274692E+03  0.17360514652E+03 0.  0.
         24    2    3    3    0    0 -0.64011835159E+02 -0.15912274843E+02 -0.57164186100E+03  0.58103574701E+03  0.80482336700E+02 0.  0.
         -6    2    1    2    0  502  0.46807552120E+02 -0.67039407927E+01 -0.11354909274E+03  0.21225804530E+03  0.17298610226E+03 0.  0.
        -24    2    5    5    0    0  0.46589879651E+02 -0.69047653590E+02 -0.64247226913E+02  0.13263675493E+03  0.80787420063E+02 0.  0.
          5    1    3    3  501    0  0.17204283040E+02  0.22616215636E+02 -0.14788494139E+02  0.32376999915E+02  0.47000000000E+01 0. -1.
        -11    1    4    4    0    0  0.94690762031E+01 -0.27602207223E+02 -0.13727273471E+03  0.14034011879E+03  0.00000000000E+00 0.  1.
         12    1    4    4    0    0 -0.73480911362E+02  0.11689932380E+02 -0.43436912629E+03  0.44069562821E+03  0.00000000000E+00 0. -1.
         -5    1    5    5    0  502  0.21767246855E+00  0.62343712797E+02 -0.49301865827E+02  0.79621290373E+02  0.47000000000E+01 0.  1.
         13    1    6    6    0    0 -0.17423854706E+02 -0.35212835579E+02 -0.60692506407E+01  0.39753871581E+02  0.00000000000E+00 0. -1.
        -14    1    6    6    0    0  0.64013734357E+02 -0.33834818011E+02 -0.58177976272E+02  0.92882883349E+02  0.00000000000E+00 0.  1.
<mgrwt>
<rscale>  2 0.17978004E+03</rscale>
<asrwt>0</asrwt>
<pdfrwt beam="1">  1       21 0.96685648E-02 0.17992953E+03</pdfrwt>
<pdfrwt beam="2">  1       21 0.11735771E+00 0.17992953E+03</pdfrwt>
<totfact> 0.48365355E+04</totfact>
</mgrwt>
</event>
<event>
12    1  0.1019868E-001  0.2398986E+03  0.7546771E-02  0.1119944E+00
         21   -1    0    0  501  502  0.00000000000E+00  0.00000000000E+00  0.98472933622E+03  0.98472933622E+03  0.00000000000E+00 0.  1.
         21   -1    0    0  502  503 -0.00000000000E+00 -0.00000000000E+00 -0.58322196754E+02  0.58322196754E+02  0.00000000000E+00 0. -1.
         -6    2    1    2    0  503  0.16286663159E+03  0.36006198529E+02  0.46317344609E+03  0.52138422519E+03  0.17172618639E+03 0.  0.
        -24    2    3    3    0    0  0.10482562524E+03  0.83416013553E+02  0.24665699655E+03  0.29221635680E+03  0.81265504435E+02 0.  0.
          6    2    1    2  501    0 -0.16286663159E+03 -0.36006198529E+02  0.46323369337E+03  0.52166730778E+03  0.17242198038E+03 0.  0.
         24    2    5    5    0    0 -0.13005247242E+03  0.14042441051E+02  0.42206849280E+03  0.44887789163E+03  0.78985525544E+02 0.  0.
          5    1    5    5  501    0 -0.32814159170E+02 -0.50048639579E+02  0.41165200568E+02  0.72789416151E+02  0.47000000000E+01 0. -1.
        -11    1    6    6    0    0 -0.86849617774E+02 -0.27787638871E+02  0.22295229281E+03  0.24087908554E+03  0.00000000000E+00 0.  1.
         12    1    6    6    0    0 -0.43202854644E+02  0.41830079921E+02  0.19911619999E+03  0.20799880609E+03  0.00000000000E+00 0. -1.
         -5    1    3    3    0  503  0.58041006346E+02 -0.47409815025E+02  0.21651644955E+03  0.22916786839E+03  0.47000000000E+01 0.  1.
         13    1    4    4    0    0  0.11174743443E+03  0.63760498226E+02  0.23604537702E+03  0.26883137884E+03  0.00000000000E+00 0. -1.
        -14    1    4    4    0    0 -0.69218091886E+01  0.19655515327E+02  0.10611619526E+02  0.23384977960E+02  0.00000000000E+00 0.  1.
<mgrwt>
<rscale>  2 0.23977358E+03</rscale>
<asrwt>0</asrwt>
<pdfrwt beam="1">  1       21 0.15149681E+00 0.23989857E+03</pdfrwt>
<pdfrwt beam="2">  1       21 0.89726464E-02 0.23989857E+03</pdfrwt>
<totfact> 0.27805830E+04</totfact>
</mgrwt>
</event>
<event>
12    1  0.1019868E-001  0.4026881E+03  0.7546771E-02  0.1042868E+00
         21   -1    0    0  503  502  0.00000000000E+00  0.00000000000E+00  0.10044863238E+04  0.10044863238E+04  0.00000000000E+00 0. -1.
         21   -1    0    0  501  503 -0.00000000000E+00 -0.00000000000E+00 -0.66461712831E+03  0.66461712831E+03  0.00000000000E+00 0.  1.
          6    2    1    2  501    0 -0.35650772646E+03 -0.71630355864E+02 -0.55626408845E+03  0.68672224124E+03  0.17300009716E+03 0.  0.
         24    2    3    3    0    0 -0.34095725474E+03 -0.30931103705E+02 -0.52884654694E+03  0.63503028946E+03  0.79851209028E+02 0.  0.
         -6    2    1    2    0  502  0.35650772646E+03  0.71630355864E+02  0.89613328398E+03  0.98238121092E+03  0.17259581107E+03 0.  0.
        -24    2    5    5    0    0  0.35705153870E+03  0.36560956551E+02  0.84417258679E+03  0.91951498348E+03  0.63701991495E+02 0.  0.
          5    1    3    3  501    0 -0.15550471723E+02 -0.40699252159E+02 -0.27417541504E+02  0.51691951784E+02  0.47000000000E+01 0. -1.
        -11    1    4    4    0    0 -0.32834531202E+03 -0.45545972600E+02 -0.48918829902E+03  0.59092323650E+03  0.00000000000E+00 0.  1.
         12    1    4    4    0    0 -0.12611942720E+02  0.14614868895E+02 -0.39658247925E+02  0.44107052956E+02  0.00000000000E+00 0. -1.
         -5    1    5    5    0  502 -0.54381223974E+00  0.35069399313E+02  0.51960697186E+02  0.62866227436E+02  0.47000000000E+01 0.  1.
         13    1    6    6    0    0  0.10149787462E+03  0.10005752605E+02  0.31816008659E+03  0.33410742933E+03  0.00000000000E+00 0. -1.
        -14    1    6    6    0    0  0.25555366408E+03  0.26555203946E+02  0.52601250020E+03  0.58540755415E+03  0.00000000000E+00 0.  1.
<mgrwt>
<rscale>  2 0.40264471E+03</rscale>
<asrwt>0</asrwt>
<pdfrwt beam="1">  1       21 0.15453636E+00 0.40268809E+03</pdfrwt>
<pdfrwt beam="2">  1       21 0.10224879E+00 0.40268809E+03</pdfrwt>
<totfact> 0.17954372E+02</totfact>
</mgrwt>
</event>
<event>
12    1  0.1019868E-001  0.1956386E+03  0.7546771E-02  0.1153497E+00
         21   -1    0    0  501  502  0.00000000000E+00  0.00000000000E+00  0.37124087805E+02  0.37124087805E+02  0.00000000000E+00 0. -1.
         21   -1    0    0  502  503 -0.00000000000E+00 -0.00000000000E+00 -0.10510837623E+04  0.10510837623E+04  0.00000000000E+00 0. -1.
         -6    2    1    2    0  503 -0.61585816712E+02  0.71650691090E+02 -0.43076452074E+03  0.47310942841E+03  0.17131206777E+03 0.  0.
        -24    2    3    3    0    0  0.17152507646E+02  0.44812868118E+02 -0.12490879713E+03  0.15610815691E+03  0.80406140220E+02 0.  0.
          6    2    1    2  501    0  0.61585816712E+02 -0.71650691090E+02 -0.58319515370E+03  0.61509842165E+03  0.17118074267E+03 0.  0.
         24    2    5    5    0    0  0.67763704230E+02 -0.68684779971E+02 -0.59081226757E+03  0.60382574022E+03  0.78973859175E+02 0.  0.
          5    1    5    5  501    0 -0.61778875180E+01 -0.29659111189E+01  0.76171138660E+01  0.11272681429E+02  0.47000000000E+01 0. -1.
        -11    1    6    6    0    0  0.10511026533E+02 -0.29079924860E+02 -0.51730336232E+02  0.60267332738E+02  0.00000000000E+00 0.  1.
         12    1    6    6    0    0  0.57252677697E+02 -0.39604855111E+02 -0.53908193134E+03  0.54355840748E+03  0.00000000000E+00 0. -1.
         -5    1    3    3    0  503 -0.78738324358E+02  0.26837822972E+02 -0.30585572362E+03  0.31700127150E+03  0.47000000000E+01 0.  1.
         11    1    4    4    0    0 -0.59398586754E+01  0.14493440487E+02  0.81794232534E+01  0.17670447164E+02  0.00000000000E+00 0. -1.
        -12    1    4    4    0    0  0.23092366321E+02  0.30319427631E+02 -0.13308822038E+03  0.13843770974E+03  0.00000000000E+00 0.  1.
<mgrwt>
<rscale>  2 0.19560984E+03</rscale>
<asrwt>0</asrwt>
<pdfrwt beam="1">  1       21 0.57113973E-02 0.19563859E+03</pdfrwt>
<pdfrwt beam="2">  1       21 0.16170522E+00 0.19563859E+03</pdfrwt>
<totfact> 0.52377103E+04</totfact>
</mgrwt>
</event>
<event>
12    1  0.1019868E-001  0.2854395E+03  0.7546771E-02  0.1093137E+00
         21   -1    0    0  501  502  0.00000000000E+00  0.00000000000E+00  0.69354112993E+02  0.69354112993E+02  0.00000000000E+00 0.  1.
         21   -1    0    0  502  503 -0.00000000000E+00 -0.00000000000E+00 -0.15621617966E+04  0.15621617966E+04  0.00000000000E+00 0.  1.
         -6    2    1    2    0  503  0.40391232674E+02 -0.22001961425E+03 -0.11615313142E+04  0.11960897500E+04  0.17730091365E+03 0.  0.
        -24    2    3    3    0    0 -0.31615675368E+01 -0.11100173535E+03 -0.88747239730E+03  0.89790838869E+03  0.79377816581E+02 0.  0.
          6    2    1    2  501    0 -0.40391232674E+02  0.22001961425E+03 -0.33127636939E+03  0.43542615952E+03  0.17266101224E+03 0.  0.
         24    2    5    5    0    0  0.11082612315E+02  0.19980546178E+03 -0.20478587906E+03  0.29729541413E+03  0.80014124677E+02 0.  0.
          5    1    5    5  501    0 -0.51473844988E+02  0.20214152470E+02 -0.12649049033E+03  0.13813074539E+03  0.47000000000E+01 0. -1.
        -11    1    6    6    0    0  0.42450224787E+02  0.15267133662E+03 -0.15900789597E+03  0.22448623475E+03  0.00000000000E+00 0.  1.
         12    1    6    6    0    0 -0.31367612472E+02  0.47134125161E+02 -0.45777983090E+02  0.72809179385E+02  0.00000000000E+00 0. -1.
         -5    1    3    3    0  503  0.43552800211E+02 -0.10901787890E+03 -0.27405891688E+03  0.29818136133E+03  0.47000000000E+01 0.  1.
         13    1    4    4    0    0 -0.27332061732E+02 -0.82762216173E+02 -0.41931177177E+03  0.42827443068E+03  0.00000000000E+00 0. -1.
        -14    1    4    4    0    0  0.24170494195E+02 -0.28239519180E+02 -0.46816062552E+03  0.46963395802E+03  0.00000000000E+00 0.  1.
<mgrwt>
<rscale>  2 0.28472211E+03</rscale>
<asrwt>0</asrwt>
<pdfrwt beam="1">  1       21 0.10669864E-01 0.28543948E+03</pdfrwt>
<pdfrwt beam="2">  1       21 0.24033257E+00 0.28543948E+03</pdfrwt>
<totfact> 0.50767924E+03</totfact>
</mgrwt>
</event>
<event>
12    1  0.1019868E-001  0.1805385E+03  0.7546771E-02  0.1168200E+00
         21   -1    0    0  503  502  0.00000000000E+00  0.00000000000E+00  0.23313392131E+03  0.23313392131E+03  0.00000000000E+00 0.  1.
         21   -1    0    0  501  503 -0.00000000000E+00 -0.00000000000E+00 -0.14408707163E+03  0.14408707163E+03  0.00000000000E+00 0.  1.
          6    2    1    2  501    0 -0.39970097689E+02  0.14195573898E+02  0.86170887318E+02  0.19665960644E+03  0.17161135148E+03 0.  0.
         24    2    3    3    0    0  0.19204149187E+02  0.58470228792E+02  0.65909761926E+02  0.11988435156E+03  0.78997430536E+02 0.  0.
         -6    2    1    2    0  502  0.39970097689E+02 -0.14195573898E+02  0.28759623606E+01  0.18056138651E+03  0.17548509940E+03 0.  0.
        -24    2    5    5    0    0  0.30791500237E+01 -0.74054414347E+02 -0.94947498372E+01  0.10901316976E+03  0.79373694996E+02 0.  0.
          5    1    3    3  501    0 -0.59174246875E+02 -0.44274654894E+02  0.20261125392E+02  0.76775254877E+02  0.47000000000E+01 0. -1.
        -11    1    4    4    0    0  0.98658620276E+01 -0.38853443729E+01 -0.14336124453E+02  0.17831309508E+02  0.00000000000E+00 0.  1.
         12    1    4    4    0    0  0.93382871589E+01  0.62355573165E+02  0.80245886379E+02  0.10205304205E+03  0.00000000000E+00 0. -1.
         -5    1    5    5    0  502  0.36890947665E+02  0.59858840449E+02  0.12370712198E+02  0.71548216748E+02  0.47000000000E+01 0.  1.
         11    1    6    6    0    0  0.38170901551E+02 -0.17393082664E+02 -0.32007541702E+01  0.42068775559E+02  0.00000000000E+00 0. -1.
        -12    1    6    6    0    0 -0.35091751527E+02 -0.56661331683E+02 -0.62939956671E+01  0.66944394200E+02  0.00000000000E+00 0.  1.
<mgrwt>
<rscale>  2 0.17959029E+03</rscale>
<asrwt>0</asrwt>
<pdfrwt beam="1">  1       21 0.35866757E-01 0.18053848E+03</pdfrwt>
<pdfrwt beam="2">  1       21 0.22167242E-01 0.18053848E+03</pdfrwt>
<totfact> 0.14320868E+05</totfact>
</mgrwt>
</event>
<event>
12    1  0.1019868E-001  0.2330852E+03  0.7546771E-02  0.1125651E+00
         21   -1    0    0  501  502  0.00000000000E+00  0.00000000000E+00  0.49933396373E+03  0.49933396373E+03  0.00000000000E+00 0. -1.
         21   -1    0    0  502  503 -0.00000000000E+00 -0.00000000000E+00 -0.11225736750E+03  0.11225736750E+03  0.00000000000E+00 0.  1.
         -6    2    1    2    0  503  0.11350805278E+03  0.10471864061E+03  0.12244365396E+03  0.26328911028E+03  0.17458131475E+03 0.  0.
        -24    2    3    3    0    0  0.78902278674E+02  0.17298675249E+02  0.12728754027E+03  0.16902690587E+03  0.76440586437E+02 0.  0.
          6    2    1    2  501    0 -0.11350805278E+03 -0.10471864061E+03  0.26463294228E+03  0.34830222096E+03  0.16563143194E+03 0.  0.
         24    2    5    5    0    0 -0.30784101440E+02 -0.10049969712E+03  0.98750313362E+02  0.16282934373E+03  0.75590480679E+02 0.  0.
          5    1    5    5  501    0 -0.82723951339E+02 -0.42189434961E+01  0.16588262891E+03  0.18547287722E+03  0.47000000000E+01 0. -1.
        -11    1    6    6    0    0 -0.14464434180E+02 -0.10970181980E+03  0.86431400243E+02  0.14040689467E+03  0.00000000000E+00 0.  1.
         12    1    6    6    0    0 -0.16319667259E+02  0.92021226848E+01  0.12318913119E+02  0.22422449059E+02  0.00000000000E+00 0. -1.
         -5    1    3    3    0  503  0.34605774105E+02  0.87419965365E+02 -0.48438863130E+01  0.94262204412E+02  0.47000000000E+01 0.  1.
         11    1    4    4    0    0 -0.13395267215E+02  0.74080110853E+01  0.34668233046E+02  0.37897205629E+02  0.00000000000E+00 0. -1.
        -12    1    4    4    0    0  0.92297545889E+02  0.98906641640E+01  0.92619307223E+02  0.13112970024E+03  0.00000000000E+00 0.  1.
<mgrwt>
<rscale>  2 0.23141078E+03</rscale>
<asrwt>0</asrwt>
<pdfrwt beam="1">  1       21 0.76820609E-01 0.23308519E+03</pdfrwt>
<pdfrwt beam="2">  1       21 0.17270364E-01 0.23308519E+03</pdfrwt>
<totfact> 0.44779708E+04</totfact>
</mgrwt>
</event>
<event>
12    1  0.1019868E-001  0.2034006E+03  0.7546771E-02  0.1146951E+00
         21   -1    0    0  501  502  0.00000000000E+00  0.00000000000E+00  0.40839325299E+03  0.40839325299E+03  0.00000000000E+00 0. -1.
         21   -1    0    0  502  503 -0.00000000000E+00 -0.00000000000E+00 -0.13748386162E+03  0.13748386162E+03  0.00000000000E+00 0. -1.
         -6    2    1    2    0  503  0.68700572185E+02  0.80678469682E+02 -0.47318727861E+01  0.20345565763E+03  0.17361748159E+03 0.  0.
        -24    2    3    3    0    0  0.39996227774E+02 -0.16007542412E+01 -0.54102493270E+02  0.10318922135E+03  0.78221959666E+02 0.  0.
          6    2    1    2  501    0 -0.68700572185E+02 -0.80678469682E+02  0.27564126416E+03  0.34242145699E+03  0.17333656166E+03 0.  0.
         24    2    5    5    0    0 -0.11221632550E+03 -0.43407431200E+02  0.21766321039E+03  0.26077406991E+03  0.78416411497E+02 0.  0.
          5    1    5    5  501    0  0.43515753315E+02 -0.37271038482E+02  0.57978053775E+02  0.81647387072E+02  0.47000000000E+01 0. -1.
        -11    1    6    6    0    0 -0.42470331301E+02 -0.37464040211E+02  0.38657649274E+02  0.68568922969E+02  0.00000000000E+00 0.  1.
         12    1    6    6    0    0 -0.69745994199E+02 -0.59433909889E+01  0.17900556111E+03  0.19220514695E+03  0.00000000000E+00 0. -1.
         -5    1    3    3    0  503  0.28704344411E+02  0.82279223923E+02  0.49370620484E+02  0.10026643628E+03  0.47000000000E+01 0.  1.
         11    1    4    4    0    0 -0.77931192652E+00  0.31258657811E+02 -0.55110090078E+01  0.31750310794E+02  0.00000000000E+00 0. -1.
        -12    1    4    4    0    0  0.40775539700E+02 -0.32859412052E+02 -0.48591484262E+02  0.71438910553E+02  0.00000000000E+00 0.  1.
<mgrwt>
<rscale>  2 0.20334066E+03</rscale>
<asrwt>0</asrwt>
<pdfrwt beam="1">  1       21 0.62829730E-01 0.20340062E+03</pdfrwt>
<pdfrwt beam="2">  1       21 0.21151364E-01 0.20340062E+03</pdfrwt>
<totfact> 0.48508200E+04</totfact>
</mgrwt>
</event>
<event>
12    1  0.1019868E-001  0.1880628E+03  0.7546771E-02  0.1160970E+00
         21   -1    0    0  503  502  0.00000000000E+00  0.00000000000E+00  0.80374424894E+03  0.80374424894E+03  0.00000000000E+00 0. -1.
         21   -1    0    0  501  503 -0.00000000000E+00 -0.00000000000E+00 -0.62107508714E+02  0.62107508714E+02  0.00000000000E+00 0. -1.
          6    2    1    2  501    0  0.16211658005E+02  0.66292938119E+02  0.13000073738E+03  0.22595628624E+03  0.17175121563E+03 0.  0.
         24    2    3    3    0    0 -0.73668913859E+01  0.10269706647E+03  0.12848692600E+03  0.18230322016E+03  0.78259921905E+02 0.  0.
         -6    2    1    2    0  502 -0.16211658005E+02 -0.66292938119E+02  0.61163600285E+03  0.63989547142E+03  0.17524281115E+03 0.  0.
        -24    2    5    5    0    0  0.43780317740E+02 -0.63972595933E+02  0.25119955466E+03  0.27446292727E+03  0.78863635028E+02 0.  0.
          5    1    3    3  501    0  0.23578549390E+02 -0.36404128356E+02  0.15138113708E+01  0.43653066073E+02  0.47000000000E+01 0. -1.
        -11    1    4    4    0    0  0.13466077675E+02  0.47152585910E+02  0.10956078534E+03  0.12003444210E+03  0.00000000000E+00 0.  1.
         12    1    4    4    0    0 -0.20832969061E+02  0.55544480564E+02  0.18926140665E+02  0.62268778063E+02  0.00000000000E+00 0. -1.
         -5    1    5    5    0  502 -0.59991975744E+02 -0.23203421858E+01  0.36043644819E+03  0.36543254415E+03  0.47000000000E+01 0.  1.
         11    1    6    6    0    0  0.55443758787E+02 -0.16391347211E+02  0.17073034629E+03  0.18025409232E+03  0.00000000000E+00 0. -1.
        -12    1    6    6    0    0 -0.11663441047E+02 -0.47581248722E+02  0.80469208368E+02  0.94208834949E+02  0.00000000000E+00 0.  1.
<mgrwt>
<rscale>  2 0.18724517E+03</rscale>
<asrwt>0</asrwt>
<pdfrwt beam="1">  1       21 0.12365295E+00 0.18806279E+03</pdfrwt>
<pdfrwt beam="2">  1       21 0.95550019E-02 0.18806279E+03</pdfrwt>
<totfact> 0.43202902E+04</totfact>
</mgrwt>
</event>
<event>
12    1  0.1019868E-001  0.2197636E+03  0.7546771E-02  0.1134128E+00
         21   -1    0    0  501  502  0.00000000000E+00  0.00000000000E+00  0.23643848283E+04  0.23643848283E+04  0.00000000000E+00 0. -1.
         21   -1    0    0  502  503 -0.00000000000E+00 -0.00000000000E+00 -0.45939474020E+02  0.45939474020E+02  0.00000000000E+00 0. -1.
         -6    2    1    2    0  503 -0.96455977572E+02 -0.96838638602E+02  0.26093423956E+03  0.34114914510E+03  0.17208888485E+03 0.  0.
        -24    2    3    3    0    0 -0.22378337053E+02 -0.93294261144E+02  0.22336027472E+03  0.25787878860E+03  0.86064209514E+02 0.  0.
          6    2    1    2  501    0  0.96455977572E+02  0.96838638602E+02  0.20575111147E+04  0.20691751572E+04  0.17161691798E+03 0.  0.
         24    2    5    5    0    0  0.65410754703E+01  0.50788789392E+02  0.54792498538E+03  0.55620534585E+03  0.80748438694E+02 0.  0.
          5    1    5    5  501    0  0.89914902102E+02  0.46049849210E+02  0.15095861293E+04  0.15129698113E+04  0.47000000000E+01 0. -1.
        -13    1    6    6    0    0  0.92842710705E+01 -0.16078758176E+02  0.42629819649E+02  0.46497587864E+02  0.00000000000E+00 0.  1.
         14    1    6    6    0    0 -0.27431956002E+01  0.66867547569E+02  0.50529516573E+03  0.50970775799E+03  0.00000000000E+00 0. -1.
         -5    1    3    3    0  503 -0.74077640519E+02 -0.35443774573E+01  0.37573964847E+02  0.83270356494E+02  0.47000000000E+01 0.  1.
         11    1    4    4    0    0 -0.31551920721E+02 -0.60635505165E+02  0.59743963823E+02  0.90782869535E+02  0.00000000000E+00 0. -1.
        -12    1    4    4    0    0  0.91735836678E+01 -0.32658755979E+02  0.16361631089E+03  0.16709591907E+03  0.00000000000E+00 0.  1.
<mgrwt>
<rscale>  2 0.21967125E+03</rscale>
<asrwt>0</asrwt>
<pdfrwt beam="1">  1       21 0.36375142E+00 0.21976365E+03</pdfrwt>
<pdfrwt beam="2">  1       21 0.70676132E-02 0.21976365E+03</pdfrwt>
<totfact> 0.20799841E+03</totfact>
</mgrwt>
</event>
<event>
12    1  0.1019868E-001  0.1762443E+03  0.7546771E-02  0.1171519E+00
         21   -1    0    0  501  502  0.00000000000E+00  0.00000000000E+00  0.16032130853E+03  0.16032130853E+03  0.00000000000E+00 0.  1.
         21   -1    0    0  502  503 -0.00000000000E+00 -0.00000000000E+00 -0.20421318144E+03  0.20421318144E+03  0.00000000000E+00 0.  1.
         -6    2    1    2    0  503 -0.22790721667E+02  0.25379295744E+02  0.19570300145E+02  0.17732754242E+03  0.17291192847E+03 0.  0.
        -24    2    3    3    0    0 -0.38596838457E+01 -0.45317418643E+02 -0.17664030174E+02  0.95078560832E+02  0.81604835494E+02 0.  0.
          6    2    1    2  501    0  0.22790721667E+02 -0.25379295744E+02 -0.63462173053E+02  0.18720694755E+03  0.17278734952E+03 0.  0.
         24    2    5    5    0    0 -0.78447940649E+01 -0.51054633461E+02  0.16994209953E+02  0.97245414894E+02  0.80621034192E+02 0.  0.
          5    1    5    5  501    0  0.30635515732E+02  0.25675337717E+02 -0.80456383006E+02  0.89961532654E+02  0.47000000000E+01 0. -1.
        -13    1    6    6    0    0 -0.93517252318E+01 -0.46433417560E+01 -0.29645834259E+02  0.31430731400E+02  0.00000000000E+00 0.  1.
         14    1    6    6    0    0  0.15069311669E+01 -0.46411291705E+02  0.46640044212E+02  0.65814683494E+02  0.00000000000E+00 0. -1.
         -5    1    3    3    0  503 -0.18931037822E+02  0.70696714387E+02  0.37234330319E+02  0.82248981589E+02  0.47000000000E+01 0.  1.
         13    1    4    4    0    0 -0.36296981843E+02 -0.81977930852E+01  0.10026306997E+02  0.38538312552E+02  0.00000000000E+00 0. -1.
        -14    1    4    4    0    0  0.32437297997E+02 -0.37119625557E+02 -0.27690337171E+02  0.56540248280E+02  0.00000000000E+00 0.  1.
<mgrwt>
<rscale>  2 0.17621376E+03</rscale>
<asrwt>0</asrwt>
<pdfrwt beam="1">  1       21 0.24664817E-01 0.17624432E+03</pdfrwt>
<pdfrwt beam="2">  1       21 0.31417413E-01 0.17624432E+03</pdfrwt>
<totfact> 0.15212948E+05</totfact>
</mgrwt>
</event>
<event>
12    1  0.1019868E-001  0.2036098E+03  0.7546771E-02  0.1147319E+00
         21   -1    0    0  501  502  0.00000000000E+00  0.00000000000E+00  0.77251249657E+02  0.77251249657E+02  0.00000000000E+00 0. -1.
         21   -1    0    0  502  503 -0.00000000000E+00 -0.00000000000E+00 -0.75392718517E+03  0.75392718517E+03  0.00000000000E+00 0. -1.
         -6    2    1    2    0  503  0.24594884488E+02 -0.94117572324E+02 -0.56690407147E+03  0.60235968117E+03  0.17886848100E+03 0.  0.
        -24    2    3    3    0    0  0.65770755866E+02 -0.10027696293E+03 -0.51841975174E+03  0.53827996725E+03  0.81271289732E+02 0.  0.
          6    2    1    2  501    0 -0.24594884488E+02  0.94117572324E+02 -0.10977186405E+03  0.22881875366E+03  0.17562782845E+03 0.  0.
         24    2    5    5    0    0 -0.14604766931E+02  0.77257765473E+02 -0.14746684202E+03  0.18607466751E+03  0.81824512527E+02 0.  0.
          5    1    5    5  501    0 -0.99901175567E+01  0.16859806851E+02  0.37694977975E+02  0.42744086145E+02  0.47000000000E+01 0. -1.
        -11    1    6    6    0    0  0.18705087576E+02 -0.72820150168E+01 -0.13465720566E+02  0.24170926219E+02  0.00000000000E+00 0.  1.
         12    1    6    6    0    0 -0.33309854507E+02  0.84539780490E+02 -0.13400112146E+03  0.16190374129E+03  0.00000000000E+00 0. -1.
         -5    1    3    3    0  503 -0.41175871379E+02  0.61593906026E+01 -0.48484319728E+02  0.64079713919E+02  0.47000000000E+01 0.  1.
         11    1    4    4    0    0  0.79476640345E+01 -0.83810287761E+02 -0.32537619236E+03  0.33609075598E+03  0.00000000000E+00 0. -1.
        -12    1    4    4    0    0  0.57823091832E+02 -0.16466675165E+02 -0.19304355938E+03  0.20218921128E+03  0.00000000000E+00 0.  1.
<mgrwt>
<rscale>  2 0.20289585E+03</rscale>
<asrwt>0</asrwt>
<pdfrwt beam="1">  1       21 0.11884808E-01 0.20360982E+03</pdfrwt>
<pdfrwt beam="2">  1       21 0.11598880E+00 0.20360982E+03</pdfrwt>
<totfact> 0.34063911E+04</totfact>
</mgrwt>
</event>
<event>
12    1  0.1019868E-001  0.1791534E+03  0.7546771E-02  0.1169650E+00
         21   -1    0    0  503  502  0.00000000000E+00  0.00000000000E+00  0.46645989751E+03  0.46645989751E+03  0.00000000000E+00 0.  1.
         21   -1    0    0  501  503 -0.00000000000E+00 -0.00000000000E+00 -0.95929812456E+02  0.95929812456E+02  0.00000000000E+00 0.  1.
          6    2    1    2  501    0  0.52512172559E+01  0.37310122103E+02  0.32965036093E+02  0.18216102610E+03  0.17514658241E+03 0.  0.
         24    2    3    3    0    0 -0.55644086510E+02 -0.13516634902E+02 -0.64001791094E+00  0.95888278937E+02  0.76910263502E+02 0.  0.
         -6    2    1    2    0  502 -0.52512172559E+01 -0.37310122103E+02  0.33756504896E+03  0.38022868387E+03  0.17089198127E+03 0.  0.
        -24    2    5    5    0    0  0.53102052611E+02 -0.43343200147E+02  0.27169689466E+03  0.29189858771E+03  0.81774824695E+02 0.  0.
          5    1    3    3  501    0  0.60895303766E+02  0.50826757005E+02  0.33605054004E+02  0.86272747163E+02  0.47000000000E+01 0. -1.
        -11    1    4    4    0    0  0.16171650197E+02 -0.14089955119E+02 -0.96269435252E+01  0.23510149872E+02  0.00000000000E+00 0.  1.
         12    1    4    4    0    0 -0.71815736708E+02  0.57332021719E+00  0.89869256143E+01  0.72378129065E+02  0.00000000000E+00 0. -1.
         -5    1    5    5    0  502 -0.58353269867E+02  0.60330780436E+01  0.65868154306E+02  0.88330096154E+02  0.47000000000E+01 0.  1.
         13    1    6    6    0    0  0.15319572548E+02  0.23328050267E+02  0.49067002772E+02  0.56448720033E+02  0.00000000000E+00 0. -1.
        -14    1    6    6    0    0  0.37782480062E+02 -0.66671250413E+02  0.22262989188E+03  0.23544986768E+03  0.00000000000E+00 0.  1.
<mgrwt>
<rscale>  2 0.17810496E+03</rscale>
<asrwt>0</asrwt>
<pdfrwt beam="1">  1       21 0.71763060E-01 0.17915341E+03</pdfrwt>
<pdfrwt beam="2">  1       21 0.14758433E-01 0.17915341E+03</pdfrwt>
<totfact> 0.71277882E+04</totfact>
</mgrwt>
</event>
<event>
12    1  0.1019868E-001  0.2154036E+03  0.7546771E-02  0.1137507E+00
         21   -1    0    0  501  502  0.00000000000E+00  0.00000000000E+00  0.90241430184E+02  0.90241430184E+02  0.00000000000E+00 0. -1.
         21   -1    0    0  502  503 -0.00000000000E+00 -0.00000000000E+00 -0.55200155403E+03  0.55200155403E+03  0.00000000000E+00 0. -1.
         -6    2    1    2    0  503  0.12463421436E+03 -0.13167928143E+02 -0.14436771815E+03  0.25865901091E+03  0.17422790867E+03 0.  0.
        -24    2    3    3    0    0  0.21204899387E+02  0.16977901381E+02 -0.78019225151E+01  0.84651250249E+02  0.79793905033E+02 0.  0.
          6    2    1    2  501    0 -0.12463421436E+03  0.13167928143E+02 -0.31739240570E+03  0.38358397331E+03  0.17519030699E+03 0.  0.
         24    2    5    5    0    0 -0.60521107059E+02 -0.56964118452E+02 -0.20933314286E+03  0.23961214004E+03  0.81767339246E+02 0.  0.
          5    1    5    5  501    0 -0.64113107300E+02  0.70132046594E+02 -0.10805926284E+03  0.14397183326E+03  0.47000000000E+01 0. -1.
        -13    1    6    6    0    0 -0.12344742881E+02  0.19669009738E+02 -0.24227117327E+02  0.33559139364E+02  0.00000000000E+00 0.  1.
         14    1    6    6    0    0 -0.48176364178E+02 -0.76633128190E+02 -0.18510602553E+03  0.20605300068E+03  0.00000000000E+00 0. -1.
         -5    1    3    3    0  503  0.10342931497E+03 -0.30145829524E+02 -0.13656579563E+03  0.17400776066E+03  0.47000000000E+01 0.  1.
         11    1    4    4    0    0  0.24733658707E+02  0.18096918060E+02 -0.41032874710E+02  0.51214735411E+02  0.00000000000E+00 0. -1.
        -12    1    4    4    0    0 -0.35287593195E+01 -0.11190166782E+01  0.33230952195E+02  0.33436514837E+02  0.00000000000E+00 0.  1.
<mgrwt>
<rscale>  2 0.21520787E+03</rscale>
<asrwt>0</asrwt>
<pdfrwt beam="1">  1       21 0.13883297E-01 0.21540363E+03</pdfrwt>
<pdfrwt beam="2">  1       21 0.84923317E-01 0.21540363E+03</pdfrwt>
<totfact> 0.53610387E+04</totfact>
</mgrwt>
</event>
<event>
12    1  0.1019868E-001  0.1791099E+03  0.7546771E-02  0.1171864E+00
         21   -1    0    0  503  502  0.00000000000E+00  0.00000000000E+00  0.81764585865E+02  0.81764585865E+02  0.00000000000E+00 0. -1.
         21   -1    0    0  501  503 -0.00000000000E+00 -0.00000000000E+00 -0.40597390908E+03  0.40597390908E+03  0.00000000000E+00 0.  1.
          6    2    1    2  501    0  0.21941831316E+02  0.35394522423E+02 -0.23403507365E+03  0.28720980834E+03  0.16119194188E+03 0.  0.
         24    2    3    3    0    0  0.56927440742E+02 -0.21109179998E+02 -0.15512601776E+03  0.18393643153E+03  0.77988450874E+02 0.  0.
         -6    2    1    2    0  502 -0.21941831316E+02 -0.35394522423E+02 -0.90174249564E+02  0.20052868661E+03  0.17420144285E+03 0.  0.
        -24    2    5    5    0    0  0.32104422349E+02 -0.38970423085E+02 -0.10818034329E+03  0.14325658160E+03  0.79183796884E+02 0.  0.
          5    1    3    3  501    0 -0.34985609426E+02  0.56503702421E+02 -0.78909055893E+02  0.10327337680E+03  0.47000000000E+01 0. -1.
        -11    1    4    4    0    0 -0.16853369442E+02 -0.10009900439E+02 -0.59507751439E+02  0.62653065764E+02  0.00000000000E+00 0.  1.
         12    1    4    4    0    0  0.73780810184E+02 -0.11099279558E+02 -0.95618266321E+02  0.12128336577E+03  0.00000000000E+00 0. -1.
         -5    1    5    5    0  502 -0.54046253665E+02  0.35759006623E+01  0.18006093725E+02  0.57272105007E+02  0.47000000000E+01 0.  1.
         11    1    6    6    0    0 -0.11842291379E+02 -0.32729092876E+02 -0.11137850370E+02  0.36544289519E+02  0.00000000000E+00 0. -1.
        -12    1    6    6    0    0  0.43946713728E+02 -0.62413302098E+01 -0.97042492919E+02  0.10671229209E+03  0.00000000000E+00 0.  1.
<mgrwt>
<rscale>  2 0.17586649E+03</rscale>
<asrwt>0</asrwt>
<pdfrwt beam="1">  1       21 0.12579167E-01 0.17910991E+03</pdfrwt>
<pdfrwt beam="2">  1       21 0.62457525E-01 0.17910991E+03</pdfrwt>
<totfact> 0.12877412E+05</totfact>
</mgrwt>
</event>
<event>
12    1  0.1019868E-001  0.2457637E+03  0.7546771E-02  0.1116179E+00
         21   -1    0    0  503  502  0.00000000000E+00  0.00000000000E+00  0.42780669658E+03  0.42780669658E+03  0.00000000000E+00 0.  1.
         21   -1    0    0  501  503 -0.00000000000E+00 -0.00000000000E+00 -0.16659438189E+03  0.16659438189E+03  0.00000000000E+00 0. -1.
          6    2    1    2  501    0  0.41677186577E+02  0.16846595480E+03  0.13425372084E+02  0.24613008247E+03  0.17401727235E+03 0.  0.
         24    2    3    3    0    0 -0.98220675573E+01  0.92927353146E+02 -0.48003111497E+02  0.13588579867E+03  0.86189823030E+02 0.  0.
         -6    2    1    2    0  502 -0.41677186577E+02 -0.16846595480E+03  0.24778694260E+03  0.34827099600E+03  0.17255883611E+03 0.  0.
        -24    2    5    5    0    0 -0.42888611957E+02 -0.18454864395E+03  0.16417964275E+03  0.26299268087E+03  0.79451620999E+02 0.  0.
          5    1    3    3  501    0  0.51499254134E+02  0.75538601651E+02  0.61428483581E+02  0.11024428380E+03  0.47000000000E+01 0. -1.
        -11    1    4    4    0    0  0.30892529750E+02  0.34930917164E+02  0.56935309753E+01  0.46978012551E+02  0.00000000000E+00 0.  1.
         12    1    4    4    0    0 -0.40714597307E+02  0.57996435982E+02 -0.53696642472E+02  0.88907786123E+02  0.00000000000E+00 0. -1.
         -5    1    5    5    0  502  0.12114253798E+01  0.16082689152E+02  0.83607299850E+02  0.85278315122E+02  0.47000000000E+01 0.  1.
         11    1    6    6    0    0 -0.11591824884E+02 -0.14044191251E+03  0.77499143674E+02  0.16082418495E+03  0.00000000000E+00 0. -1.
        -12    1    6    6    0    0 -0.31296787072E+02 -0.44106731439E+02  0.86680499080E+02  0.10216849593E+03  0.00000000000E+00 0.  1.
<mgrwt>
<rscale>  2 0.24550563E+03</rscale>
<asrwt>0</asrwt>
<pdfrwt beam="1">  1       21 0.65816414E-01 0.24576366E+03</pdfrwt>
<pdfrwt beam="2">  1       21 0.25629905E-01 0.24576366E+03</pdfrwt>
<totfact> 0.29816835E+04</totfact>
</mgrwt>
</event>
<event>
12    1  0.1019868E-001  0.1951712E+03  0.7546771E-02  0.1154083E+00
         21   -1    0    0  501  502  0.00000000000E+00  0.00000000000E+00  0.55791478332E+03  0.55791478332E+03  0.00000000000E+00 0.  1.
         21   -1    0    0  502  503 -0.00000000000E+00 -0.00000000000E+00 -0.71419178207E+02  0.71419178207E+02  0.00000000000E+00 0.  1.
         -6    2    1    2    0  503  0.85538841296E+02  0.16678770701E+02  0.31206160851E+03  0.36757257719E+03  0.17358593617E+03 0.  0.
        -24    2    3    3    0    0  0.63635880999E+02  0.77621560019E+02  0.20282977996E+03  0.24049997744E+03  0.81398326637E+02 0.  0.
          6    2    1    2  501    0 -0.85538841296E+02 -0.16678770701E+02  0.17443399661E+03  0.26176138434E+03  0.17463312514E+03 0.  0.
         24    2    5    5    0    0 -0.11502812860E+03  0.24378348373E+02  0.14438018046E+03  0.20276454580E+03  0.80262384014E+02 0.  0.
          5    1    5    5  501    0  0.29489287301E+02 -0.41057119074E+02  0.30053816151E+02  0.58996838538E+02  0.47000000000E+01 0. -1.
        -11    1    6    6    0    0 -0.59639057461E+02 -0.69801027827E+01  0.20429143128E+02  0.63426247711E+02  0.00000000000E+00 0.  1.
         12    1    6    6    0    0 -0.55389071136E+02  0.31358451156E+02  0.12395103733E+03  0.13933829809E+03  0.00000000000E+00 0. -1.
         -5    1    3    3    0  503  0.21902960296E+02 -0.60942789318E+02  0.10923182855E+03  0.12707259975E+03  0.47000000000E+01 0.  1.
         13    1    4    4    0    0 -0.17786607729E+02  0.10121580469E+02  0.16674054318E+02  0.26397611504E+02  0.00000000000E+00 0. -1.
        -14    1    4    4    0    0  0.81422488728E+02  0.67499979550E+02  0.18615572564E+03  0.21410236593E+03  0.00000000000E+00 0.  1.
<mgrwt>
<rscale>  2 0.19493669E+03</rscale>
<asrwt>0</asrwt>
<pdfrwt beam="1">  1       21 0.85833041E-01 0.19517121E+03</pdfrwt>
<pdfrwt beam="2">  1       21 0.10987566E-01 0.19517121E+03</pdfrwt>
<totfact> 0.80380861E+04</totfact>
</mgrwt>
</event>
<event>
12    1  0.1019868E-001  0.1775723E+03  0.7546771E-02  0.1170215E+00
         21   -1    0    0  503  502  0.00000000000E+00  0.00000000000E+00  0.14650286559E+03  0.14650286559E+03  0.00000000000E+00 0. -1.
         21   -1    0    0  501  503 -0.00000000000E+00 -0.00000000000E+00 -0.22406343930E+03  0.22406343930E+03  0.00000000000E+00 0. -1.
          6    2    1    2  501    0  0.35519739372E+02  0.10593946602E+02 -0.76003667965E+02  0.19315400754E+03  0.17366067343E+03 0.  0.
         24    2    3    3    0    0  0.13463178969E+02  0.25757787197E+01  0.28325733724E+02  0.86114309626E+02  0.80158813036E+02 0.  0.
         -6    2    1    2    0  502 -0.35519739372E+02 -0.10593946602E+02 -0.15569057530E+01  0.17741229735E+03  0.17349010262E+03 0.  0.
        -24    2    5    5    0    0 -0.80245643215E+01 -0.54407768535E+02 -0.47528696208E+02  0.10804997933E+03  0.79945119678E+02 0.  0.
          5    1    3    3  501    0  0.22056560402E+02  0.80181678826E+01 -0.10432940169E+03  0.10703969792E+03  0.47000000000E+01 0. -1.
        -11    1    4    4    0    0  0.39826614135E+01 -0.28361380084E+02  0.42124066646E+02  0.50937868654E+02  0.00000000000E+00 0.  1.
         12    1    4    4    0    0  0.94805175557E+01  0.30937158804E+02 -0.13798332922E+02  0.35176440971E+02  0.00000000000E+00 0. -1.
         -5    1    5    5    0  502 -0.27495175050E+02  0.43813821933E+02  0.45971790455E+02  0.69362318019E+02  0.47000000000E+01 0.  1.
         11    1    6    6    0    0 -0.35256542677E+02 -0.19316279863E+02 -0.49279301669E+02  0.63597107185E+02  0.00000000000E+00 0. -1.
        -12    1    6    6    0    0  0.27231978356E+02 -0.35091488673E+02  0.17506054615E+01  0.44452872145E+02  0.00000000000E+00 0.  1.
<mgrwt>
<rscale>  2 0.17753056E+03</rscale>
<asrwt>0</asrwt>
<pdfrwt beam="1">  1       21 0.22538902E-01 0.17757228E+03</pdfrwt>
<pdfrwt beam="2">  1       21 0.34471298E-01 0.17757228E+03</pdfrwt>
<totfact> 0.15029811E+05</totfact>
</mgrwt>
</event>
<event>
12    1  0.1019868E-001  0.1892145E+03  0.7546771E-02  0.1159439E+00
         21   -1    0    0  503  502  0.00000000000E+00  0.00000000000E+00  0.30402307812E+02  0.30402307812E+02  0.00000000000E+00 0. -1.
         21   -1    0    0  501  503 -0.00000000000E+00 -0.00000000000E+00 -0.16822959584E+04  0.16822959584E+04  0.00000000000E+00 0. -1.
          6    2    1    2  501    0 -0.37623706550E+02  0.64694406865E+02 -0.12965749439E+04  0.13101395633E+04  0.17250559653E+03 0.  0.
         24    2    3    3    0    0  0.31356674653E+02 -0.56448217784E+00 -0.47283029885E+03  0.48092647507E+03  0.82086681183E+02 0.  0.
         -6    2    1    2    0  502  0.37623706550E+02 -0.64694406865E+02 -0.35531870668E+03  0.40255870282E+03  0.17378497150E+03 0.  0.
        -24    2    5    5    0    0  0.45258817714E+02 -0.10724978723E+03 -0.32321330178E+03  0.34850222916E+03  0.58618152795E+02 0.  0.
          5    1    3    3  501    0 -0.68980381202E+02  0.65258889043E+02 -0.82374464501E+03  0.82921308828E+03  0.47000000000E+01 0. -1.
        -11    1    4    4    0    0  0.22644720557E+02  0.29968678641E+02 -0.10126466137E+03  0.10800665124E+03  0.00000000000E+00 0.  1.
         12    1    4    4    0    0  0.87119540960E+01 -0.30533160819E+02 -0.37156563748E+03  0.37291982383E+03  0.00000000000E+00 0. -1.
         -5    1    5    5    0  502 -0.76351111643E+01  0.42555380366E+02 -0.32105404900E+02  0.54056473659E+02  0.47000000000E+01 0.  1.
         13    1    6    6    0    0  0.33400097351E+02 -0.64434166696E+02 -0.26789604569E+03  0.27755291322E+03  0.00000000000E+00 0. -1.
        -14    1    6    6    0    0  0.11858720363E+02 -0.42815620535E+02 -0.55317256094E+02  0.70949315939E+02  0.00000000000E+00 0.  1.
<mgrwt>
<rscale>  2 0.18892022E+03</rscale>
<asrwt>0</asrwt>
<pdfrwt beam="1">  1       21 0.46772778E-02 0.18921450E+03</pdfrwt>
<pdfrwt beam="2">  1       21 0.25881478E+00 0.18921450E+03</pdfrwt>
<totfact> 0.17836025E+04</totfact>
</mgrwt>
</event>
<event>
12    1  0.1019868E-001  0.1825235E+03  0.7546771E-02  0.1165959E+00
         21   -1    0    0  503  502  0.00000000000E+00  0.00000000000E+00  0.30065295458E+03  0.30065295458E+03  0.00000000000E+00 0.  1.
         21   -1    0    0  501  503 -0.00000000000E+00 -0.00000000000E+00 -0.12040659089E+03  0.12040659089E+03  0.00000000000E+00 0.  1.
          6    2    1    2  501    0  0.29096426091E+02  0.38628353970E+02  0.26875150226E+02  0.18449147226E+03  0.17600022129E+03 0.  0.
         24    2    3    3    0    0  0.28252614525E+02 -0.98869318898E+01 -0.45787351035E+02  0.96990763291E+02  0.80092228083E+02 0.  0.
         -6    2    1    2    0  502 -0.29096426091E+02 -0.38628353970E+02  0.15337121347E+03  0.23656807321E+03  0.17350208183E+03 0.  0.
        -24    2    5    5    0    0 -0.37548459212E+02  0.39105700755E+02  0.59785930065E+02  0.11452580431E+03  0.81256752329E+02 0.  0.
          5    1    3    3  501    0  0.84381156636E+00  0.48515285859E+02  0.72662501261E+02  0.87500708965E+02  0.47000000000E+01 0. -1.
        -13    1    4    4    0    0 -0.14418801758E+02  0.20519268111E+02  0.31740737606E+01  0.25278784626E+02  0.00000000000E+00 0.  1.
         14    1    4    4    0    0  0.42671416283E+02 -0.30406200000E+02 -0.48961424796E+02  0.71711978665E+02  0.00000000000E+00 0. -1.
         -5    1    5    5    0  502  0.84520331216E+01 -0.77734054724E+02  0.93585283409E+02  0.12204226890E+03  0.47000000000E+01 0.  1.
         13    1    6    6    0    0  0.15831030516E+02  0.23279911647E+02 -0.55401829151E+01  0.28692672239E+02  0.00000000000E+00 0. -1.
        -14    1    6    6    0    0 -0.53379489728E+02  0.15825789107E+02  0.65326112980E+02  0.85833132074E+02  0.00000000000E+00 0.  1.
<mgrwt>
<rscale>  2 0.18191859E+03</rscale>
<asrwt>0</asrwt>
<pdfrwt beam="1">  1       21 0.46254301E-01 0.18252350E+03</pdfrwt>
<pdfrwt beam="2">  1       21 0.18524091E-01 0.18252350E+03</pdfrwt>
<totfact> 0.11964529E+05</totfact>
</mgrwt>
</event>
<event>
12    1  0.1019868E-001  0.2215081E+03  0.7546771E-02  0.1132927E+00
         21   -1    0    0  503  502  0.00000000000E+00  0.00000000000E+00  0.21737050453E+03  0.21737050453E+03  0.00000000000E+00 0. -1.
         21   -1    0    0  501  503 -0.00000000000E+00 -0.00000000000E+00 -0.37356907241E+03  0.37356907241E+03  0.00000000000E+00 0. -1.
          6    2    1    2  501    0 -0.12137931214E+02 -0.13659907005E+03 -0.26444900777E+03  0.34439546616E+03  0.17282454713E+03 0.  0.
         24    2    3    3    0    0 -0.41267561647E+02  0.32927331087E+00 -0.13493523135E+03  0.15362383602E+03  0.60742458531E+02 0.  0.
         -6    2    1    2    0  502  0.12137931214E+02  0.13659907005E+03  0.10825043989E+03  0.24654411077E+03  0.17395173326E+03 0.  0.
        -24    2    5    5    0    0 -0.36683612371E+02  0.58415309247E+02  0.76358126157E+00  0.10486927761E+03  0.78987002476E+02 0.  0.
          5    1    3    3  501    0  0.29129630434E+02 -0.13692834336E+03 -0.12951377642E+03  0.19077163014E+03  0.47000000000E+01 0. -1.
        -11    1    4    4    0    0 -0.94224973924E+01  0.22013418463E+02 -0.16499492135E+02  0.29079327541E+02  0.00000000000E+00 0.  1.
         12    1    4    4    0    0 -0.31845064255E+02 -0.21684145153E+02 -0.11843573921E+03  0.12454450848E+03  0.00000000000E+00 0. -1.
         -5    1    5    5    0  502  0.48821543584E+02  0.78183760805E+02  0.10748685863E+03  0.14167483315E+03  0.47000000000E+01 0.  1.
         13    1    6    6    0    0  0.19010308987E+02  0.43012148062E+02  0.20453477638E+01  0.47070374718E+02  0.00000000000E+00 0. -1.
        -14    1    6    6    0    0 -0.55693921358E+02  0.15403161186E+02 -0.12817665022E+01  0.57798902897E+02  0.00000000000E+00 0.  1.
<mgrwt>
<rscale>  2 0.22128675E+03</rscale>
<asrwt>0</asrwt>
<pdfrwt beam="1">  1       21 0.33441617E-01 0.22150811E+03</pdfrwt>
<pdfrwt beam="2">  1       21 0.57472164E-01 0.22150811E+03</pdfrwt>
<totfact> 0.24075830E+04</totfact>
</mgrwt>
</event>
<event>
12    1  0.1019868E-001  0.1772845E+03  0.7546771E-02  0.1170471E+00
         21   -1    0    0  501  502  0.00000000000E+00  0.00000000000E+00  0.86035860073E+03  0.86035860073E+03  0.00000000000E+00 0. -1.
         21   -1    0    0  502  503 -0.00000000000E+00 -0.00000000000E+00 -0.57229702408E+02  0.57229702408E+02  0.00000000000E+00 0. -1.
         -6    2    1    2    0  503  0.27103876625E+02 -0.27170527970E+02  0.12561066213E+03  0.21727363465E+03  0.17308072150E+03 0.  0.
        -24    2    3    3    0    0  0.70920421851E+02  0.22095554187E+02  0.93691187251E+02  0.14387077801E+03  0.80017763316E+02 0.  0.
          6    2    1    2  501    0 -0.27103876625E+02  0.27170527970E+02  0.67751823619E+03  0.70031466849E+03  0.17302259047E+03 0.  0.
         24    2    5    5    0    0 -0.11856987095E+02 -0.46130733938E+02  0.46096203819E+03  0.47113303848E+03  0.84921767205E+02 0.  0.
          5    1    5    5  501    0 -0.15246889531E+02  0.73301261908E+02  0.21655619800E+03  0.22918163001E+03  0.47000000000E+01 0. -1.
        -13    1    6    6    0    0  0.16880603919E+02  0.91784048613E+01  0.29589972658E+02  0.35281218606E+02  0.00000000000E+00 0.  1.
         14    1    6    6    0    0 -0.28737591013E+02 -0.55309138800E+02  0.43137206553E+03  0.43585181988E+03  0.00000000000E+00 0. -1.
         -5    1    3    3    0  503 -0.43816545225E+02 -0.49266082157E+02  0.31919474883E+02  0.73402856643E+02  0.47000000000E+01 0.  1.
         13    1    4    4    0    0  0.34957683949E+02  0.51696283857E+02  0.49341847615E+02  0.79556039103E+02  0.00000000000E+00 0. -1.
        -14    1    4    4    0    0  0.35962737901E+02 -0.29600729670E+02  0.44349339636E+02  0.64314738906E+02  0.00000000000E+00 0.  1.
<mgrwt>
<rscale>  2 0.17727031E+03</rscale>
<asrwt>0</asrwt>
<pdfrwt beam="1">  1       21 0.13236285E+00 0.17728450E+03</pdfrwt>
<pdfrwt beam="2">  1       21 0.88045702E-02 0.17728450E+03</pdfrwt>
<totfact> 0.42288862E+04</totfact>
</mgrwt>
</event>
<event>
12    1  0.1019868E-001  0.2768529E+03  0.7546771E-02  0.1097661E+00
         21   -1    0    0  501  502  0.00000000000E+00  0.00000000000E+00  0.36239428403E+03  0.36239428403E+03  0.00000000000E+00 0. -1.
         21   -1    0    0  502  503 -0.00000000000E+00 -0.00000000000E+00 -0.22302144346E+03  0.22302144346E+03  0.00000000000E+00 0.  1.
         -6    2    1    2    0  503  0.19788339122E+03  0.82598429641E+02 -0.74530146518E+00  0.27512449641E+03  0.17237342008E+03 0.  0.
        -24    2    3    3    0    0  0.12024592687E+03  0.50305149987E+02  0.66768276728E+02  0.16718652801E+03  0.80645156867E+02 0.  0.
          6    2    1    2  501    0 -0.19788339122E+03 -0.82598429641E+02  0.14011814204E+03  0.31029123108E+03  0.17512057918E+03 0.  0.
         24    2    5    5    0    0 -0.66776453170E+02 -0.80614283805E+02  0.25120987218E+02  0.13582231792E+03  0.82818359051E+02 0.  0.
          5    1    5    5  501    0 -0.13110693805E+03 -0.19841458368E+01  0.11499715482E+03  0.17446891315E+03  0.47000000000E+01 0. -1.
        -13    1    6    6    0    0 -0.43771476802E+02  0.23172304359E+01 -0.61333097720E+01  0.44259792443E+02  0.00000000000E+00 0.  1.
         14    1    6    6    0    0 -0.23004976368E+02 -0.82931514241E+02  0.31254296990E+02  0.91562525480E+02  0.00000000000E+00 0. -1.
         -5    1    3    3    0  503  0.77637464351E+02  0.32293279654E+02 -0.67513578193E+02  0.10793796840E+03  0.47000000000E+01 0.  1.
         11    1    4    4    0    0  0.61684338379E+02  0.62273850209E+02  0.61718380940E+02  0.10720143920E+03  0.00000000000E+00 0. -1.
        -12    1    4    4    0    0  0.58561588492E+02 -0.11968700222E+02  0.50498957884E+01  0.59985088807E+02  0.00000000000E+00 0.  1.
<mgrwt>
<rscale>  2 0.27641957E+03</rscale>
<asrwt>0</asrwt>
<pdfrwt beam="1">  1       21 0.55752967E-01 0.27685295E+03</pdfrwt>
<pdfrwt beam="2">  1       21 0.34310991E-01 0.27685295E+03</pdfrwt>
<totfact> 0.23788670E+04</totfact>
</mgrwt>
</event>
<event>
12    1  0.1019868E-001  0.2164483E+03  0.7546771E-02  0.1136560E+00
         21   -1    0    0  503  502  0.00000000000E+00  0.00000000000E+00  0.51899158576E+03  0.51899158576E+03  0.00000000000E+00 0.  1.
         21   -1    0    0  501  503 -0.00000000000E+00 -0.00000000000E+00 -0.19329804674E+03  0.19329804674E+03  0.00000000000E+00 0.  1.
          6    2    1    2  501    0 -0.30537765582E+02  0.12678096695E+03 -0.97164218669E+02  0.23725675485E+03  0.17275391059E+03 0.  0.
         24    2    3    3    0    0  0.36207626126E+01  0.14675082246E+03 -0.47371393416E+02  0.17348359730E+03  0.79395187514E+02 0.  0.
         -6    2    1    2    0  502  0.30537765582E+02 -0.12678096695E+03  0.42285775770E+03  0.47503287765E+03  0.17274716466E+03 0.  0.
        -24    2    5    5    0    0  0.54332568651E+02 -0.25547212934E+02  0.28617630530E+03  0.30322375381E+03  0.80268792538E+02 0.  0.
          5    1    3    3  501    0 -0.34158528195E+02 -0.19969855515E+02 -0.49792825254E+02  0.63773157554E+02  0.47000000000E+01 0. -1.
        -11    1    4    4    0    0 -0.34794084792E+02  0.37911877220E+02 -0.13598211194E+02  0.53224525536E+02  0.00000000000E+00 0.  1.
         12    1    4    4    0    0  0.38414847404E+02  0.10883894524E+03 -0.33773182221E+02  0.12025907176E+03  0.00000000000E+00 0. -1.
         -5    1    5    5    0  502 -0.23794803069E+02 -0.10123375402E+03  0.13668145240E+03  0.17180912384E+03  0.47000000000E+01 0.  1.
         13    1    6    6    0    0  0.65623151813E+00  0.18480132100E+02  0.16592875199E+02  0.24844907518E+02  0.00000000000E+00 0. -1.
        -14    1    6    6    0    0  0.53676337133E+02 -0.44027345033E+02  0.26958343010E+03  0.27837884629E+03  0.00000000000E+00 0.  1.
<mgrwt>
<rscale>  2 0.21644699E+03</rscale>
<asrwt>0</asrwt>
<pdfrwt beam="1">  1       21 0.79844859E-01 0.21644834E+03</pdfrwt>
<pdfrwt beam="2">  1       21 0.29738161E-01 0.21644834E+03</pdfrwt>
<totfact> 0.14751057E+04</totfact>
</mgrwt>
</event>
<event>
12    1  0.1019868E-001  0.1911388E+03  0.7546771E-02  0.1157547E+00
         21   -1    0    0  503  502  0.00000000000E+00  0.00000000000E+00  0.14798410843E+03  0.14798410843E+03  0.00000000000E+00 0.  1.
         21   -1    0    0  501  503 -0.00000000000E+00 -0.00000000000E+00 -0.24770710971E+03  0.24770710971E+03  0.00000000000E+00 0.  1.
          6    2    1    2  501    0 -0.78873263150E+02  0.23684621823E+02 -0.65077636388E+02  0.20191367264E+03  0.17248791115E+03 0.  0.
         24    2    3    3    0    0 -0.64755320060E+02 -0.40203903893E+02 -0.16399090179E+01  0.11065856161E+03  0.80206125655E+02 0.  0.
         -6    2    1    2    0  502  0.78873263150E+02 -0.23684621823E+02 -0.34645364887E+02  0.19377754550E+03  0.17195197841E+03 0.  0.
        -24    2    5    5    0    0 -0.17072631190E+02 -0.43816092272E+01 -0.48374304734E+02  0.94839207504E+02  0.79647527811E+02 0.  0.
          5    1    3    3  501    0 -0.14117943090E+02  0.63888525716E+02 -0.63437727370E+02  0.91255111030E+02  0.47000000000E+01 0. -1.
        -11    1    4    4    0    0 -0.42470887615E+02 -0.42001565566E+01 -0.36231008467E+02  0.55983065158E+02  0.00000000000E+00 0.  1.
         12    1    4    4    0    0 -0.22284432444E+02 -0.36003747337E+02  0.34591099449E+02  0.54675496456E+02  0.00000000000E+00 0. -1.
         -5    1    5    5    0  502  0.95945894339E+02 -0.19303012596E+02  0.13728939847E+02  0.98938337995E+02  0.47000000000E+01 0.  1.
         13    1    6    6    0    0 -0.37552790050E+02  0.88179574676E+01  0.22675488140E+01  0.38640784051E+02  0.00000000000E+00 0. -1.
        -14    1    6    6    0    0  0.20480158861E+02 -0.13199566695E+02 -0.50641853548E+02  0.56198423453E+02  0.00000000000E+00 0.  1.
<mgrwt>
<rscale>  2 0.19101779E+03</rscale>
<asrwt>0</asrwt>
<pdfrwt beam="1">  1       21 0.22766786E-01 0.19113878E+03</pdfrwt>
<pdfrwt beam="2">  1       21 0.38108786E-01 0.19113878E+03</pdfrwt>
<totfact> 0.12022072E+05</totfact>
</mgrwt>
</event>
<event>
12    1  0.1019868E-001  0.1978515E+03  0.7546771E-02  0.1154172E+00
         21   -1    0    0  503  502  0.00000000000E+00  0.00000000000E+00  0.17361357705E+03  0.17361357705E+03  0.00000000000E+00 0.  1.
         21   -1    0    0  501  503 -0.00000000000E+00 -0.00000000000E+00 -0.21995284484E+03  0.21995284484E+03  0.00000000000E+00 0.  1.
          6    2    1    2  501    0  0.54802578504E+02 -0.81416248997E+02  0.14367539347E+02  0.18661101330E+03  0.15806744094E+03 0.  0.
         24    2    3    3    0    0  0.69772865693E+02 -0.11012882819E+03  0.84320616828E+01  0.15335681660E+03  0.80315639501E+02 0.  0.
         -6    2    1    2    0  502 -0.54802578504E+02  0.81416248997E+02 -0.60706807133E+02  0.20695540859E+03  0.17179434363E+03 0.  0.
        -24    2    5    5    0    0  0.27578095113E+02  0.81414858745E+01 -0.52002552182E+01  0.83428757209E+02  0.78143968115E+02 0.  0.
          5    1    3    3  501    0 -0.14970287189E+02  0.28712579195E+02  0.59354776638E+01  0.33254196692E+02  0.47000000000E+01 0. -1.
        -11    1    4    4    0    0  0.10351121801E+02 -0.63009337929E+02  0.35226151990E+02  0.72926018490E+02  0.00000000000E+00 0.  1.
         12    1    4    4    0    0  0.59421743892E+02 -0.47119490263E+02 -0.26794090307E+02  0.80430798114E+02  0.00000000000E+00 0. -1.
         -5    1    5    5    0  502 -0.82380673617E+02  0.73274763122E+02 -0.55506551915E+02  0.12352665138E+03  0.47000000000E+01 0.  1.
         11    1    6    6    0    0 -0.11445762316E+02  0.32312470054E+02  0.88863318635E+01  0.35412823807E+02  0.00000000000E+00 0. -1.
        -12    1    6    6    0    0  0.39023857429E+02 -0.24170984180E+02 -0.14086587082E+02  0.48015933402E+02  0.00000000000E+00 0.  1.
<mgrwt>
<rscale>  2 0.19483461E+03</rscale>
<asrwt>0</asrwt>
<pdfrwt beam="1">  1       21 0.26709781E-01 0.19785152E+03</pdfrwt>
<pdfrwt beam="2">  1       21 0.33838899E-01 0.19785152E+03</pdfrwt>
<totfact> 0.11204002E+05</totfact>
</mgrwt>
</event>
<event>
12    1  0.1019868E-001  0.2366279E+03  0.7546771E-02  0.1122088E+00
         21   -1    0    0  503  502  0.00000000000E+00  0.00000000000E+00  0.43377827504E+02  0.43377827504E+02  0.00000000000E+00 0.  1.
         21   -1    0    0  501  503 -0.00000000000E+00 -0.00000000000E+00 -0.16656874528E+04  0.16656874528E+04  0.00000000000E+00 0. -1.
          6    2    1    2  501    0  0.12937607042E+03  0.95991135127E+02 -0.12168137009E+04  0.12395764931E+04  0.17309486964E+03 0.  0.
         24    2    3    3    0    0  0.12456670951E+03  0.56064406349E+02 -0.57523695346E+03  0.59672340996E+03  0.80753901424E+02 0.  0.
         -6    2    1    2    0  502 -0.12937607042E+03 -0.95991135127E+02 -0.40549592433E+03  0.46948878715E+03  0.17332140950E+03 0.  0.
        -24    2    5    5    0    0 -0.64641753742E+01 -0.10865439127E+02 -0.20009837556E+03  0.21539439307E+03  0.78711761078E+02 0.  0.
          5    1    3    3  501    0  0.48093609103E+01  0.39926728779E+02 -0.64157674749E+03  0.64285308317E+03  0.47000000000E+01 0. -1.
        -13    1    4    4    0    0  0.32158545672E+02  0.18414629976E+02 -0.50812048528E+02  0.62889863512E+02  0.00000000000E+00 0.  1.
         14    1    4    4    0    0  0.92408163841E+02  0.37649776373E+02 -0.52442490493E+03  0.53383354645E+03  0.00000000000E+00 0. -1.
         -5    1    5    5    0  502 -0.12291189505E+03 -0.85125696000E+02 -0.20539754877E+03  0.25409439408E+03  0.47000000000E+01 0.  1.
         13    1    6    6    0    0 -0.23610053662E+02 -0.24417022482E+02 -0.18668963953E+03  0.18975417552E+03  0.00000000000E+00 0. -1.
        -14    1    6    6    0    0  0.17145878288E+02  0.13551583355E+02 -0.13408736028E+02  0.25640217541E+02  0.00000000000E+00 0.  1.
<mgrwt>
<rscale>  2 0.23658645E+03</rscale>
<asrwt>0</asrwt>
<pdfrwt beam="1">  1       21 0.66735118E-02 0.23662793E+03</pdfrwt>
<pdfrwt beam="2">  1       21 0.25625961E+00 0.23662793E+03</pdfrwt>
<totfact> 0.96483649E+03</totfact>
</mgrwt>
</event>
<event>
12    1  0.1019868E-001  0.1769793E+03  0.7546771E-02  0.1170778E+00
         21   -1    0    0  503  502  0.00000000000E+00  0.00000000000E+00  0.13597143208E+03  0.13597143208E+03  0.00000000000E+00 0.  1.
         21   -1    0    0  501  503 -0.00000000000E+00 -0.00000000000E+00 -0.78498657830E+03  0.78498657830E+03  0.00000000000E+00 0. -1.
          6    2    1    2  501    0  0.22011407303E+02  0.40379494974E+02 -0.71162653378E+03  0.73330349058E+03  0.17089961981E+03 0.  0.
         24    2    3    3    0    0  0.14423869306E+02  0.48690236734E+02 -0.19179934720E+03  0.21333326733E+03  0.78392003442E+02 0.  0.
         -6    2    1    2    0  502 -0.22011407303E+02 -0.40379494974E+02  0.62611387560E+02  0.18765451979E+03  0.17081869710E+03 0.  0.
        -24    2    5    5    0    0  0.42303182068E+02 -0.52223992900E+02  0.14527835931E+02  0.10634783818E+03  0.81128909899E+02 0.  0.
          5    1    3    3  501    0  0.75875379974E+01 -0.83107417600E+01 -0.51982718658E+03  0.51997022326E+03  0.47000000000E+01 0. -1.
        -11    1    4    4    0    0  0.37593355657E+02  0.35986513444E+01 -0.49419516311E+02  0.62197260981E+02  0.00000000000E+00 0.  1.
         12    1    4    4    0    0 -0.23169486351E+02  0.45091585390E+02 -0.14237983089E+03  0.15113600635E+03  0.00000000000E+00 0. -1.
         -5    1    5    5    0  502 -0.64314589371E+02  0.11844497926E+02  0.48083551629E+02  0.81306681610E+02  0.47000000000E+01 0.  1.
         11    1    6    6    0    0  0.48146850514E-01  0.75356330346E+01 -0.22925265392E+02  0.24132050817E+02  0.00000000000E+00 0. -1.
        -12    1    6    6    0    0  0.42255035218E+02 -0.59759625935E+02  0.37453101323E+02  0.82215787363E+02  0.00000000000E+00 0.  1.
<mgrwt>
<rscale>  2 0.17695980E+03</rscale>
<asrwt>0</asrwt>
<pdfrwt beam="1">  1       21 0.20918682E-01 0.17697934E+03</pdfrwt>
<pdfrwt beam="2">  1       21 0.12076717E+00 0.17697934E+03</pdfrwt>
<totfact> 0.11156710E+04</totfact>
</mgrwt>
</event>
<event>
12    1  0.1019868E-001  0.2164547E+03  0.7546771E-02  0.1136556E+00
         21   -1    0    0  501  502  0.00000000000E+00  0.00000000000E+00  0.67998336433E+03  0.67998336433E+03  0.00000000000E+00 0. -1.
         21   -1    0    0  502  503 -0.00000000000E+00 -0.00000000000E+00 -0.11766724439E+03  0.11766724439E+03  0.00000000000E+00 0.  1.
         -6    2    1    2    0  503 -0.32808323010E+02  0.12610745230E+03  0.24398372809E+02  0.21781601750E+03  0.17282667994E+03 0.  0.
        -24    2    3    3    0    0  0.16566403813E+02  0.11927796306E+03  0.62122047562E+02  0.15512892785E+03  0.75525871431E+02 0.  0.
          6    2    1    2  501    0  0.32808323010E+02 -0.12610745230E+03  0.53791774713E+03  0.57983459122E+03  0.17283858049E+03 0.  0.
         24    2    5    5    0    0  0.52317412022E+02 -0.22085238423E+02  0.16421128725E+03  0.19140205693E+03  0.80277837413E+02 0.  0.
          5    1    5    5  501    0 -0.19509089012E+02 -0.10402221388E+03  0.37370645989E+03  0.38843253429E+03  0.47000000000E+01 0. -1.
        -13    1    6    6    0    0  0.43465311832E+01  0.64353819511E+01 -0.75321242474E+01  0.10818473546E+02  0.00000000000E+00 0.  1.
         14    1    6    6    0    0  0.47970880839E+02 -0.28520620374E+02  0.17174341150E+03  0.18058358338E+03  0.00000000000E+00 0. -1.
         -5    1    3    3    0  503 -0.49374726823E+02  0.68294892381E+01 -0.37723674753E+02  0.62687089651E+02  0.47000000000E+01 0.  1.
         13    1    4    4    0    0  0.41983653260E+02  0.71320147541E+02  0.16868179941E+02  0.84461388106E+02  0.00000000000E+00 0. -1.
        -14    1    4    4    0    0 -0.25417249447E+02  0.47957815521E+02  0.45253867620E+02  0.70667539745E+02  0.00000000000E+00 0.  1.
<mgrwt>
<rscale>  2 0.21645236E+03</rscale>
<asrwt>0</asrwt>
<pdfrwt beam="1">  1       21 0.10461282E+00 0.21645473E+03</pdfrwt>
<pdfrwt beam="2">  1       21 0.18102653E-01 0.21645473E+03</pdfrwt>
<totfact> 0.20183856E+04</totfact>
</mgrwt>
</event>
<event>
12    1  0.1019868E-001  0.1822774E+03  0.7546771E-02  0.1166836E+00
         21   -1    0    0  501  502  0.00000000000E+00  0.00000000000E+00  0.32852792504E+02  0.32852792504E+02  0.00000000000E+00 0.  1.
         21   -1    0    0  502  503 -0.00000000000E+00 -0.00000000000E+00 -0.12735718912E+04  0.12735718912E+04  0.00000000000E+00 0.  1.
         -6    2    1    2    0  503 -0.33293882403E+02 -0.25540740602E+02 -0.92533915292E+03  0.94215891624E+03  0.17219193797E+03 0.  0.
        -24    2    3    3    0    0  0.35540662895E+02 -0.37575492959E+02 -0.68030233130E+03  0.68730961991E+03  0.83115553703E+02 0.  0.
          6    2    1    2  501    0  0.33293882403E+02  0.25540740602E+02 -0.31537994578E+03  0.36426576746E+03  0.17738158616E+03 0.  0.
         24    2    5    5    0    0  0.89660020388E+02  0.45603081471E+00 -0.19003378868E+03  0.22447974070E+03  0.78988517689E+02 0.  0.
          5    1    5    5  501    0 -0.56366137985E+02  0.25084709787E+02 -0.12534615710E+03  0.13978602676E+03  0.47000000000E+01 0. -1.
        -11    1    6    6    0    0  0.37274369832E+02 -0.38970016400E+02 -0.85221644095E+02  0.10085023276E+03  0.00000000000E+00 0.  1.
         12    1    6    6    0    0  0.52385650557E+02  0.39426047215E+02 -0.10481214459E+03  0.12362950795E+03  0.00000000000E+00 0. -1.
         -5    1    3    3    0  503 -0.68834545297E+02  0.12034752357E+02 -0.24503682162E+03  0.25484929633E+03  0.47000000000E+01 0.  1.
         11    1    4    4    0    0  0.34715038755E+01 -0.57061769507E+02 -0.32077323610E+03  0.32582750939E+03  0.00000000000E+00 0. -1.
        -12    1    4    4    0    0  0.32069159019E+02  0.19486276549E+02 -0.35952909520E+03  0.36148211053E+03  0.00000000000E+00 0.  1.
<mgrwt>
<rscale>  2 0.18100250E+03</rscale>
<asrwt>0</asrwt>
<pdfrwt beam="1">  1       21 0.50542751E-02 0.18227737E+03</pdfrwt>
<pdfrwt beam="2">  1       21 0.19593416E+00 0.18227737E+03</pdfrwt>
<totfact> 0.37938068E+04</totfact>
</mgrwt>
</event>
<event>
12    1  0.1019868E-001  0.1866115E+03  0.7546771E-02  0.1161892E+00
         21   -1    0    0  501  502  0.00000000000E+00  0.00000000000E+00  0.11321636986E+03  0.11321636986E+03  0.00000000000E+00 0.  1.
         21   -1    0    0  502  503 -0.00000000000E+00 -0.00000000000E+00 -0.45400743777E+03  0.45400743777E+03  0.00000000000E+00 0. -1.
         -6    2    1    2    0  503 -0.54778347222E+02 -0.39214022095E+02 -0.33322463681E+03  0.38191951654E+03  0.17402715789E+03 0.  0.
        -24    2    3    3    0    0 -0.41354668091E+02  0.13329467588E+02 -0.30910649200E+03  0.32238139112E+03  0.80591901998E+02 0.  0.
          6    2    1    2  501    0  0.54778347222E+02  0.39214022095E+02 -0.75664310890E+01  0.18530429109E+03  0.17245875612E+03 0.  0.
         24    2    5    5    0    0 -0.52415442151E+01 -0.21161945370E+02  0.34566147815E+02  0.90199669641E+02  0.80410572134E+02 0.  0.
          5    1    5    5  501    0  0.60019891437E+02  0.60375967465E+02 -0.42132578904E+02  0.95104621447E+02  0.47000000000E+01 0. -1.
        -13    1    6    6    0    0  0.31173869479E+02  0.27612263483E+01  0.34566343145E+02  0.46629031597E+02  0.00000000000E+00 0.  1.
         14    1    6    6    0    0 -0.36415413694E+02 -0.23923171718E+02 -0.19532979130E-03  0.43570638044E+02  0.00000000000E+00 0. -1.
         -5    1    3    3    0  503 -0.13423679131E+02 -0.52543489683E+02 -0.24118144817E+02  0.59538125423E+02  0.47000000000E+01 0.  1.
         11    1    4    4    0    0 -0.56070701785E+02 -0.77378294481E+01 -0.26793215280E+03  0.27384564285E+03  0.00000000000E+00 0. -1.
        -12    1    4    4    0    0  0.14716033694E+02  0.21067297036E+02 -0.41174339198E+02  0.48535748273E+02  0.00000000000E+00 0.  1.
<mgrwt>
<rscale>  2 0.18624500E+03</rscale>
<asrwt>0</asrwt>
<pdfrwt beam="1">  1       21 0.17417903E-01 0.18661152E+03</pdfrwt>
<pdfrwt beam="2">  1       21 0.69847299E-01 0.18661152E+03</pdfrwt>
<totfact> 0.55698706E+04</totfact>
</mgrwt>
</event>
<event>
12    1  0.1019868E-001  0.2030955E+03  0.7546771E-02  0.1147529E+00
         21   -1    0    0  501  502  0.00000000000E+00  0.00000000000E+00  0.22997962923E+03  0.22997962923E+03  0.00000000000E+00 0. -1.
         21   -1    0    0  502  503 -0.00000000000E+00 -0.00000000000E+00 -0.35279735637E+03  0.35279735637E+03  0.00000000000E+00 0. -1.
         -6    2    1    2    0  503 -0.31251992748E+02  0.98772938893E+02 -0.26679156875E+03  0.33529917120E+03  0.17468546747E+03 0.  0.
        -24    2    3    3    0    0 -0.47494829297E+02  0.70507681313E+02 -0.27709894064E+03  0.30078705101E+03  0.80386163099E+02 0.  0.
          6    2    1    2  501    0  0.31251992748E+02 -0.98772938893E+02  0.14397384161E+03  0.24747781440E+03  0.17258047701E+03 0.  0.
         24    2    5    5    0    0  0.18404702094E+02 -0.13247825091E+03  0.83320417396E+02  0.17675279192E+03  0.80062709628E+02 0.  0.
          5    1    5    5  501    0  0.12847290654E+02  0.33705312022E+02  0.60653424210E+02  0.70725022475E+02  0.47000000000E+01 0. -1.
        -13    1    6    6    0    0 -0.27128215498E+02 -0.88415041263E+02  0.47566316135E+02  0.10399862513E+03  0.00000000000E+00 0.  1.
         14    1    6    6    0    0  0.45532917592E+02 -0.44063209651E+02  0.35754101261E+02  0.72754166796E+02  0.00000000000E+00 0. -1.
         -5    1    3    3    0  503  0.16242836549E+02  0.28265257580E+02  0.10307371886E+02  0.34512120196E+02  0.47000000000E+01 0.  1.
         13    1    4    4    0    0  0.21547926521E+02  0.78113131373E+01 -0.41645397438E+02  0.47535974567E+02  0.00000000000E+00 0. -1.
        -14    1    4    4    0    0 -0.69042755818E+02  0.62696368175E+02 -0.23545354320E+03  0.25325107644E+03  0.00000000000E+00 0.  1.
<mgrwt>
<rscale>  2 0.20264209E+03</rscale>
<asrwt>0</asrwt>
<pdfrwt beam="1">  1       21 0.35381481E-01 0.20309553E+03</pdfrwt>
<pdfrwt beam="2">  1       21 0.54276516E-01 0.20309553E+03</pdfrwt>
<totfact> 0.24556743E+04</totfact>
</mgrwt>
</event>
<event>
12    1  0.1019868E-001  0.1775404E+03  0.7546771E-02  0.1170452E+00
         21   -1    0    0  501  502  0.00000000000E+00  0.00000000000E+00  0.14063427766E+03  0.14063427766E+03  0.00000000000E+00 0. -1.
         21   -1    0    0  502  503 -0.00000000000E+00 -0.00000000000E+00 -0.82773577357E+03  0.82773577357E+03  0.00000000000E+00 0. -1.
         -6    2    1    2    0  503 -0.35346117357E+02 -0.46541762583E-03 -0.75718834647E+03  0.77749635516E+03  0.17296543656E+03 0.  0.
        -24    2    3    3    0    0 -0.70539133852E+02 -0.42218749219E+02 -0.59786007594E+03  0.60888876432E+03  0.80936176884E+02 0.  0.
          6    2    1    2  501    0  0.35346117357E+02  0.46541762583E-03  0.70086850562E+02  0.19087369607E+03  0.17398635929E+03 0.  0.
         24    2    5    5    0    0  0.74599377007E+02 -0.40377041742E+02  0.25129361983E+02  0.11866270482E+03  0.79082110069E+02 0.  0.
          5    1    5    5  501    0 -0.39253259650E+02  0.40377507160E+02  0.44957488579E+02  0.72210991247E+02  0.47000000000E+01 0. -1.
        -11    1    6    6    0    0 -0.57515162259E+01 -0.33450357052E+02  0.15921053562E+02  0.37489815581E+02  0.00000000000E+00 0.  1.
         12    1    6    6    0    0  0.80350893233E+02 -0.69266846903E+01  0.92083084207E+01  0.81172889243E+02  0.00000000000E+00 0. -1.
         -5    1    3    3    0  503  0.35193016496E+02  0.42218283802E+02 -0.15932827053E+03  0.16860759084E+03  0.47000000000E+01 0.  1.
         11    1    4    4    0    0 -0.20654398218E+02 -0.56535043084E+02 -0.39165299983E+03  0.39625104106E+03  0.00000000000E+00 0. -1.
        -12    1    4    4    0    0 -0.49884735634E+02  0.14316293865E+02 -0.20620707610E+03  0.21263772326E+03  0.00000000000E+00 0.  1.
<mgrwt>
<rscale>  2 0.17728980E+03</rscale>
<asrwt>0</asrwt>
<pdfrwt beam="1">  1       21 0.21636043E-01 0.17754042E+03</pdfrwt>
<pdfrwt beam="2">  1       21 0.12734396E+00 0.17754042E+03</pdfrwt>
<totfact> 0.91733154E+03</totfact>
</mgrwt>
</event>
<event>
12    1  0.1019868E-001  0.2935076E+03  0.7546771E-02  0.1088583E+00
         21   -1    0    0  501  502  0.00000000000E+00  0.00000000000E+00  0.57680945427E+03  0.57680945427E+03  0.00000000000E+00 0. -1.
         21   -1    0    0  502  503 -0.00000000000E+00 -0.00000000000E+00 -0.16215295815E+03  0.16215295815E+03  0.00000000000E+00 0.  1.
         -6    2    1    2    0  503 -0.56711058369E+02 -0.22989025944E+03  0.10255608075E+03  0.31053107728E+03  0.17276031005E+03 0.  0.
        -24    2    3    3    0    0 -0.52643961741E+02 -0.54080611535E+02  0.46677143255E+02  0.12595014861E+03  0.89378884427E+02 0.  0.
          6    2    1    2  501    0  0.56711058369E+02  0.22989025944E+03  0.31210041537E+03  0.42843133514E+03  0.17343893489E+03 0.  0.
         24    2    5    5    0    0  0.85398192111E+02  0.18634492311E+03  0.16830713975E+03  0.27540276242E+03  0.74176186695E+02 0.  0.
          5    1    5    5  501    0 -0.28687133741E+02  0.43545336332E+02  0.14379327561E+03  0.15302857273E+03  0.47000000000E+01 0. -1.
        -11    1    6    6    0    0 -0.42356470648E+01  0.74351306959E+02  0.54191546222E+02  0.92102015366E+02  0.00000000000E+00 0.  1.
         12    1    6    6    0    0  0.89633839175E+02  0.11199361615E+03  0.11411559353E+03  0.18330074705E+03  0.00000000000E+00 0. -1.
         -5    1    3    3    0  503 -0.40670966286E+01 -0.17580964791E+03  0.55878937498E+02  0.18458092867E+03  0.47000000000E+01 0.  1.
         11    1    4    4    0    0 -0.45273732301E+02 -0.78932243316E+02  0.38064814218E+02  0.98635388947E+02  0.00000000000E+00 0. -1.
        -12    1    4    4    0    0 -0.73702294395E+01  0.24851631781E+02  0.86123290369E+01  0.27314759666E+02  0.00000000000E+00 0.  1.
<mgrwt>
<rscale>  2 0.29340747E+03</rscale>
<asrwt>0</asrwt>
<pdfrwt beam="1">  1       21 0.88739915E-01 0.29350765E+03</pdfrwt>
<pdfrwt beam="2">  1       21 0.24946609E-01 0.29350765E+03</pdfrwt>
<totfact> 0.15642045E+04</totfact>
</mgrwt>
</event>
<event>
12    1  0.1019868E-001  0.1988384E+03  0.7546771E-02  0.1151182E+00
         21   -1    0    0  501  502  0.00000000000E+00  0.00000000000E+00  0.60671308976E+02  0.60671308976E+02  0.00000000000E+00 0. -1.
         21   -1    0    0  502  503 -0.00000000000E+00 -0.00000000000E+00 -0.14077040314E+04  0.14077040314E+04  0.00000000000E+00 0.  1.
         -6    2    1    2    0  503 -0.91221981772E+02 -0.32033066763E+02 -0.12157335853E+04  0.12318867081E+04  0.17375023430E+03 0.  0.
        -24    2    3    3    0    0 -0.51375676012E+01 -0.14390606362E+02 -0.92053660898E+03  0.92385241199E+03  0.76695153102E+02 0.  0.
          6    2    1    2  501    0  0.91221981772E+02  0.32033066763E+02 -0.13129913717E+03  0.23648863230E+03  0.17128876921E+03 0.  0.
         24    2    5    5    0    0  0.49407709482E+02  0.42932212455E+02 -0.15475504070E+03  0.18709739670E+03  0.82292263340E+02 0.  0.
          5    1    5    5  501    0  0.41814272290E+02 -0.10899145692E+02  0.23455903526E+02  0.49391235600E+02  0.47000000000E+01 0. -1.
        -13    1    6    6    0    0 -0.12377836466E+02 -0.15653400707E+02 -0.27216185559E+02  0.33748489532E+02  0.00000000000E+00 0.  1.
         14    1    6    6    0    0  0.61785545949E+02  0.58585613162E+02 -0.12753885514E+03  0.15334890716E+03  0.00000000000E+00 0. -1.
         -5    1    3    3    0  503 -0.86084414171E+02 -0.17642460401E+02 -0.29519697630E+03  0.30803429613E+03  0.47000000000E+01 0.  1.
         13    1    4    4    0    0  0.18138280256E+02  0.19423334304E+00 -0.55689844933E+02  0.58569563477E+02  0.00000000000E+00 0. -1.
        -14    1    4    4    0    0 -0.23275847857E+02 -0.14584839705E+02 -0.86484676405E+03  0.86528284851E+03  0.00000000000E+00 0.  1.
<mgrwt>
<rscale>  2 0.19829940E+03</rscale>
<asrwt>0</asrwt>
<pdfrwt beam="1">  1       21 0.93340485E-02 0.19883840E+03</pdfrwt>
<pdfrwt beam="2">  1       21 0.21656983E+00 0.19883840E+03</pdfrwt>
<totfact> 0.96242658E+03</totfact>
</mgrwt>
</event>
<event>
12    1  0.1019868E-001  0.2661567E+03  0.7546771E-02  0.1103622E+00
         21   -1    0    0  501  502  0.00000000000E+00  0.00000000000E+00  0.45909735901E+03  0.45909735901E+03  0.00000000000E+00 0.  1.
         21   -1    0    0  502  503 -0.00000000000E+00 -0.00000000000E+00 -0.18309823892E+03  0.18309823892E+03  0.00000000000E+00 0. -1.
         -6    2    1    2    0  503  0.19033989867E+03  0.65987646672E+02  0.97743172643E+01  0.26633614832E+03  0.17394182960E+03 0.  0.
        -24    2    3    3    0    0  0.89468850236E+02  0.68642960072E+02 -0.49771723349E+02  0.14907643633E+03  0.83845263999E+02 0.  0.
          6    2    1    2  501    0 -0.19033989867E+03 -0.65987646672E+02  0.26622480283E+03  0.37585944962E+03  0.17265872028E+03 0.  0.
         24    2    5    5    0    0 -0.17753715521E+03 -0.10473607842E+03  0.24206649410E+03  0.32820375653E+03  0.81439736208E+02 0.  0.
          5    1    5    5  501    0 -0.12802743462E+02  0.38748431746E+02  0.24158308725E+02  0.47655693085E+02  0.47000000000E+01 0. -1.
        -11    1    6    6    0    0 -0.89216882137E+02 -0.29114480358E+02  0.16136217315E+03  0.18666830462E+03  0.00000000000E+00 0.  1.
         12    1    6    6    0    0 -0.88320273069E+02 -0.75621598060E+02  0.80704320947E+02  0.14153545191E+03  0.00000000000E+00 0. -1.
         -5    1    3    3    0  503  0.10087104843E+03 -0.26553134005E+01  0.59546040613E+02  0.11725971198E+03  0.47000000000E+01 0.  1.
         13    1    4    4    0    0  0.55015290697E+02  0.52582258887E+02  0.11504440671E+02  0.76967059937E+02  0.00000000000E+00 0. -1.
        -14    1    4    4    0    0  0.34453559539E+02  0.16060701185E+02 -0.61276164020E+02  0.72109376397E+02  0.00000000000E+00 0.  1.
<mgrwt>
<rscale>  2 0.26594729E+03</rscale>
<asrwt>0</asrwt>
<pdfrwt beam="1">  1       21 0.70630363E-01 0.26615673E+03</pdfrwt>
<pdfrwt beam="2">  1       21 0.28168960E-01 0.26615673E+03</pdfrwt>
<totfact> 0.21047867E+04</totfact>
</mgrwt>
</event>
<event>
12    1  0.1019868E-001  0.1831514E+03  0.7546771E-02  0.1164878E+00
         21   -1    0    0  501  502  0.00000000000E+00  0.00000000000E+00  0.41159519016E+03  0.41159519016E+03  0.00000000000E+00 0.  1.
         21   -1    0    0  502  503 -0.00000000000E+00 -0.00000000000E+00 -0.14139946829E+03  0.14139946829E+03  0.00000000000E+00 0. -1.
         -6    2    1    2    0  503 -0.35486046160E+02 -0.48109560199E+02 -0.45039820014E+02  0.18860812805E+03  0.17312033770E+03 0.  0.
        -24    2    3    3    0    0 -0.90007480282E+02 -0.25869226790E+02 -0.26183913186E+02  0.12660123786E+03  0.81066100908E+02 0.  0.
          6    2    1    2  501    0  0.35486046160E+02  0.48109560199E+02  0.31523554188E+03  0.36438653040E+03  0.17271452579E+03 0.  0.
         24    2    5    5    0    0  0.22549143243E+02  0.99249880188E+02  0.20922088686E+03  0.24587959869E+03  0.79526064744E+02 0.  0.
          5    1    5    5  501    0  0.12936902916E+02 -0.51140319989E+02  0.10601465502E+03  0.11850693172E+03  0.47000000000E+01 0. -1.
        -13    1    6    6    0    0  0.26463776205E+02  0.96016418829E+02  0.21573798995E+03  0.23761810631E+03  0.00000000000E+00 0.  1.
         14    1    6    6    0    0 -0.39146329620E+01  0.32334613596E+01 -0.65171030944E+01  0.82614923793E+01  0.00000000000E+00 0. -1.
         -5    1    3    3    0  503  0.54521434122E+02 -0.22240333409E+02 -0.18855906828E+02  0.62006890191E+02  0.47000000000E+01 0.  1.
         13    1    4    4    0    0 -0.93674888041E+02 -0.35725935235E+02 -0.20520921582E+01  0.10027730641E+03  0.00000000000E+00 0. -1.
        -14    1    4    4    0    0  0.36674077589E+01  0.98567084452E+01 -0.24131821028E+02  0.26323931453E+02  0.00000000000E+00 0.  1.
<mgrwt>
<rscale>  2 0.18305545E+03</rscale>
<asrwt>0</asrwt>
<pdfrwt beam="1">  1       21 0.63322336E-01 0.18315141E+03</pdfrwt>
<pdfrwt beam="2">  1       21 0.21753765E-01 0.18315141E+03</pdfrwt>
<totfact> 0.45693573E+04</totfact>
</mgrwt>
</event>
<event>
12    1  0.1019868E-001  0.1960776E+03  0.7546771E-02  0.1154316E+00
         21   -1    0    0  501  502  0.00000000000E+00  0.00000000000E+00  0.99992088559E+02  0.99992088559E+02  0.00000000000E+00 0.  1.
         21   -1    0    0  502  503 -0.00000000000E+00 -0.00000000000E+00 -0.91819814358E+03  0.91819814358E+03  0.00000000000E+00 0. -1.
         -6    2    1    2    0  503  0.39345339227E+02  0.74816166585E+02 -0.79874470015E+03  0.82114917984E+03  0.17072599401E+03 0.  0.
        -24    2    3    3    0    0 -0.15221737326E+02 -0.14897324592E+02 -0.29555888586E+03  0.30710236286E+03  0.80642263712E+02 0.  0.
          6    2    1    2  501    0 -0.39345339227E+02 -0.74816166585E+02 -0.19461354868E+02  0.19704105230E+03  0.17692065299E+03 0.  0.
         24    2    5    5    0    0 -0.90923718169E+02 -0.38500648572E+02  0.84897582203E+01  0.12788542530E+03  0.80828111092E+02 0.  0.
          5    1    5    5  501    0  0.51578378942E+02 -0.36315518013E+02 -0.27951113089E+02  0.69155626999E+02  0.47000000000E+01 0. -1.
        -11    1    6    6    0    0 -0.44489836778E+02 -0.59398715213E+02  0.17315931804E+02  0.76206262470E+02  0.00000000000E+00 0.  1.
         12    1    6    6    0    0 -0.46433881391E+02  0.20898066641E+02 -0.88261735836E+01  0.51679162827E+02  0.00000000000E+00 0. -1.
         -5    1    3    3    0  503  0.54567076554E+02  0.89713491177E+02 -0.50318581429E+03  0.51404681697E+03  0.47000000000E+01 0.  1.
         11    1    4    4    0    0 -0.25052583581E+02 -0.10465524454E+02 -0.29506071303E+03  0.29630724514E+03  0.00000000000E+00 0. -1.
        -12    1    4    4    0    0  0.98308462541E+01 -0.44318001380E+01 -0.49817283042E+00  0.10795117725E+02  0.00000000000E+00 0.  1.
<mgrwt>
<rscale>  2 0.19466985E+03</rscale>
<asrwt>0</asrwt>
<pdfrwt beam="1">  1       21 0.15383398E-01 0.19607762E+03</pdfrwt>
<pdfrwt beam="2">  1       21 0.14126125E+00 0.19607762E+03</pdfrwt>
<totfact> 0.13066556E+04</totfact>
</mgrwt>
</event>
<event>
12    1  0.1019868E-001  0.1791482E+03  0.7546771E-02  0.1169138E+00
         21   -1    0    0  503  502  0.00000000000E+00  0.00000000000E+00  0.87041182342E+02  0.87041182342E+02  0.00000000000E+00 0.  1.
         21   -1    0    0  501  503 -0.00000000000E+00 -0.00000000000E+00 -0.36866444233E+03  0.36866444233E+03  0.00000000000E+00 0.  1.
          6    2    1    2  501    0 -0.39741704791E+02 -0.76276468943E+01 -0.11730673687E+03  0.21413770003E+03  0.17451790728E+03 0.  0.
         24    2    3    3    0    0  0.17347079082E+02 -0.11214733301E+02 -0.13026579467E+03  0.15529873665E+03  0.81986760811E+02 0.  0.
         -6    2    1    2    0  502  0.39741704791E+02  0.76276468943E+01 -0.16431652312E+03  0.24156792465E+03  0.17238781381E+03 0.  0.
        -24    2    5    5    0    0 -0.86810419749E+01  0.61979511381E+02 -0.11416950866E+03  0.15304843167E+03  0.80450763872E+02 0.  0.
          5    1    3    3  501    0 -0.57088783873E+02  0.35870864068E+01  0.12959057797E+02  0.58838963383E+02  0.47000000000E+01 0. -1.
        -13    1    4    4    0    0  0.49288075272E+00 -0.73938943221E+01 -0.13666826908E+03  0.13686901906E+03  0.00000000000E+00 0.  1.
         14    1    4    4    0    0  0.16854198329E+02 -0.38208389790E+01  0.64024744125E+01  0.18429717590E+02  0.00000000000E+00 0. -1.
         -5    1    5    5    0  502  0.48422746766E+02 -0.54351864486E+02 -0.50147014461E+02  0.88519492977E+02  0.47000000000E+01 0.  1.
         11    1    6    6    0    0 -0.43966071255E+02  0.24098612987E+02 -0.54615035728E+02  0.74138793470E+02  0.00000000000E+00 0. -1.
        -12    1    6    6    0    0  0.35285029281E+02  0.37880898393E+02 -0.59554472934E+02  0.78909638200E+02  0.00000000000E+00 0.  1.
<mgrwt>
<rscale>  2 0.17862735E+03</rscale>
<asrwt>0</asrwt>
<pdfrwt beam="1">  1       21 0.13390951E-01 0.17914822E+03</pdfrwt>
<pdfrwt beam="2">  1       21 0.56717607E-01 0.17914822E+03</pdfrwt>
<totfact> 0.14145629E+05</totfact>
</mgrwt>
</event>
<event>
12    1  0.1019868E-001  0.1758348E+03  0.7546771E-02  0.1172003E+00
         21   -1    0    0  503  502  0.00000000000E+00  0.00000000000E+00  0.21484728512E+03  0.21484728512E+03  0.00000000000E+00 0.  1.
         21   -1    0    0  501  503 -0.00000000000E+00 -0.00000000000E+00 -0.20689732980E+03  0.20689732980E+03  0.00000000000E+00 0.  1.
          6    2    1    2  501    0  0.13279426421E+02 -0.27763823528E+02 -0.11270609568E+03  0.20849419248E+03  0.17268465836E+03 0.  0.
         24    2    3    3    0    0 -0.15192247376E+02 -0.50134530066E+02 -0.13548849515E+03  0.16545685467E+03  0.79212138930E+02 0.  0.
         -6    2    1    2    0  502 -0.13279426421E+02  0.27763823528E+02  0.12065605100E+03  0.21325042243E+03  0.17312044062E+03 0.  0.
        -24    2    5    5    0    0 -0.17753132324E+02 -0.13223895700E+02 -0.22361700808E+01  0.83540765218E+02  0.80523374691E+02 0.  0.
          5    1    3    3  501    0  0.28471673798E+02  0.22370706538E+02  0.22782399475E+02  0.43037337809E+02  0.47000000000E+01 0. -1.
        -11    1    4    4    0    0  0.19213488829E+02  0.63130173139E+01 -0.68172024121E+02  0.71108629669E+02  0.00000000000E+00 0.  1.
         12    1    4    4    0    0 -0.34405736206E+02 -0.56447547380E+02 -0.67316471033E+02  0.94348225004E+02  0.00000000000E+00 0. -1.
         -5    1    5    5    0  502  0.44737059030E+01  0.40987719228E+02  0.12289222108E+03  0.12970965721E+03  0.47000000000E+01 0.  1.
         13    1    6    6    0    0  0.11282184123E+02 -0.24008780643E+02 -0.31325684727E+02  0.41048845906E+02  0.00000000000E+00 0. -1.
        -14    1    6    6    0    0 -0.29035316447E+02  0.10784884944E+02  0.29089514646E+02  0.42491919312E+02  0.00000000000E+00 0.  1.
<mgrwt>
<rscale>  2 0.17572739E+03</rscale>
<asrwt>0</asrwt>
<pdfrwt beam="1">  1       21 0.33053429E-01 0.17583475E+03</pdfrwt>
<pdfrwt beam="2">  1       21 0.31830358E-01 0.17583475E+03</pdfrwt>
<totfact> 0.84204488E+04</totfact>
</mgrwt>
</event>
<event>
12    1  0.1019868E-001  0.1892092E+03  0.7546771E-02  0.1159330E+00
         21   -1    0    0  501  502  0.00000000000E+00  0.00000000000E+00  0.40024212780E+03  0.40024212780E+03  0.00000000000E+00 0. -1.
         21   -1    0    0  502  503 -0.00000000000E+00 -0.00000000000E+00 -0.11221771464E+03  0.11221771464E+03  0.00000000000E+00 0. -1.
         -6    2    1    2    0  503  0.73460951292E+02 -0.16244739992E+02  0.27987853126E+02  0.19126802224E+03  0.17360798791E+03 0.  0.
        -24    2    3    3    0    0  0.10237519151E+03 -0.42699447897E+02  0.49871795051E+02  0.14613619565E+03  0.81022645290E+02 0.  0.
          6    2    1    2  501    0 -0.73460951292E+02  0.16244739992E+02  0.26003656004E+03  0.32119182020E+03  0.17287211998E+03 0.  0.
         24    2    5    5    0    0 -0.93730688881E+02  0.23457325167E+01  0.10236556430E+03  0.16154759836E+03  0.82631551371E+02 0.  0.
          5    1    5    5  501    0  0.20269737589E+02  0.13899007475E+02  0.15767099574E+03  0.15964422184E+03  0.47000000000E+01 0. -1.
        -11    1    6    6    0    0 -0.76221256762E+02 -0.34886904383E+02  0.69377329927E+02  0.10881171806E+03  0.00000000000E+00 0.  1.
         12    1    6    6    0    0 -0.17509432118E+02  0.37232636900E+02  0.32988234375E+02  0.52735880298E+02  0.00000000000E+00 0. -1.
         -5    1    3    3    0  503 -0.28914240215E+02  0.26454707905E+02 -0.21883941925E+02  0.45131826594E+02  0.47000000000E+01 0.  1.
         11    1    4    4    0    0  0.31655179125E+02 -0.56733555546E+02  0.28437023362E+02  0.70918340280E+02  0.00000000000E+00 0. -1.
        -12    1    4    4    0    0  0.70720012382E+02  0.14034107648E+02  0.21434771689E+02  0.75217855368E+02  0.00000000000E+00 0.  1.
<mgrwt>
<rscale>  2 0.18904027E+03</rscale>
<asrwt>0</asrwt>
<pdfrwt beam="1">  1       21 0.61575711E-01 0.18920924E+03</pdfrwt>
<pdfrwt beam="2">  1       21 0.17264264E-01 0.18920924E+03</pdfrwt>
<totfact> 0.74420208E+04</totfact>
</mgrwt>
</event>
<event>
12    1  0.1019868E-001  0.2074609E+03  0.7546771E-02  0.1143675E+00
         21   -1    0    0  501  502  0.00000000000E+00  0.00000000000E+00  0.72456200649E+02  0.72456200649E+02  0.00000000000E+00 0.  1.
         21   -1    0    0  502  503 -0.00000000000E+00 -0.00000000000E+00 -0.63452669190E+03  0.63452669190E+03  0.00000000000E+00 0. -1.
         -6    2    1    2    0  503  0.11041000390E+03 -0.28538643833E+02 -0.37138289455E+03  0.42519967350E+03  0.17281401803E+03 0.  0.
        -24    2    3    3    0    0 -0.38217746576E+01 -0.27834764327E+02 -0.20088189032E+03  0.21991431814E+03  0.84967013607E+02 0.  0.
          6    2    1    2  501    0 -0.11041000390E+03  0.28538643833E+02 -0.19068759671E+03  0.28178321905E+03  0.17330666418E+03 0.  0.
         24    2    5    5    0    0 -0.74090806213E+02 -0.48889486488E+02 -0.13465658309E+03  0.17943203941E+03  0.78637344470E+02 0.  0.
          5    1    5    5  501    0 -0.36319197690E+02  0.77428130321E+02 -0.56031013618E+02  0.10235117964E+03  0.47000000000E+01 0. -1.
        -11    1    6    6    0    0 -0.69296638213E+02 -0.44764390193E+02 -0.54159793443E+02  0.98687172028E+02  0.00000000000E+00 0.  1.
         12    1    6    6    0    0 -0.47941679995E+01 -0.41250962948E+01 -0.80496789645E+02  0.80744867387E+02  0.00000000000E+00 0. -1.
         -5    1    3    3    0  503  0.11423177856E+03 -0.70387950591E+00 -0.17050100423E+03  0.20528535535E+03  0.47000000000E+01 0.  1.
         13    1    4    4    0    0  0.14596943205E+02 -0.48421596910E-01 -0.17997127345E+03  0.18056226727E+03  0.00000000000E+00 0. -1.
        -14    1    4    4    0    0 -0.18418717862E+02 -0.27786342731E+02 -0.20910616865E+02  0.39352050870E+02  0.00000000000E+00 0.  1.
<mgrwt>
<rscale>  2 0.20735798E+03</rscale>
<asrwt>0</asrwt>
<pdfrwt beam="1">  1       21 0.11147108E-01 0.20746090E+03</pdfrwt>
<pdfrwt beam="2">  1       21 0.97619493E-01 0.20746090E+03</pdfrwt>
<totfact> 0.57744514E+04</totfact>
</mgrwt>
</event>
<event>
12    1  0.1019868E-001  0.1809391E+03  0.7546771E-02  0.1167672E+00
         21   -1    0    0  501  502  0.00000000000E+00  0.00000000000E+00  0.78777535919E+02  0.78777535919E+02  0.00000000000E+00 0.  1.
         21   -1    0    0  502  503 -0.00000000000E+00 -0.00000000000E+00 -0.73529516794E+03  0.73529516794E+03  0.00000000000E+00 0.  1.
         -6    2    1    2    0  503  0.92763672699E+01 -0.39550401043E+02 -0.60132326834E+03  0.62795591277E+03  0.17631979505E+03 0.  0.
        -24    2    3    3    0    0 -0.61530156087E+02 -0.21500273407E+02 -0.41402438497E+03  0.42685312172E+03  0.80865161276E+02 0.  0.
          6    2    1    2  501    0 -0.92763672699E+01  0.39550401043E+02 -0.55194363682E+02  0.18611679109E+03  0.17303975534E+03 0.  0.
         24    2    5    5    0    0  0.72786063725E+01 -0.25893688113E+02  0.18461247567E+02  0.86095618197E+02  0.79675445503E+02 0.  0.
          5    1    5    5  501    0 -0.16554973642E+02  0.65444089156E+02 -0.73655611249E+02  0.10002117289E+03  0.47000000000E+01 0. -1.
        -11    1    6    6    0    0 -0.13968534599E+02 -0.48834302181E+02  0.21733181387E+01  0.50839279500E+02  0.00000000000E+00 0.  1.
         12    1    6    6    0    0  0.21247140972E+02  0.22940614067E+02  0.16287929429E+02  0.35256338697E+02  0.00000000000E+00 0. -1.
         -5    1    3    3    0  503  0.70806523357E+02 -0.18050127636E+02 -0.18729888337E+03  0.20110279105E+03  0.47000000000E+01 0.  1.
         13    1    4    4    0    0 -0.25454233690E+02 -0.27853913687E+02 -0.35757234006E+03  0.35955769620E+03  0.00000000000E+00 0. -1.
        -14    1    4    4    0    0 -0.36075922397E+02  0.63536402802E+01 -0.56452044914E+02  0.67295425525E+02  0.00000000000E+00 0.  1.
<mgrwt>
<rscale>  2 0.18013506E+03</rscale>
<asrwt>0</asrwt>
<pdfrwt beam="1">  1       21 0.12119621E-01 0.18093909E+03</pdfrwt>
<pdfrwt beam="2">  1       21 0.11312233E+00 0.18093909E+03</pdfrwt>
<totfact> 0.35409509E+04</totfact>
</mgrwt>
</event>
<event>
12    1  0.1019868E-001  0.2218471E+03  0.7546771E-02  0.1133164E+00
         21   -1    0    0  501  502  0.00000000000E+00  0.00000000000E+00  0.66150268167E+02  0.66150268167E+02  0.00000000000E+00 0.  1.
         21   -1    0    0  502  503 -0.00000000000E+00 -0.00000000000E+00 -0.84259146823E+03  0.84259146823E+03  0.00000000000E+00 0. -1.
         -6    2    1    2    0  503 -0.13057821637E+03 -0.29853858673E+02 -0.54990820445E+03  0.59167181583E+03  0.17243717945E+03 0.  0.
        -24    2    3    3    0    0 -0.90880247370E+02 -0.36017384634E+02 -0.53301598774E+03  0.54783855471E+03  0.80402534068E+02 0.  0.
          6    2    1    2  501    0  0.13057821637E+03  0.29853858673E+02 -0.22653299561E+03  0.31706992056E+03  0.17684516663E+03 0.  0.
         24    2    5    5    0    0  0.69968053996E+02 -0.38542496332E+02 -0.18432332932E+03  0.21629592050E+03  0.80173455023E+02 0.  0.
          5    1    5    5  501    0  0.60610162373E+02  0.68396355005E+02 -0.42209666289E+02  0.10077400006E+03  0.47000000000E+01 0. -1.
        -11    1    6    6    0    0 -0.88843227230E+01  0.14065088247E+02 -0.15802208866E+02  0.22944884020E+02  0.00000000000E+00 0.  1.
         12    1    6    6    0    0  0.78852376719E+02 -0.52607584578E+02 -0.16852112045E+03  0.19335103648E+03  0.00000000000E+00 0. -1.
         -5    1    3    3    0  503 -0.39697968999E+02  0.61635259609E+01 -0.16892216715E+02  0.43833261120E+02  0.47000000000E+01 0.  1.
         13    1    4    4    0    0  0.11487711089E+02 -0.18123760655E+02 -0.12302520585E+03  0.12488250270E+03  0.00000000000E+00 0. -1.
        -14    1    4    4    0    0 -0.10236795846E+03 -0.17893623979E+02 -0.40999078188E+03  0.42295605200E+03  0.00000000000E+00 0.  1.
<mgrwt>
<rscale>  2 0.22096748E+03</rscale>
<asrwt>0</asrwt>
<pdfrwt beam="1">  1       21 0.10176965E-01 0.22184710E+03</pdfrwt>
<pdfrwt beam="2">  1       21 0.12962945E+00 0.22184710E+03</pdfrwt>
<totfact> 0.33686660E+04</totfact>
</mgrwt>
</event>
<event>
12    1  0.1019868E-001  0.2638753E+03  0.7546771E-02  0.1105248E+00
         21   -1    0    0  501  502  0.00000000000E+00  0.00000000000E+00  0.18873174175E+03  0.18873174175E+03  0.00000000000E+00 0.  1.
         21   -1    0    0  502  503 -0.00000000000E+00 -0.00000000000E+00 -0.41730297683E+03  0.41730297683E+03  0.00000000000E+00 0.  1.
         -6    2    1    2    0  503  0.92743320319E+02  0.17584514572E+03 -0.22095876413E+03  0.34204960694E+03  0.16926996018E+03 0.  0.
        -24    2    3    3    0    0 -0.79118221897E+01  0.93960316563E+02 -0.14410761576E+03  0.19116961500E+03  0.82992040350E+02 0.  0.
          6    2    1    2  501    0 -0.92743320319E+02 -0.17584514572E+03 -0.76124709504E+01  0.26398511164E+03  0.17351469885E+03 0.  0.
         24    2    5    5    0    0 -0.65971042289E+02 -0.19564359917E+03 -0.29746389864E+02  0.22372677093E+03  0.80871651427E+02 0.  0.
          5    1    5    5  501    0 -0.26772278030E+02  0.19798453450E+02  0.22133918914E+02  0.40258340706E+02  0.47000000000E+01 0. -1.
        -11    1    6    6    0    0 -0.36061942358E+02 -0.10403390788E+03 -0.56440095932E+02  0.12372955227E+03  0.00000000000E+00 0.  1.
         12    1    6    6    0    0 -0.29909099931E+02 -0.91609691288E+02  0.26693706068E+02  0.99997218662E+02  0.00000000000E+00 0. -1.
         -5    1    3    3    0  503  0.10065514251E+03  0.81884829158E+02 -0.76851148379E+02  0.15087999194E+03  0.47000000000E+01 0.  1.
         11    1    4    4    0    0 -0.80561040578E+01  0.10253738455E+03 -0.14918280723E+03  0.18120244484E+03  0.00000000000E+00 0. -1.
        -12    1    4    4    0    0  0.14428186812E+00 -0.85770679873E+01  0.50751914735E+01  0.99671701606E+01  0.00000000000E+00 0.  1.
<mgrwt>
<rscale>  2 0.26317968E+03</rscale>
<asrwt>0</asrwt>
<pdfrwt beam="1">  1       21 0.29035653E-01 0.26387533E+03</pdfrwt>
<pdfrwt beam="2">  1       21 0.64200457E-01 0.26387533E+03</pdfrwt>
<totfact> 0.24517242E+04</totfact>
</mgrwt>
</event>
<event>
12    1  0.1019868E-001  0.3503200E+03  0.7546771E-02  0.1062675E+00
         21   -1    0    0  501  502  0.00000000000E+00  0.00000000000E+00  0.61330076344E+03  0.61330076344E+03  0.00000000000E+00 0.  1.
         21   -1    0    0  502  503 -0.00000000000E+00 -0.00000000000E+00 -0.20358077397E+03  0.20358077397E+03  0.00000000000E+00 0.  1.
         -6    2    1    2    0  503  0.12944406046E+03  0.27353164649E+03  0.26637001282E+03  0.44008760064E+03  0.17649018695E+03 0.  0.
        -24    2    3    3    0    0  0.15842960669E+03  0.24350528790E+03  0.20095636479E+03  0.36235228403E+03  0.80752409748E+02 0.  0.
          6    2    1    2  501    0 -0.12944406046E+03 -0.27353164649E+03  0.14334997665E+03  0.37679393677E+03  0.17276900346E+03 0.  0.
         24    2    5    5    0    0 -0.15801144972E+03 -0.22008431754E+03  0.95031315671E+02  0.29914410934E+03  0.83973341732E+02 0.  0.
          5    1    5    5  501    0  0.28567389259E+02 -0.53447328949E+02  0.48318660983E+02  0.77649827431E+02  0.47000000000E+01 0. -1.
        -13    1    6    6    0    0 -0.37197879264E+01 -0.94711007658E+01 -0.13072755381E+02  0.16566095050E+02  0.00000000000E+00 0.  1.
         14    1    6    6    0    0 -0.15429166179E+03 -0.21061321678E+03  0.10810407105E+03  0.28257801429E+03  0.00000000000E+00 0. -1.
         -5    1    3    3    0  503 -0.28985546233E+02  0.30026358593E+02  0.65413648030E+02  0.77735316616E+02  0.47000000000E+01 0.  1.
         11    1    4    4    0    0  0.80173491370E+02  0.16411219303E+03  0.84858959945E+02  0.20139921475E+03  0.00000000000E+00 0. -1.
        -12    1    4    4    0    0  0.78256115323E+02  0.79393094866E+02  0.11609740484E+03  0.16095306927E+03  0.00000000000E+00 0.  1.
<mgrwt>
<rscale>  2 0.34985411E+03</rscale>
<asrwt>0</asrwt>
<pdfrwt beam="1">  1       21 0.94353963E-01 0.35032001E+03</pdfrwt>
<pdfrwt beam="2">  1       21 0.31320119E-01 0.35032001E+03</pdfrwt>
<totfact> 0.84703864E+03</totfact>
</mgrwt>
</event>
<event>
12    1  0.1019868E-001  0.2474465E+03  0.7546771E-02  0.1117432E+00
         21   -1    0    0  503  502  0.00000000000E+00  0.00000000000E+00  0.20866254095E+04  0.20866254095E+04  0.00000000000E+00 0.  1.
         21   -1    0    0  501  503 -0.00000000000E+00 -0.00000000000E+00 -0.36274212273E+02  0.36274212273E+02  0.00000000000E+00 0.  1.
          6    2    1    2  501    0 -0.12753458683E+03 -0.12063848257E+03  0.48113487280E+03  0.53429342452E+03  0.15218404429E+03 0.  0.
         24    2    3    3    0    0 -0.59042373348E+02 -0.16379703787E+02  0.28200302592E+03  0.29926862007E+03  0.79257200204E+02 0.  0.
         -6    2    1    2    0  502  0.12753458683E+03  0.12063848257E+03  0.15692163245E+04  0.15886061973E+04  0.17438767967E+03 0.  0.
        -24    2    5    5    0    0  0.70818041938E+02  0.47207201512E+02  0.12783023479E+04  0.12832179996E+04  0.73128838689E+02 0.  0.
          5    1    3    3  501    0 -0.68492213487E+02 -0.10425877878E+03  0.19913184689E+03  0.23502480445E+03  0.47000000000E+01 0. -1.
        -11    1    4    4    0    0 -0.38940212927E+02 -0.48483961489E+02  0.16819416370E+03  0.17932180962E+03  0.00000000000E+00 0.  1.
         12    1    4    4    0    0 -0.20102160421E+02  0.32104257702E+02  0.11380886222E+03  0.11994681044E+03  0.00000000000E+00 0. -1.
         -5    1    5    5    0  502  0.56716544897E+02  0.73431281053E+02  0.29091397658E+03  0.30538819766E+03  0.47000000000E+01 0.  1.
         13    1    6    6    0    0  0.97865993079E+01  0.91639394964E+01  0.74130929853E+03  0.74143053039E+03  0.00000000000E+00 0. -1.
        -14    1    6    6    0    0  0.61031442630E+02  0.38043262016E+02  0.53699304935E+03  0.54178746924E+03  0.00000000000E+00 0.  1.
<mgrwt>
<rscale>  2 0.24357842E+03</rscale>
<asrwt>0</asrwt>
<pdfrwt beam="1">  1       21 0.32101920E+00 0.24744651E+03</pdfrwt>
<pdfrwt beam="2">  1       21 0.55806496E-02 0.24744651E+03</pdfrwt>
<totfact> 0.54362833E+03</totfact>
</mgrwt>
</event>
<event>
12    1  0.1019868E-001  0.1936608E+03  0.7546771E-02  0.1156673E+00
         21   -1    0    0  503  502  0.00000000000E+00  0.00000000000E+00  0.10259476948E+03  0.10259476948E+03  0.00000000000E+00 0.  1.
         21   -1    0    0  501  503 -0.00000000000E+00 -0.00000000000E+00 -0.35459025423E+03  0.35459025423E+03  0.00000000000E+00 0.  1.
          6    2    1    2  501    0  0.82658451612E+02 -0.12850416716E+02 -0.14215043055E+03  0.24023163289E+03  0.17466235915E+03 0.  0.
         24    2    3    3    0    0  0.51108366505E+02  0.59708118570E+02 -0.99186259842E+02  0.15007533040E+03  0.80669486823E+02 0.  0.
         -6    2    1    2    0  502 -0.82658451612E+02  0.12850416716E+02 -0.10984505420E+03  0.21695339083E+03  0.16734779660E+03 0.  0.
        -24    2    5    5    0    0 -0.49532424510E+02  0.86783219186E+01  0.69771396964E+01  0.95362868856E+02  0.80725596491E+02 0.  0.
          5    1    3    3  501    0  0.31550085106E+02 -0.72558535286E+02 -0.42964170705E+02  0.90156302483E+02  0.47000000000E+01 0. -1.
        -13    1    4    4    0    0 -0.68228407631E+01  0.39442044811E+02 -0.90664539228E+01  0.41041767039E+02  0.00000000000E+00 0.  1.
         14    1    4    4    0    0  0.57931207268E+02  0.20266073759E+02 -0.90119805919E+02  0.10903356336E+03  0.00000000000E+00 0. -1.
         -5    1    5    5    0  502 -0.33126027101E+02  0.41720947976E+01 -0.11682219390E+03  0.12159052198E+03  0.47000000000E+01 0.  1.
         13    1    6    6    0    0  0.75768054409E+01  0.25255542872E+02 -0.16859502314E+02  0.31296856787E+02  0.00000000000E+00 0. -1.
        -14    1    6    6    0    0 -0.57109229951E+02 -0.16577220953E+02  0.23836642010E+02  0.64066012069E+02  0.00000000000E+00 0.  1.
<mgrwt>
<rscale>  2 0.19199687E+03</rscale>
<asrwt>0</asrwt>
<pdfrwt beam="1">  1       21 0.15783811E-01 0.19366077E+03</pdfrwt>
<pdfrwt beam="2">  1       21 0.54552347E-01 0.19366077E+03</pdfrwt>
<totfact> 0.11340731E+05</totfact>
</mgrwt>
</event>
<event>
12    1  0.1019868E-001  0.2035515E+03  0.7546771E-02  0.1146830E+00
         21   -1    0    0  501  502  0.00000000000E+00  0.00000000000E+00  0.88801000145E+02  0.88801000145E+02  0.00000000000E+00 0. -1.
         21   -1    0    0  502  503 -0.00000000000E+00 -0.00000000000E+00 -0.47214120541E+03  0.47214120541E+03  0.00000000000E+00 0. -1.
         -6    2    1    2    0  503  0.10362500702E+03  0.25148652939E+02 -0.22355361320E+03  0.30216631000E+03  0.17308282441E+03 0.  0.
        -24    2    3    3    0    0  0.12908760864E+03  0.26812584938E+02 -0.22823427170E+03  0.27580134623E+03  0.81197132872E+02 0.  0.
          6    2    1    2  501    0 -0.10362500702E+03 -0.25148652939E+02 -0.15978659207E+03  0.25877589555E+03  0.17338573266E+03 0.  0.
         24    2    5    5    0    0 -0.59666208959E+02 -0.82302129876E+02 -0.11962612000E+03  0.17610879587E+03  0.79813547238E+02 0.  0.
          5    1    5    5  501    0 -0.43958798062E+02  0.57153476937E+02 -0.40160472071E+02  0.82667099683E+02  0.47000000000E+01 0. -1.
        -13    1    6    6    0    0 -0.39256514444E+02 -0.26161389320E+02 -0.10424842797E+03  0.11442563940E+03  0.00000000000E+00 0.  1.
         14    1    6    6    0    0 -0.20409694515E+02 -0.56140740556E+02 -0.15377692034E+02  0.61683156475E+02  0.00000000000E+00 0. -1.
         -5    1    3    3    0  503 -0.25462601618E+02 -0.16639319993E+01  0.46806585071E+01  0.26364963776E+02  0.47000000000E+01 0.  1.
         13    1    4    4    0    0  0.53810880600E+02 -0.27582218621E+02 -0.71746544097E+02  0.93829399683E+02  0.00000000000E+00 0. -1.
        -14    1    4    4    0    0  0.75276728039E+02  0.54394803559E+02 -0.15648772761E+03  0.18197194655E+03  0.00000000000E+00 0.  1.
<mgrwt>
<rscale>  2 0.20348697E+03</rscale>
<asrwt>0</asrwt>
<pdfrwt beam="1">  1       21 0.13661692E-01 0.20355149E+03</pdfrwt>
<pdfrwt beam="2">  1       21 0.72637109E-01 0.20355149E+03</pdfrwt>
<totfact> 0.78970245E+04</totfact>
</mgrwt>
</event>
<event>
12    1  0.1019868E-001  0.2080831E+03  0.7546771E-02  0.1143310E+00
         21   -1    0    0  503  502  0.00000000000E+00  0.00000000000E+00  0.33323614332E+02  0.33323614332E+02  0.00000000000E+00 0. -1.
         21   -1    0    0  501  503 -0.00000000000E+00 -0.00000000000E+00 -0.14709798215E+04  0.14709798215E+04  0.00000000000E+00 0.  1.
          6    2    1    2  501    0  0.98931209585E+02 -0.55678422858E+02 -0.97911107785E+03  0.10007538384E+04  0.17309613334E+03 0.  0.
         24    2    3    3    0    0 -0.86560683392E+01 -0.12389340757E+02 -0.55081828825E+03  0.55701318149E+03  0.81452282994E+02 0.  0.
         -6    2    1    2    0  502 -0.98931209585E+02  0.55678422858E+02 -0.45854512933E+03  0.50354959740E+03  0.17438775879E+03 0.  0.
        -24    2    5    5    0    0 -0.55695308256E+02 -0.28248929823E+02 -0.15803597101E+03  0.18852422077E+03  0.81645846715E+02 0.  0.
          5    1    3    3  501    0  0.10758727792E+03 -0.43289082100E+02 -0.42829278960E+03  0.44374065695E+03  0.47000000000E+01 0. -1.
        -13    1    4    4    0    0  0.11886837420E+02 -0.37073342781E+02 -0.15209743629E+03  0.15700114578E+03  0.00000000000E+00 0.  1.
         14    1    4    4    0    0 -0.20542905759E+02  0.24684002023E+02 -0.39872085195E+03  0.40001203571E+03  0.00000000000E+00 0. -1.
         -5    1    5    5    0  502 -0.43235901328E+02  0.83927352681E+02 -0.30050915831E+03  0.31502537663E+03  0.47000000000E+01 0.  1.
         13    1    6    6    0    0 -0.38640576606E+02  0.25552551833E+02 -0.69135806144E+02  0.83221311915E+02  0.00000000000E+00 0. -1.
        -14    1    6    6    0    0 -0.17054731650E+02 -0.53801481656E+02 -0.88900164868E+02  0.10530290886E+03  0.00000000000E+00 0.  1.
<mgrwt>
<rscale>  2 0.20781222E+03</rscale>
<asrwt>0</asrwt>
<pdfrwt beam="1">  1       21 0.51267093E-02 0.20808306E+03</pdfrwt>
<pdfrwt beam="2">  1       21 0.22630461E+00 0.20808306E+03</pdfrwt>
<totfact> 0.23451284E+04</totfact>
</mgrwt>
</event>
<event>
12    1  0.1019868E-001  0.2147155E+03  0.7546771E-02  0.1138211E+00
         21   -1    0    0  501  502  0.00000000000E+00  0.00000000000E+00  0.34064660194E+02  0.34064660194E+02  0.00000000000E+00 0. -1.
         21   -1    0    0  502  503 -0.00000000000E+00 -0.00000000000E+00 -0.13513592973E+04  0.13513592973E+04  0.00000000000E+00 0. -1.
         -6    2    1    2    0  503  0.11469716279E+03  0.53936943849E+02 -0.71122155105E+03  0.74244081602E+03  0.17122393976E+03 0.  0.
        -24    2    3    3    0    0  0.13884507216E+03  0.14623068485E+02 -0.47385651114E+03  0.50058764880E+03  0.80970443893E+02 0.  0.
          6    2    1    2  501    0 -0.11469716279E+03 -0.53936943849E+02 -0.60607308606E+03  0.64298314148E+03  0.17331503546E+03 0.  0.
         24    2    5    5    0    0 -0.96159782044E+02 -0.19166666787E+02 -0.58639395153E+03  0.59868906752E+03  0.70403610546E+02 0.  0.
          5    1    5    5  501    0 -0.18537380748E+02 -0.34770277062E+02 -0.19679134527E+02  0.44294073957E+02  0.47000000000E+01 0. -1.
        -13    1    6    6    0    0 -0.44853561199E+02 -0.39437927937E+02 -0.39548483312E+03  0.39996930550E+03  0.00000000000E+00 0.  1.
         14    1    6    6    0    0 -0.51306220845E+02  0.20271261150E+02 -0.19090911841E+03  0.19871976202E+03  0.00000000000E+00 0. -1.
         -5    1    3    3    0  503 -0.24147909370E+02  0.39313875364E+02 -0.23736503991E+03  0.24185316722E+03  0.47000000000E+01 0.  1.
         13    1    4    4    0    0  0.93272408935E+02  0.46604165857E+02 -0.27567768014E+03  0.29473695708E+03  0.00000000000E+00 0. -1.
        -14    1    4    4    0    0  0.45572663227E+02 -0.31981097372E+02 -0.19817883101E+03  0.20585069172E+03  0.00000000000E+00 0.  1.
<mgrwt>
<rscale>  2 0.21429315E+03</rscale>
<asrwt>0</asrwt>
<pdfrwt beam="1">  1       21 0.52407180E-02 0.21471547E+03</pdfrwt>
<pdfrwt beam="2">  1       21 0.20790139E+00 0.21471547E+03</pdfrwt>
<totfact> 0.29242053E+04</totfact>
</mgrwt>
</event>
<event>
12    1  0.1019868E-001  0.1829994E+03  0.7546771E-02  0.1166748E+00
         21   -1    0    0  503  502  0.00000000000E+00  0.00000000000E+00  0.34408861728E+03  0.34408861728E+03  0.00000000000E+00 0.  1.
         21   -1    0    0  501  503 -0.00000000000E+00 -0.00000000000E+00 -0.12165188548E+03  0.12165188548E+03  0.00000000000E+00 0.  1.
          6    2    1    2  501    0 -0.26870662087E+02  0.13931412352E+02  0.22168181024E+03  0.28273954937E+03  0.17286616516E+03 0.  0.
         24    2    3    3    0    0 -0.80813293273E+02  0.16538262032E+02  0.10636263087E+03  0.15531425261E+03  0.77493259948E+02 0.  0.
         -6    2    1    2    0  502  0.26870662087E+02 -0.13931412352E+02  0.75492156734E+00  0.18300095339E+03  0.18047898023E+03 0.  0.
        -24    2    5    5    0    0 -0.38104504819E+01  0.33497208655E+02 -0.49217053783E+02  0.10743579555E+03  0.89350709351E+02 0.  0.
          5    1    3    3  501    0  0.53942631187E+02 -0.26068496805E+01  0.11531917936E+03  0.12742529676E+03  0.47000000000E+01 0. -1.
        -11    1    4    4    0    0 -0.39036746922E+02 -0.17265597609E+02  0.89222457821E+02  0.98907105157E+02  0.00000000000E+00 0.  1.
         12    1    4    4    0    0 -0.41776546351E+02  0.33803859642E+02  0.17140173054E+02  0.56407147455E+02  0.00000000000E+00 0. -1.
         -5    1    5    5    0  502  0.30681112569E+02 -0.47428621006E+02  0.49971975351E+02  0.75565157840E+02  0.47000000000E+01 0.  1.
         13    1    6    6    0    0 -0.40391543679E+02 -0.67016147131E+01 -0.17687844013E+02  0.44600989522E+02  0.00000000000E+00 0. -1.
        -14    1    6    6    0    0  0.36581093197E+02  0.40198823368E+02 -0.31529209771E+02  0.62834806027E+02  0.00000000000E+00 0.  1.
<mgrwt>
<rscale>  2 0.18109398E+03</rscale>
<asrwt>0</asrwt>
<pdfrwt beam="1">  1       21 0.52936710E-01 0.18299940E+03</pdfrwt>
<pdfrwt beam="2">  1       21 0.18715675E-01 0.18299940E+03</pdfrwt>
<totfact> 0.88652172E+04</totfact>
</mgrwt>
</event>
<event>
12    1  0.1019868E-001  0.2456615E+03  0.7546771E-02  0.1116171E+00
         21   -1    0    0  501  502  0.00000000000E+00  0.00000000000E+00  0.61728195051E+03  0.61728195051E+03  0.00000000000E+00 0.  1.
         21   -1    0    0  502  503 -0.00000000000E+00 -0.00000000000E+00 -0.11996159001E+03  0.11996159001E+03  0.00000000000E+00 0. -1.
         -6    2    1    2    0  503  0.16636734360E+03  0.52550701088E+02  0.89521009677E+02  0.26146435271E+03  0.17294486799E+03 0.  0.
        -24    2    3    3    0    0  0.85116063108E+02  0.76104152088E+02  0.10471310997E+03  0.17538633260E+03  0.82212797666E+02 0.  0.
          6    2    1    2  501    0 -0.16636734360E+03 -0.52550701088E+02  0.40779935082E+03  0.47577918781E+03  0.17212163089E+03 0.  0.
         24    2    5    5    0    0 -0.81988788515E+02 -0.72682629163E+02  0.33825239070E+03  0.36449619383E+03  0.80236335161E+02 0.  0.
          5    1    5    5  501    0 -0.84378555085E+02  0.20131928075E+02  0.69546960116E+02  0.11128299397E+03  0.47000000000E+01 0. -1.
        -13    1    6    6    0    0 -0.48305777922E+02 -0.35714570362E+02  0.72860702213E+02  0.94433366158E+02  0.00000000000E+00 0.  1.
         14    1    6    6    0    0 -0.33683010593E+02 -0.36968058801E+02  0.26539168849E+03  0.27006282768E+03  0.00000000000E+00 0. -1.
         -5    1    3    3    0  503  0.81251280491E+02 -0.23553450999E+02 -0.15192100290E+02  0.86078020113E+02  0.47000000000E+01 0.  1.
         13    1    4    4    0    0  0.25754762981E+02 -0.11703585724E+02  0.29340993417E+01  0.28441003392E+02  0.00000000000E+00 0. -1.
        -14    1    4    4    0    0  0.59361300128E+02  0.87807737812E+02  0.10177901063E+03  0.14694532921E+03  0.00000000000E+00 0.  1.
<mgrwt>
<rscale>  2 0.24551671E+03</rscale>
<asrwt>0</asrwt>
<pdfrwt beam="1">  1       21 0.94966452E-01 0.24566155E+03</pdfrwt>
<pdfrwt beam="2">  1       21 0.18455630E-01 0.24566155E+03</pdfrwt>
<totfact> 0.24143826E+04</totfact>
</mgrwt>
</event>
<event>
12    1  0.1019868E-001  0.2568212E+03  0.7546771E-02  0.1109099E+00
         21   -1    0    0  503  502  0.00000000000E+00  0.00000000000E+00  0.20967447367E+03  0.20967447367E+03  0.00000000000E+00 0.  1.
         21   -1    0    0  501  503 -0.00000000000E+00 -0.00000000000E+00 -0.99418969792E+03  0.99418969792E+03  0.00000000000E+00 0.  1.
          6    2    1    2  501    0 -0.12196437282E+03  0.14634823736E+03 -0.88997437479E+03  0.92623352279E+03  0.17193323162E+03 0.  0.
         24    2    3    3    0    0 -0.49713134218E+02  0.13625370648E+03 -0.43866367267E+03  0.46904036789E+03  0.80849123371E+02 0.  0.
         -6    2    1    2    0  502  0.12196437282E+03 -0.14634823736E+03  0.10545915054E+03  0.27763064879E+03  0.17223248793E+03 0.  0.
        -24    2    5    5    0    0  0.69254749511E+02 -0.63093083186E+02  0.12755594273E+03  0.17653622110E+03  0.78214841022E+02 0.  0.
          5    1    3    3  501    0 -0.72251238601E+02  0.10094530884E+02 -0.45131070213E+03  0.45719315490E+03  0.47000000000E+01 0. -1.
        -11    1    4    4    0    0  0.17436875397E+02  0.23310157012E+02 -0.13606984964E+03  0.13914888439E+03  0.00000000000E+00 0.  1.
         12    1    4    4    0    0 -0.67150009614E+02  0.11294354947E+03 -0.30259382302E+03  0.32989148350E+03  0.00000000000E+00 0. -1.
         -5    1    5    5    0  502  0.52709623308E+02 -0.83255154175E+02 -0.22096792193E+02  0.10109442770E+03  0.47000000000E+01 0.  1.
         11    1    6    6    0    0 -0.15533749170E+02 -0.75424357098E+01  0.60433254773E+01  0.18295012505E+02  0.00000000000E+00 0. -1.
        -12    1    6    6    0    0  0.84788498681E+02 -0.55550647477E+02  0.12151261726E+03  0.15824120859E+03  0.00000000000E+00 0.  1.
<mgrwt>
<rscale>  2 0.25677107E+03</rscale>
<asrwt>0</asrwt>
<pdfrwt beam="1">  1       21 0.32257611E-01 0.25682123E+03</pdfrwt>
<pdfrwt beam="2">  1       21 0.15295226E+00 0.25682123E+03</pdfrwt>
<totfact> 0.24899091E+03</totfact>
</mgrwt>
</event>
<event>
12    1  0.1019868E-001  0.2408791E+03  0.7546771E-02  0.1119559E+00
         21   -1    0    0  501  502  0.00000000000E+00  0.00000000000E+00  0.61509645168E+02  0.61509645168E+02  0.00000000000E+00 0. -1.
         21   -1    0    0  502  503 -0.00000000000E+00 -0.00000000000E+00 -0.99061704233E+03  0.99061704233E+03  0.00000000000E+00 0.  1.
         -6    2    1    2    0  503  0.51333530204E+02 -0.15918943490E+03 -0.34192701690E+03  0.41825450783E+03  0.17333880387E+03 0.  0.
        -24    2    3    3    0    0  0.21178723772E+02 -0.39949013884E+02 -0.60197273322E+02  0.11081129556E+03  0.81307868359E+02 0.  0.
          6    2    1    2  501    0 -0.51333530204E+02  0.15918943490E+03 -0.58718038026E+03  0.63387217967E+03  0.17040168333E+03 0.  0.
         24    2    5    5    0    0 -0.89987611035E+02  0.15132020588E+03 -0.43129679488E+03  0.47300625748E+03  0.81990362189E+02 0.  0.
          5    1    5    5  501    0  0.38654080831E+02  0.78692290263E+01 -0.15588358538E+03  0.16086592219E+03  0.47000000000E+01 0. -1.
        -11    1    6    6    0    0 -0.38738993505E+02  0.11664319829E+03 -0.21103083564E+03  0.24421375661E+03  0.00000000000E+00 0.  1.
         12    1    6    6    0    0 -0.51248617531E+02  0.34677007584E+02 -0.22026595924E+03  0.22879250087E+03  0.00000000000E+00 0. -1.
         -5    1    3    3    0  503  0.30154806432E+02 -0.11924042102E+03 -0.28172974358E+03  0.30744321227E+03  0.47000000000E+01 0.  1.
         13    1    4    4    0    0  0.70534155838E+01 -0.44651536947E+02 -0.76422225730E+02  0.88791142625E+02  0.00000000000E+00 0. -1.
        -14    1    4    4    0    0  0.14125308188E+02  0.47025230632E+01  0.16224952408E+02  0.22020152934E+02  0.00000000000E+00 0.  1.
<mgrwt>
<rscale>  2 0.24035117E+03</rscale>
<asrwt>0</asrwt>
<pdfrwt beam="1">  1       21 0.94630231E-02 0.24087912E+03</pdfrwt>
<pdfrwt beam="2">  1       21 0.15240261E+00 0.24087912E+03</pdfrwt>
<totfact> 0.24900062E+04</totfact>
</mgrwt>
</event>
<event>
12    1  0.1019868E-001  0.1982818E+03  0.7546771E-02  0.1151858E+00
         21   -1    0    0  503  502  0.00000000000E+00  0.00000000000E+00  0.13070611561E+04  0.13070611561E+04  0.00000000000E+00 0.  1.
         21   -1    0    0  501  503 -0.00000000000E+00 -0.00000000000E+00 -0.37575849974E+02  0.37575849974E+02  0.00000000000E+00 0.  1.
          6    2    1    2  501    0  0.74764081906E+02  0.51121898027E+02  0.32920273368E+03  0.38430470054E+03  0.17638748990E+03 0.  0.
         24    2    3    3    0    0  0.70812830028E+02  0.34066414796E+01  0.88513464769E+02  0.13885455842E+03  0.80124233820E+02 0.  0.
         -6    2    1    2    0  502 -0.74764081906E+02 -0.51121898027E+02  0.94028257247E+03  0.96033230556E+03  0.17292687648E+03 0.  0.
        -24    2    5    5    0    0 -0.10309023807E+03 -0.60220243700E+02  0.88082432671E+03  0.89368004374E+03  0.92511897151E+02 0.  0.
          5    1    3    3  501    0  0.39512518783E+01  0.47715256548E+02  0.24068926891E+03  0.24545014212E+03  0.47000000000E+01 0. -1.
        -13    1    4    4    0    0  0.75203290069E+01  0.20013851758E+02 -0.75053708806E+01  0.22659218932E+02  0.00000000000E+00 0.  1.
         14    1    4    4    0    0  0.63292501021E+02 -0.16607210278E+02  0.96018835649E+02  0.11619533949E+03  0.00000000000E+00 0. -1.
         -5    1    5    5    0  502  0.28326156165E+02  0.90983456724E+01  0.59458245765E+02  0.66652261826E+02  0.47000000000E+01 0.  1.
         11    1    6    6    0    0 -0.99359937196E+01  0.59918036297E+00  0.40115194926E+03  0.40127542833E+03  0.00000000000E+00 0. -1.
        -12    1    6    6    0    0 -0.93154244351E+02 -0.60819424063E+02  0.47967237745E+03  0.49240461540E+03  0.00000000000E+00 0.  1.
<mgrwt>
<rscale>  2 0.19750925E+03</rscale>
<asrwt>0</asrwt>
<pdfrwt beam="1">  1       21 0.20108630E+00 0.19828178E+03</pdfrwt>
<pdfrwt beam="2">  1       21 0.57809010E-02 0.19828178E+03</pdfrwt>
<totfact> 0.27651688E+04</totfact>
</mgrwt>
</event>
<event>
12    1  0.1019868E-001  0.1912706E+03  0.7546771E-02  0.1158170E+00
         21   -1    0    0  501  502  0.00000000000E+00  0.00000000000E+00  0.23244416865E+03  0.23244416865E+03  0.00000000000E+00 0.  1.
         21   -1    0    0  502  503 -0.00000000000E+00 -0.00000000000E+00 -0.15498990702E+03  0.15498990702E+03  0.00000000000E+00 0.  1.
         -6    2    1    2    0  503 -0.71893135694E+02  0.13568018711E+02  0.26275676013E+02  0.19306699281E+03  0.17672503634E+03 0.  0.
        -24    2    3    3    0    0 -0.46673624182E+02  0.74527237221E+02 -0.48760564012E+01  0.11996042324E+03  0.81449315127E+02 0.  0.
          6    2    1    2  501    0  0.71893135694E+02 -0.13568018711E+02  0.51178585620E+02  0.19436708286E+03  0.17264588377E+03 0.  0.
         24    2    5    5    0    0  0.10344323051E+03 -0.41354621455E+02  0.61259294239E+02  0.15087898723E+03  0.81246913813E+02 0.  0.
          5    1    5    5  501    0 -0.31550094815E+02  0.27786602744E+02 -0.10080708619E+02  0.43488095626E+02  0.47000000000E+01 0. -1.
        -11    1    6    6    0    0  0.56583049951E+02 -0.17696185415E+01  0.68775977216E+02  0.89078101314E+02  0.00000000000E+00 0.  1.
         12    1    6    6    0    0  0.46860180558E+02 -0.39585002913E+02 -0.75166829770E+01  0.61800885920E+02  0.00000000000E+00 0. -1.
         -5    1    3    3    0  503 -0.25219511512E+02 -0.60959218510E+02  0.31151732414E+02  0.73106569573E+02  0.47000000000E+01 0.  1.
         13    1    4    4    0    0 -0.79715862546E+01  0.72872060194E+02 -0.23496207871E+02  0.76980225569E+02  0.00000000000E+00 0. -1.
        -14    1    4    4    0    0 -0.38702037927E+02  0.16551770276E+01  0.18620151470E+02  0.42980197667E+02  0.00000000000E+00 0.  1.
<mgrwt>
<rscale>  2 0.19032299E+03</rscale>
<asrwt>0</asrwt>
<pdfrwt beam="1">  1       21 0.35760641E-01 0.19127063E+03</pdfrwt>
<pdfrwt beam="2">  1       21 0.23844601E-01 0.19127063E+03</pdfrwt>
<totfact> 0.12504505E+05</totfact>
</mgrwt>
</event>
<event>
12    1  0.1019868E-001  0.2810182E+03  0.7546771E-02  0.1095246E+00
         21   -1    0    0  503  502  0.00000000000E+00  0.00000000000E+00  0.43713937267E+03  0.43713937267E+03  0.00000000000E+00 0. -1.
         21   -1    0    0  501  503 -0.00000000000E+00 -0.00000000000E+00 -0.20995988201E+03  0.20995988201E+03  0.00000000000E+00 0.  1.
          6    2    1    2  501    0  0.33439413556E+02 -0.21848338277E+03  0.23569868636E+03  0.36677661106E+03  0.17354546593E+03 0.  0.
         24    2    3    3    0    0  0.41376745573E+01 -0.10035627868E+03  0.35068349067E+02  0.13206992843E+03  0.78257101071E+02 0.  0.
         -6    2    1    2    0  502 -0.33439413556E+02  0.21848338277E+03 -0.85191957024E+01  0.28032264362E+03  0.17220634397E+03 0.  0.
        -24    2    5    5    0    0 -0.33080989032E+02  0.10303174750E+03  0.57801973766E+02  0.14709428300E+03  0.81152739266E+02 0.  0.
          5    1    3    3  501    0  0.29301738999E+02 -0.11812710409E+03  0.20063033729E+03  0.23470668263E+03  0.47000000000E+01 0. -1.
        -13    1    4    4    0    0  0.12379174529E+02 -0.10671310865E+03  0.46100847240E+02  0.11690260748E+03  0.00000000000E+00 0.  1.
         14    1    4    4    0    0 -0.82414999713E+01  0.63568299643E+01 -0.11032498173E+02  0.15167320954E+02  0.00000000000E+00 0. -1.
         -5    1    5    5    0  502 -0.35842452414E+00  0.11545163527E+03 -0.66321169469E+02  0.13322836062E+03  0.47000000000E+01 0.  1.
         11    1    6    6    0    0  0.11663373788E+02  0.83551322963E+02  0.48833391682E+02  0.97475935492E+02  0.00000000000E+00 0. -1.
        -12    1    6    6    0    0 -0.44744362820E+02  0.19480424539E+02  0.89685820842E+01  0.49618347504E+02  0.00000000000E+00 0.  1.
<mgrwt>
<rscale>  2 0.28081169E+03</rscale>
<asrwt>0</asrwt>
<pdfrwt beam="1">  1       21 0.67252211E-01 0.28101817E+03</pdfrwt>
<pdfrwt beam="2">  1       21 0.32301520E-01 0.28101817E+03</pdfrwt>
<totfact> 0.17808876E+04</totfact>
</mgrwt>
</event>
<event>
12    1  0.1019868E-001  0.1771364E+03  0.7546771E-02  0.1171938E+00
         21   -1    0    0  501  502  0.00000000000E+00  0.00000000000E+00  0.51502722902E+03  0.51502722902E+03  0.00000000000E+00 0. -1.
         21   -1    0    0  502  503 -0.00000000000E+00 -0.00000000000E+00 -0.60409432238E+02  0.60409432238E+02  0.00000000000E+00 0. -1.
         -6    2    1    2    0  503  0.36478161955E+00 -0.95845004565E+01  0.18172961990E+03  0.25009797419E+03  0.17155566511E+03 0.  0.
        -24    2    3    3    0    0  0.26757211409E+02  0.34474682004E+02  0.17660301507E+03  0.19826995101E+03  0.78853639610E+02 0.  0.
          6    2    1    2  501    0 -0.36478161955E+00  0.95845004565E+01  0.27288817689E+03  0.32533868707E+03  0.17687653464E+03 0.  0.
         24    2    5    5    0    0 -0.62483184314E+01 -0.60208016896E+02  0.11364040710E+03  0.15130549005E+03  0.79467996148E+02 0.  0.
          5    1    5    5  501    0  0.58835368119E+01  0.69792517352E+02  0.15924776979E+03  0.17403319702E+03  0.47000000000E+01 0. -1.
        -11    1    6    6    0    0 -0.35695516034E+02 -0.34896802109E+01  0.44496438424E+02  0.57151384632E+02  0.00000000000E+00 0.  1.
         12    1    6    6    0    0  0.29447197603E+02 -0.56718336685E+02  0.69143968675E+02  0.94154105418E+02  0.00000000000E+00 0. -1.
         -5    1    3    3    0  503 -0.26392429790E+02 -0.44059182460E+02  0.51266048245E+01  0.51828023176E+02  0.47000000000E+01 0.  1.
         13    1    4    4    0    0 -0.65906773248E+01  0.11442359424E+02 -0.35020038452E+01  0.13661209599E+02  0.00000000000E+00 0. -1.
        -14    1    4    4    0    0  0.33347888734E+02  0.23032322580E+02  0.18010501892E+03  0.18460874141E+03  0.00000000000E+00 0.  1.
<mgrwt>
<rscale>  2 0.17579299E+03</rscale>
<asrwt>0</asrwt>
<pdfrwt beam="1">  1       21 0.79234955E-01 0.17713640E+03</pdfrwt>
<pdfrwt beam="2">  1       21 0.92937591E-02 0.17713640E+03</pdfrwt>
<totfact> 0.13049476E+05</totfact>
</mgrwt>
</event>
<event>
12    1  0.1019868E-001  0.1997245E+03  0.7546771E-02  0.1150118E+00
         21   -1    0    0  501  502  0.00000000000E+00  0.00000000000E+00  0.28610296046E+03  0.28610296046E+03  0.00000000000E+00 0. -1.
         21   -1    0    0  502  503 -0.00000000000E+00 -0.00000000000E+00 -0.16015557385E+03  0.16015557385E+03  0.00000000000E+00 0. -1.
         -6    2    1    2    0  503 -0.89212554028E+02  0.45279094518E+02 -0.18135967464E+02  0.20054618980E+03  0.17286059335E+03 0.  0.
        -24    2    3    3    0    0 -0.11158878236E+03  0.95704988241E+01  0.24337555912E+02  0.14053044530E+03  0.81319361969E+02 0.  0.
          6    2    1    2  501    0  0.89212554028E+02 -0.45279094518E+02  0.14408335407E+03  0.24571234450E+03  0.17206239310E+03 0.  0.
         24    2    5    5    0    0  0.11120608860E+03 -0.68692418908E+02  0.14642211611E+03  0.21316301071E+03  0.83148003559E+02 0.  0.
          5    1    5    5  501    0 -0.21993534569E+02  0.23413324390E+02 -0.23387620320E+01  0.32549333782E+02  0.47000000000E+01 0. -1.
        -13    1    6    6    0    0  0.21777151216E+02 -0.17758513232E+02  0.93110318437E+02  0.97258112807E+02  0.00000000000E+00 0.  1.
         14    1    6    6    0    0  0.89428937381E+02 -0.50933905675E+02  0.53311797669E+02  0.11590489791E+03  0.00000000000E+00 0. -1.
         -5    1    3    3    0  503  0.22376228332E+02  0.35708595694E+02 -0.42473523376E+02  0.60015744507E+02  0.47000000000E+01 0.  1.
         11    1    4    4    0    0 -0.76592546382E+02  0.39467470051E+02 -0.43871110552E+01  0.86274828872E+02  0.00000000000E+00 0. -1.
        -12    1    4    4    0    0 -0.34996235978E+02 -0.29896971227E+02  0.28724666967E+02  0.54255616424E+02  0.00000000000E+00 0.  1.
<mgrwt>
<rscale>  2 0.19955163E+03</rscale>
<asrwt>0</asrwt>
<pdfrwt beam="1">  1       21 0.44015840E-01 0.19972446E+03</pdfrwt>
<pdfrwt beam="2">  1       21 0.24639319E-01 0.19972446E+03</pdfrwt>
<totfact> 0.76978516E+04</totfact>
</mgrwt>
</event>
<event>
12    1  0.1019868E-001  0.1922428E+03  0.7546771E-02  0.1156772E+00
         21   -1    0    0  501  502  0.00000000000E+00  0.00000000000E+00  0.16574094827E+03  0.16574094827E+03  0.00000000000E+00 0.  1.
         21   -1    0    0  502  503 -0.00000000000E+00 -0.00000000000E+00 -0.23038361918E+03  0.23038361918E+03  0.00000000000E+00 0.  1.
         -6    2    1    2    0  503 -0.44762606502E+02  0.70342314201E+02 -0.71703123707E+02  0.20517951579E+03  0.17322114087E+03 0.  0.
        -24    2    3    3    0    0 -0.82056234563E+01  0.37737628278E+02  0.28009612906E+02  0.93985098683E+02  0.80976536817E+02 0.  0.
          6    2    1    2  501    0  0.44762606502E+02 -0.70342314201E+02  0.70604527982E+01  0.19094505165E+03  0.17163458465E+03 0.  0.
         24    2    5    5    0    0  0.46360030003E+02 -0.11624645078E+03  0.14783321409E+02  0.14413186744E+03  0.69949688482E+02 0.  0.
          5    1    5    5  501    0 -0.15974235010E+01  0.45904136575E+02 -0.77228686112E+01  0.46813184213E+02  0.47000000000E+01 0. -1.
        -13    1    6    6    0    0  0.47457651478E+02 -0.28096617287E+02  0.35971221065E+01  0.55268326139E+02  0.00000000000E+00 0.  1.
         14    1    6    6    0    0 -0.10976214743E+01 -0.88149833489E+02  0.11186199303E+02  0.88863541297E+02  0.00000000000E+00 0. -1.
         -5    1    3    3    0  503 -0.36556983046E+02  0.32604685924E+02 -0.99712736613E+02  0.11119441711E+03  0.47000000000E+01 0.  1.
         11    1    4    4    0    0  0.15016712771E+02 -0.19149420953E+02 -0.40656811938E+01  0.24672489717E+02  0.00000000000E+00 0. -1.
        -12    1    4    4    0    0 -0.23222336227E+02  0.56887049231E+02  0.32075294100E+02  0.69312608966E+02  0.00000000000E+00 0.  1.
<mgrwt>
<rscale>  2 0.19188472E+03</rscale>
<asrwt>0</asrwt>
<pdfrwt beam="1">  1       21 0.25498608E-01 0.19224280E+03</pdfrwt>
<pdfrwt beam="2">  1       21 0.35443633E-01 0.19224280E+03</pdfrwt>
<totfact> 0.11196792E+05</totfact>
</mgrwt>
</event>
<event>
12    1  0.1019868E-001  0.2215563E+03  0.7546771E-02  0.1132856E+00
         21   -1    0    0  503  502  0.00000000000E+00  0.00000000000E+00  0.17737942933E+04  0.17737942933E+04  0.00000000000E+00 0. -1.
         21   -1    0    0  501  503 -0.00000000000E+00 -0.00000000000E+00 -0.61087150958E+02  0.61087150958E+02  0.00000000000E+00 0. -1.
          6    2    1    2  501    0  0.71871033102E+02 -0.12042940909E+03  0.17755871120E+03  0.28392659243E+03  0.17151829639E+03 0.  0.
         24    2    3    3    0    0  0.26244982770E+02 -0.70450545413E+02  0.19401522811E+02  0.11183530991E+03  0.80489993074E+02 0.  0.
         -6    2    1    2    0  502 -0.71871033102E+02  0.12042940909E+03  0.15351484312E+04  0.15509548518E+04  0.17062109711E+03 0.  0.
        -24    2    5    5    0    0 -0.95790952549E+02  0.14085281492E+03  0.13139746846E+04  0.13275064367E+04  0.82027103449E+02 0.  0.
          5    1    3    3  501    0  0.45626050332E+02 -0.49978863674E+02  0.15815718839E+03  0.17209128253E+03  0.47000000000E+01 0. -1.
        -13    1    4    4    0    0 -0.22260435545E+02  0.78033959037E+00  0.12100636813E+02  0.25348793498E+02  0.00000000000E+00 0.  1.
         14    1    4    4    0    0  0.48505418315E+02 -0.71230885003E+02  0.73008859971E+01  0.86486516409E+02  0.00000000000E+00 0. -1.
         -5    1    5    5    0  502  0.23919919447E+02 -0.20423405833E+02  0.22117374661E+03  0.22344841517E+03  0.47000000000E+01 0.  1.
         11    1    6    6    0    0 -0.61744387659E+02  0.76537244280E+02  0.10171008744E+04  0.10218436807E+04  0.00000000000E+00 0. -1.
        -12    1    6    6    0    0 -0.34046564890E+02  0.64315570641E+02  0.29687381014E+03  0.30566275592E+03  0.00000000000E+00 0.  1.
<mgrwt>
<rscale>  2 0.22138268E+03</rscale>
<asrwt>0</asrwt>
<pdfrwt beam="1">  1       21 0.27289139E+00 0.22155634E+03</pdfrwt>
<pdfrwt beam="2">  1       21 0.93980246E-02 0.22155634E+03</pdfrwt>
<totfact> 0.42956597E+03</totfact>
</mgrwt>
</event>
<event>
12    1  0.1019868E-001  0.1756263E+03  0.7546771E-02  0.1172400E+00
         21   -1    0    0  503  502  0.00000000000E+00  0.00000000000E+00  0.20667972640E+03  0.20667972640E+03  0.00000000000E+00 0. -1.
         21   -1    0    0  501  503 -0.00000000000E+00 -0.00000000000E+00 -0.26089688133E+03  0.26089688133E+03  0.00000000000E+00 0. -1.
          6    2    1    2  501    0  0.46288275167E+01 -0.23349255192E+02  0.12657090174E+03  0.21552716912E+03  0.17281537461E+03 0.  0.
         24    2    3    3    0    0  0.94424016886E+01 -0.73422284856E+02  0.42610516154E+02  0.11753780672E+03  0.80743353034E+02 0.  0.
         -6    2    1    2    0  502 -0.46288275167E+01  0.23349255192E+02 -0.18078805666E+03  0.25204943861E+03  0.17400570195E+03 0.  0.
        -24    2    5    5    0    0  0.59715194222E+02 -0.13062061881E+02 -0.90561483822E+02  0.13530672324E+03  0.79812311842E+02 0.  0.
          5    1    3    3  501    0 -0.48135741719E+01  0.50073029665E+02  0.83960385583E+02  0.97989362399E+02  0.47000000000E+01 0. -1.
        -13    1    4    4    0    0 -0.75440310473E+01 -0.50402567887E+02 -0.15075863846E+02  0.53147087641E+02  0.00000000000E+00 0.  1.
         14    1    4    4    0    0  0.16986432736E+02 -0.23019716970E+02  0.57686380000E+02  0.64390719082E+02  0.00000000000E+00 0. -1.
         -5    1    5    5    0  502 -0.64344021739E+02  0.36411317073E+02 -0.90226572843E+02  0.11674271537E+03  0.47000000000E+01 0.  1.
         11    1    6    6    0    0  0.52181684547E+02  0.60025536463E+01 -0.11684753496E+02  0.53809779007E+02  0.00000000000E+00 0. -1.
        -12    1    6    6    0    0  0.75335096750E+01 -0.19064615527E+02 -0.78876730326E+02  0.81496944238E+02  0.00000000000E+00 0.  1.
<mgrwt>
<rscale>  2 0.17533074E+03</rscale>
<asrwt>0</asrwt>
<pdfrwt beam="1">  1       21 0.31796881E-01 0.17562630E+03</pdfrwt>
<pdfrwt beam="2">  1       21 0.40137982E-01 0.17562630E+03</pdfrwt>
<totfact> 0.57331525E+04</totfact>
</mgrwt>
</event>
<event>
12    1  0.1019868E-001  0.1766750E+03  0.7546771E-02  0.1171124E+00
         21   -1    0    0  501  502  0.00000000000E+00  0.00000000000E+00  0.13189023755E+03  0.13189023755E+03  0.00000000000E+00 0.  1.
         21   -1    0    0  502  503 -0.00000000000E+00 -0.00000000000E+00 -0.51395322539E+03  0.51395322539E+03  0.00000000000E+00 0.  1.
         -6    2    1    2    0  503 -0.32700140847E+02  0.54520237657E+01 -0.42830603574E+03  0.46321685880E+03  0.17327658309E+03 0.  0.
        -24    2    3    3    0    0  0.17420816939E+02 -0.16276708126E+02 -0.11261352879E+03  0.14279823083E+03  0.84505099095E+02 0.  0.
          6    2    1    2  501    0  0.32700140847E+02 -0.54520237657E+01  0.46243047903E+02  0.18262660414E+03  0.17353683553E+03 0.  0.
         24    2    5    5    0    0 -0.89582995279E+00 -0.37585809084E+02  0.84071187943E+02  0.12250732610E+03  0.80787280874E+02 0.  0.
          5    1    5    5  501    0  0.33595970800E+02  0.32133785318E+02 -0.37828140040E+02  0.60119278038E+02  0.47000000000E+01 0. -1.
        -13    1    6    6    0    0  0.54871272013E+01 -0.20146236330E+02 -0.12386844047E+02  0.24277835749E+02  0.00000000000E+00 0.  1.
         14    1    6    6    0    0 -0.63829571541E+01 -0.17439572754E+02  0.96458031990E+02  0.98229490354E+02  0.00000000000E+00 0. -1.
         -5    1    3    3    0  503 -0.50120957786E+02  0.21728731892E+02 -0.31569250695E+03  0.32041862796E+03  0.47000000000E+01 0.  1.
         11    1    4    4    0    0  0.43418805386E+02 -0.26830497258E+02 -0.99498735337E+02  0.11182605500E+03  0.00000000000E+00 0. -1.
        -12    1    4    4    0    0 -0.25997988447E+02  0.10553789132E+02 -0.13114793449E+02  0.30972175829E+02  0.00000000000E+00 0.  1.
<mgrwt>
<rscale>  2 0.17661106E+03</rscale>
<asrwt>0</asrwt>
<pdfrwt beam="1">  1       21 0.20290806E-01 0.17667500E+03</pdfrwt>
<pdfrwt beam="2">  1       21 0.79069726E-01 0.17667500E+03</pdfrwt>
<totfact> 0.32007197E+04</totfact>
</mgrwt>
</event>
<event>
12    1  0.1019868E-001  0.1769214E+03  0.7546771E-02  0.1171678E+00
         21   -1    0    0  501  502  0.00000000000E+00  0.00000000000E+00  0.17686034563E+03  0.17686034563E+03  0.00000000000E+00 0. -1.
         21   -1    0    0  502  503 -0.00000000000E+00 -0.00000000000E+00 -0.17377028960E+03  0.17377028960E+03  0.00000000000E+00 0. -1.
         -6    2    1    2    0  503  0.65597396135E+01  0.35312727855E+02 -0.46965424804E+01  0.17353800611E+03  0.16971553588E+03 0.  0.
        -24    2    3    3    0    0 -0.30544079555E+02 -0.37435421088E+01  0.46653955856E+02  0.98965562809E+02  0.81673962324E+02 0.  0.
          6    2    1    2  501    0 -0.65597396135E+01 -0.35312727855E+02  0.77865985198E+01  0.17709262912E+03  0.17323726285E+03 0.  0.
         24    2    5    5    0    0 -0.33389527306E+02 -0.15863809353E+02  0.66378972903E+02  0.10961482333E+03  0.79010888295E+02 0.  0.
          5    1    5    5  501    0  0.26829787693E+02 -0.19448918502E+02 -0.58592374383E+02  0.67477805791E+02  0.47000000000E+01 0. -1.
        -13    1    6    6    0    0 -0.37847094451E+02 -0.22078613221E+02  0.10388445200E+01  0.43828608444E+02  0.00000000000E+00 0.  1.
         14    1    6    6    0    0  0.44575671446E+01  0.62148038688E+01  0.65340128383E+02  0.65786214887E+02  0.00000000000E+00 0. -1.
         -5    1    3    3    0  503  0.37103819168E+02  0.39056269963E+02 -0.51350498336E+02  0.74572443300E+02  0.47000000000E+01 0.  1.
         13    1    4    4    0    0 -0.44255807590E+02  0.19353967755E+02  0.52642752941E+02  0.71445167860E+02  0.00000000000E+00 0. -1.
        -14    1    4    4    0    0  0.13711728035E+02 -0.23097509864E+02 -0.59887970857E+01  0.27520394949E+02  0.00000000000E+00 0.  1.
<mgrwt>
<rscale>  2 0.17605326E+03</rscale>
<asrwt>0</asrwt>
<pdfrwt beam="1">  1       21 0.27209284E-01 0.17692136E+03</pdfrwt>
<pdfrwt beam="2">  1       21 0.26733891E-01 0.17692136E+03</pdfrwt>
<totfact> 0.17234234E+05</totfact>
</mgrwt>
</event>
<event>
12    1  0.1019868E-001  0.2307716E+03  0.7546771E-02  0.1126248E+00
         21   -1    0    0  503  502  0.00000000000E+00  0.00000000000E+00  0.25289849971E+03  0.25289849971E+03  0.00000000000E+00 0.  1.
         21   -1    0    0  501  503 -0.00000000000E+00 -0.00000000000E+00 -0.40172240145E+03  0.40172240145E+03  0.00000000000E+00 0.  1.
          6    2    1    2  501    0  0.14056146803E+03 -0.55747641138E+02 -0.30071664448E+03  0.37905941900E+03  0.17432790103E+03 0.  0.
         24    2    3    3    0    0  0.44758763701E+02 -0.54069997195E+02 -0.24146414940E+03  0.26630339557E+03  0.87667847713E+02 0.  0.
         -6    2    1    2    0  502 -0.14056146803E+03  0.55747641138E+02  0.15189274274E+03  0.27556148217E+03  0.17319757322E+03 0.  0.
        -24    2    5    5    0    0  0.85989367688E+01  0.30279398380E+02  0.36994204758E+02  0.85505643585E+02  0.70369455160E+02 0.  0.
          5    1    3    3  501    0  0.95802704328E+02 -0.16776439433E+01 -0.59252495081E+02  0.11275602343E+03  0.47000000000E+01 0. -1.
        -11    1    4    4    0    0  0.56629597051E+02 -0.75932808541E+00 -0.10467937710E+03  0.11901789711E+03  0.00000000000E+00 0.  1.
         12    1    4    4    0    0 -0.11870833350E+02 -0.53310669110E+02 -0.13678477230E+03  0.14728549847E+03  0.00000000000E+00 0. -1.
         -5    1    5    5    0  502 -0.14916040480E+03  0.25468242759E+02  0.11489853799E+03  0.19005583858E+03  0.47000000000E+01 0.  1.
         13    1    6    6    0    0  0.20867938342E+02 -0.17667428593E+02  0.98757382549E+01  0.29071276026E+02  0.00000000000E+00 0. -1.
        -14    1    6    6    0    0 -0.12269001573E+02  0.47946826973E+02  0.27118466503E+02  0.56434367559E+02  0.00000000000E+00 0.  1.
<mgrwt>
<rscale>  2 0.23055816E+03</rscale>
<asrwt>0</asrwt>
<pdfrwt beam="1">  1       21 0.38907461E-01 0.23077162E+03</pdfrwt>
<pdfrwt beam="2">  1       21 0.61803446E-01 0.23077162E+03</pdfrwt>
<totfact> 0.15133172E+04</totfact>
</mgrwt>
</event>
<event>
12    1  0.1019868E-001  0.1972370E+03  0.7546771E-02  0.1152166E+00
         21   -1    0    0  501  502  0.00000000000E+00  0.00000000000E+00  0.73281606193E+03  0.73281606193E+03  0.00000000000E+00 0. -1.
         21   -1    0    0  502  503 -0.00000000000E+00 -0.00000000000E+00 -0.59762348234E+02  0.59762348234E+02  0.00000000000E+00 0. -1.
         -6    2    1    2    0  503 -0.72092455525E+01 -0.87824890357E+02  0.20341001614E+03  0.28333384898E+03  0.17645750402E+03 0.  0.
        -24    2    3    3    0    0 -0.41795330000E+02  0.96017628286E+01  0.73652828831E+02  0.11736045459E+03  0.80682672536E+02 0.  0.
          6    2    1    2  501    0  0.72092455525E+01  0.87824890357E+02  0.46964369756E+03  0.50924456119E+03  0.17606713449E+03 0.  0.
         24    2    5    5    0    0  0.10067801079E+02 -0.18903074399E+02  0.26227291567E+03  0.27595555376E+03  0.83100532605E+02 0.  0.
          5    1    5    5  501    0 -0.28585555263E+01  0.10672796476E+03  0.20737078190E+03  0.23328900743E+03  0.47000000000E+01 0. -1.
        -13    1    6    6    0    0 -0.29185177377E+02 -0.10615674537E+02  0.42996014044E+02  0.53038894672E+02  0.00000000000E+00 0.  1.
         14    1    6    6    0    0  0.39252978456E+02 -0.82873998620E+01  0.21927690162E+03  0.22291665909E+03  0.00000000000E+00 0. -1.
         -5    1    3    3    0  503  0.34586084447E+02 -0.97426653185E+02  0.12975718731E+03  0.16597339439E+03  0.47000000000E+01 0.  1.
         11    1    4    4    0    0 -0.55089668178E+02  0.47066081238E+01  0.15379089435E+02  0.57389372638E+02  0.00000000000E+00 0. -1.
        -12    1    4    4    0    0  0.13294338178E+02  0.48951547048E+01  0.58273739397E+02  0.59971081952E+02  0.00000000000E+00 0.  1.
<mgrwt>
<rscale>  2 0.19714965E+03</rscale>
<asrwt>0</asrwt>
<pdfrwt beam="1">  1       21 0.11274093E+00 0.19723700E+03</pdfrwt>
<pdfrwt beam="2">  1       21 0.91942079E-02 0.19723700E+03</pdfrwt>
<totfact> 0.57755647E+04</totfact>
</mgrwt>
</event>
<event>
12    1  0.1019868E-001  0.1858036E+03  0.7546771E-02  0.1163790E+00
         21   -1    0    0  503  502  0.00000000000E+00  0.00000000000E+00  0.15177969557E+03  0.15177969557E+03  0.00000000000E+00 0. -1.
         21   -1    0    0  501  503 -0.00000000000E+00 -0.00000000000E+00 -0.24541129794E+03  0.24541129794E+03  0.00000000000E+00 0.  1.
          6    2    1    2  501    0 -0.64496952796E+02  0.26030300132E+02 -0.11021985352E+03  0.21064841807E+03  0.16548989842E+03 0.  0.
         24    2    3    3    0    0 -0.58729261978E+02  0.34960918534E+02 -0.60531553257E+01  0.10583518792E+03  0.80579490410E+02 0.  0.
         -6    2    1    2    0  502  0.64496952796E+02 -0.26030300132E+02  0.16588251148E+02  0.18654257544E+03  0.17229488945E+03 0.  0.
        -24    2    5    5    0    0 -0.15676373322E+02 -0.49588268011E+02  0.35294937283E+02  0.10078261871E+03  0.78782349747E+02 0.  0.
          5    1    3    3  501    0 -0.57676908187E+01 -0.89306184018E+01 -0.10416669819E+03  0.10481323015E+03  0.47000000000E+01 0. -1.
        -13    1    4    4    0    0 -0.38539171304E+02  0.21060594216E+02 -0.43021171313E+02  0.61478756775E+02  0.00000000000E+00 0.  1.
         14    1    4    4    0    0 -0.20190090674E+02  0.13900324318E+02  0.36968015987E+02  0.44356431141E+02  0.00000000000E+00 0. -1.
         -5    1    5    5    0  502  0.80173326118E+02  0.23557967879E+02 -0.18706686135E+02  0.85759956725E+02  0.47000000000E+01 0.  1.
         13    1    6    6    0    0  0.59087913862E+01 -0.48396575077E+02  0.53598630643E+02  0.72456576662E+02  0.00000000000E+00 0. -1.
        -14    1    6    6    0    0 -0.21585164708E+02 -0.11916929341E+01 -0.18303693360E+02  0.28326042049E+02  0.00000000000E+00 0.  1.
<mgrwt>
<rscale>  2 0.18421014E+03</rscale>
<asrwt>0</asrwt>
<pdfrwt beam="1">  1       21 0.23350722E-01 0.18580356E+03</pdfrwt>
<pdfrwt beam="2">  1       21 0.37755584E-01 0.18580356E+03</pdfrwt>
<totfact> 0.11696715E+05</totfact>
</mgrwt>
</event>
<event>
12    1  0.1019868E-001  0.2039245E+03  0.7546771E-02  0.1146799E+00
         21   -1    0    0  503  502  0.00000000000E+00  0.00000000000E+00  0.25396913419E+02  0.25396913419E+02  0.00000000000E+00 0.  1.
         21   -1    0    0  501  503 -0.00000000000E+00 -0.00000000000E+00 -0.18415690101E+04  0.18415690101E+04  0.00000000000E+00 0. -1.
          6    2    1    2  501    0 -0.72414578305E+02 -0.79133541494E+02 -0.12253274627E+04  0.12419198433E+04  0.17155616462E+03 0.  0.
         24    2    3    3    0    0 -0.78586427716E+02 -0.74275743478E+02 -0.12253938344E+04  0.12327664651E+04  0.80189746935E+02 0.  0.
         -6    2    1    2    0  502  0.72414578305E+02  0.79133541494E+02 -0.59084463396E+03  0.62504608027E+03  0.17343365429E+03 0.  0.
        -24    2    5    5    0    0  0.29264197705E+02 -0.26680987635E+02 -0.28631148040E+03  0.29974437180E+03  0.79398716895E+02 0.  0.
          5    1    3    3  501    0  0.61718494115E+01 -0.48577980164E+01  0.66371612236E-01  0.91533781697E+01  0.47000000000E+01 0. -1.
        -13    1    4    4    0    0 -0.82288209521E+02 -0.70784588498E+02 -0.79865335423E+03  0.80599564988E+03  0.00000000000E+00 0.  1.
         14    1    4    4    0    0  0.37017818049E+01 -0.34911549798E+01 -0.42674048013E+03  0.42677081523E+03  0.00000000000E+00 0. -1.
         -5    1    5    5    0  502  0.43150380600E+02  0.10581452913E+03 -0.30453315356E+03  0.32530170847E+03  0.47000000000E+01 0.  1.
         11    1    6    6    0    0  0.28636687771E+02  0.22132315966E+02 -0.16612662413E+03  0.17002339410E+03  0.00000000000E+00 0. -1.
        -12    1    6    6    0    0  0.62750993399E+00 -0.48813303600E+02 -0.12018485627E+03  0.12972097770E+03  0.00000000000E+00 0.  1.
<mgrwt>
<rscale>  2 0.20352478E+03</rscale>
<asrwt>0</asrwt>
<pdfrwt beam="1">  1       21 0.39072170E-02 0.20392455E+03</pdfrwt>
<pdfrwt beam="2">  1       21 0.28331834E+00 0.20392455E+03</pdfrwt>
<totfact> 0.17170237E+04</totfact>
</mgrwt>
</event>
<event>
12    1  0.1019868E-001  0.2119227E+03  0.7546771E-02  0.1140397E+00
         21   -1    0    0  501  502  0.00000000000E+00  0.00000000000E+00  0.15173259162E+03  0.15173259162E+03  0.00000000000E+00 0. -1.
         21   -1    0    0  502  503 -0.00000000000E+00 -0.00000000000E+00 -0.29543818419E+03  0.29543818419E+03  0.00000000000E+00 0. -1.
         -6    2    1    2    0  503 -0.24171152999E+01  0.12269193488E+03 -0.89464191854E+02  0.22841666378E+03  0.17061997930E+03 0.  0.
        -24    2    3    3    0    0  0.17394036954E+02  0.15112889484E+03 -0.59063852662E+02  0.18207647530E+03  0.80751524984E+02 0.  0.
          6    2    1    2  501    0  0.24171152999E+01 -0.12269193488E+03 -0.54241400715E+02  0.21875411204E+03  0.17277754093E+03 0.  0.
         24    2    5    5    0    0  0.32344796200E+02 -0.66390708614E+02  0.29276283047E+02  0.11357432470E+03  0.81167200583E+02 0.  0.
          5    1    5    5  501    0 -0.29927680900E+02 -0.56301226271E+02 -0.83517683762E+02  0.10517978734E+03  0.47000000000E+01 0. -1.
        -13    1    6    6    0    0  0.87692565012E+01 -0.21245873221E+02  0.52716393989E+02  0.57509174778E+02  0.00000000000E+00 0.  1.
         14    1    6    6    0    0  0.23575539699E+02 -0.45144835393E+02 -0.23440110941E+02  0.56065149921E+02  0.00000000000E+00 0. -1.
         -5    1    3    3    0  503 -0.19811152254E+02 -0.28436959960E+02 -0.30400339192E+02  0.46340188480E+02  0.47000000000E+01 0.  1.
         13    1    4    4    0    0 -0.25919412646E+00  0.28851204826E+02  0.20262299677E+02  0.35256488618E+02  0.00000000000E+00 0. -1.
        -14    1    4    4    0    0  0.17653231080E+02  0.12227769002E+03 -0.79326152339E+02  0.14681998668E+03  0.00000000000E+00 0.  1.
<mgrwt>
<rscale>  2 0.21148250E+03</rscale>
<asrwt>0</asrwt>
<pdfrwt beam="1">  1       21 0.23343476E-01 0.21192270E+03</pdfrwt>
<pdfrwt beam="2">  1       21 0.45452028E-01 0.21192270E+03</pdfrwt>
<totfact> 0.79456310E+04</totfact>
</mgrwt>
</event>
<event>
12    1  0.1019868E-001  0.1809736E+03  0.7546771E-02  0.1167098E+00
         21   -1    0    0  501  502  0.00000000000E+00  0.00000000000E+00  0.71931819012E+03  0.71931819012E+03  0.00000000000E+00 0.  1.
         21   -1    0    0  502  503 -0.00000000000E+00 -0.00000000000E+00 -0.51055970474E+02  0.51055970474E+02  0.00000000000E+00 0.  1.
         -6    2    1    2    0  503 -0.35370657853E+02 -0.36401305484E+02  0.20545208447E+03  0.27379192699E+03  0.17371045389E+03 0.  0.
        -24    2    3    3    0    0  0.18457560247E+01 -0.55006561628E+02  0.38107185548E+02  0.10128794960E+03  0.76012910125E+02 0.  0.
          6    2    1    2  501    0  0.35370657853E+02  0.36401305484E+02  0.46281013517E+03  0.49658223361E+03  0.17269787214E+03 0.  0.
         24    2    5    5    0    0  0.84152608419E+02  0.36288071351E+02  0.26522272752E+03  0.29300776275E+03  0.84332486108E+02 0.  0.
          5    1    5    5  501    0 -0.48781950566E+02  0.11323413233E+00  0.19758740765E+03  0.20357447086E+03  0.47000000000E+01 0. -1.
        -11    1    6    6    0    0  0.97541848616E+01  0.20046775924E+02  0.16819278392E+03  0.16966387332E+03  0.00000000000E+00 0.  1.
         12    1    6    6    0    0  0.74398423558E+02  0.16241295427E+02  0.97029943601E+02  0.12334388943E+03  0.00000000000E+00 0. -1.
         -5    1    3    3    0  503 -0.37216413878E+02  0.18605256144E+02  0.16734489893E+03  0.17250397739E+03  0.47000000000E+01 0.  1.
         13    1    4    4    0    0  0.37145796539E+02 -0.41119855104E+02  0.17457534223E+02  0.58098349249E+02  0.00000000000E+00 0. -1.
        -14    1    4    4    0    0 -0.35300040514E+02 -0.13886706524E+02  0.20649651326E+02  0.43189600348E+02  0.00000000000E+00 0.  1.
<mgrwt>
<rscale>  2 0.18073022E+03</rscale>
<asrwt>0</asrwt>
<pdfrwt beam="1">  1       21 0.11066433E+00 0.18097365E+03</pdfrwt>
<pdfrwt beam="2">  1       21 0.78547652E-02 0.18097365E+03</pdfrwt>
<totfact> 0.80161033E+04</totfact>
</mgrwt>
</event>
<event>
12    1  0.1019868E-001  0.2213032E+03  0.7546771E-02  0.1133542E+00
         21   -1    0    0  501  502  0.00000000000E+00  0.00000000000E+00  0.59534188609E+03  0.59534188609E+03  0.00000000000E+00 0. -1.
         21   -1    0    0  502  503 -0.00000000000E+00 -0.00000000000E+00 -0.31191400808E+03  0.31191400808E+03  0.00000000000E+00 0. -1.
         -6    2    1    2    0  503  0.12888661886E+03  0.13195588473E+02 -0.24829303832E+03  0.33260269974E+03  0.17941359736E+03 0.  0.
        -24    2    3    3    0    0 -0.10397370400E+02  0.11855200179E+02 -0.79017148597E+02  0.11333518471E+03  0.79702592417E+02 0.  0.
          6    2    1    2  501    0 -0.12888661886E+03 -0.13195588473E+02  0.53172091633E+03  0.57465319444E+03  0.17525203833E+03 0.  0.
         24    2    5    5    0    0 -0.54014556689E+02  0.58440774589E+02  0.29513176163E+03  0.31632372975E+03  0.81394402809E+02 0.  0.
          5    1    5    5  501    0 -0.74872062173E+02 -0.71636363062E+02  0.23658915470E+03  0.25832946469E+03  0.47000000000E+01 0. -1.
        -13    1    6    6    0    0 -0.77161806703E+01 -0.16768635004E+02  0.19336074111E+02  0.26732196432E+02  0.00000000000E+00 0.  1.
         14    1    6    6    0    0 -0.46298376018E+02  0.75209409593E+02  0.27579568752E+03  0.28959153332E+03  0.00000000000E+00 0. -1.
         -5    1    3    3    0  503  0.13928398926E+03  0.13403882939E+01 -0.16927588972E+03  0.21926751503E+03  0.47000000000E+01 0.  1.
         13    1    4    4    0    0  0.25855487787E+02  0.21096723465E+02 -0.65581847671E+02  0.73583671651E+02  0.00000000000E+00 0. -1.
        -14    1    4    4    0    0 -0.36252858188E+02 -0.92415232866E+01 -0.13435300926E+02  0.39751513058E+02  0.00000000000E+00 0.  1.
<mgrwt>
<rscale>  2 0.22045836E+03</rscale>
<asrwt>0</asrwt>
<pdfrwt beam="1">  1       21 0.91591059E-01 0.22130324E+03</pdfrwt>
<pdfrwt beam="2">  1       21 0.47986771E-01 0.22130324E+03</pdfrwt>
<totfact> 0.40939439E+03</totfact>
</mgrwt>
</event>
<event>
12    1  0.1019868E-001  0.1823090E+03  0.7546771E-02  0.1166167E+00
         21   -1    0    0  501  502  0.00000000000E+00  0.00000000000E+00  0.12170927912E+03  0.12170927912E+03  0.00000000000E+00 0.  1.
         21   -1    0    0  502  503 -0.00000000000E+00 -0.00000000000E+00 -0.36969623251E+03  0.36969623251E+03  0.00000000000E+00 0.  1.
         -6    2    1    2    0  503  0.43760866865E+02  0.59437803246E+01 -0.25131939070E+03  0.30906603472E+03  0.17438473466E+03 0.  0.
        -24    2    3    3    0    0 -0.17584605373E+02 -0.50847332043E+02 -0.13502533666E+03  0.16576601933E+03  0.79698570250E+02 0.  0.
          6    2    1    2  501    0 -0.43760866865E+02 -0.59437803246E+01  0.33324373063E+01  0.18233947691E+03  0.17687916131E+03 0.  0.
         24    2    5    5    0    0 -0.32815223321E+02 -0.27656588637E+02  0.67435055319E+02  0.11361911025E+03  0.80747072712E+02 0.  0.
          5    1    5    5  501    0 -0.10945643544E+02  0.21712808313E+02 -0.64102618013E+02  0.68720366657E+02  0.47000000000E+01 0. -1.
        -13    1    6    6    0    0  0.87798211897E+01 -0.40923318312E+02  0.12976099392E+02  0.43819885866E+02  0.00000000000E+00 0.  1.
         14    1    6    6    0    0 -0.41595044511E+02  0.13266729675E+02  0.54458955927E+02  0.69799224385E+02  0.00000000000E+00 0. -1.
         -5    1    3    3    0  503  0.61345472238E+02  0.56791112367E+02 -0.11629405403E+03  0.14330001539E+03  0.47000000000E+01 0.  1.
         13    1    4    4    0    0  0.19341845174E+02 -0.24272681808E+02 -0.98227149473E+01  0.32553890487E+02  0.00000000000E+00 0. -1.
        -14    1    4    4    0    0 -0.36926450547E+02 -0.26574650235E+02 -0.12520262172E+03  0.13321212884E+03  0.00000000000E+00 0.  1.
<mgrwt>
<rscale>  2 0.18170121E+03</rscale>
<asrwt>0</asrwt>
<pdfrwt beam="1">  1       21 0.18724505E-01 0.18230902E+03</pdfrwt>
<pdfrwt beam="2">  1       21 0.56876342E-01 0.18230902E+03</pdfrwt>
<totfact> 0.76136640E+04</totfact>
</mgrwt>
</event>
<event>
12    1  0.1019868E-001  0.1964538E+03  0.7546771E-02  0.1153083E+00
         21   -1    0    0  501  502  0.00000000000E+00  0.00000000000E+00  0.10736953065E+04  0.10736953065E+04  0.00000000000E+00 0. -1.
         21   -1    0    0  502  503 -0.00000000000E+00 -0.00000000000E+00 -0.77324873447E+02  0.77324873447E+02  0.00000000000E+00 0. -1.
         -6    2    1    2    0  503  0.36172631387E+02  0.82767757157E+02  0.76682935394E+02  0.21088950249E+03  0.17445672470E+03 0.  0.
        -24    2    3    3    0    0  0.20906415502E+02  0.81091685676E+02 -0.15624111275E+02  0.11719559966E+03  0.80484508017E+02 0.  0.
          6    2    1    2  501    0 -0.36172631387E+02 -0.82767757157E+02  0.91968749762E+03  0.94013067742E+03  0.17280519802E+03 0.  0.
         24    2    5    5    0    0 -0.45105540621E+02 -0.10544556311E+03  0.89025349387E+03  0.90162703698E+03  0.85010316410E+02 0.  0.
          5    1    5    5  501    0  0.89329092341E+01  0.22677805954E+02  0.29434003752E+02  0.38503640440E+02  0.47000000000E+01 0. -1.
        -13    1    6    6    0    0  0.96428405076E+01 -0.65251062064E+02  0.28289765280E+03  0.29048539969E+03  0.00000000000E+00 0.  1.
         14    1    6    6    0    0 -0.54748381129E+02 -0.40194501047E+02  0.60735584106E+03  0.61114163729E+03  0.00000000000E+00 0. -1.
         -5    1    3    3    0  503  0.15266215886E+02  0.16760714814E+01  0.92307046669E+02  0.93693902832E+02  0.47000000000E+01 0.  1.
         11    1    4    4    0    0 -0.21655808072E+02  0.42093729787E+02 -0.32062449431E+02  0.57173916904E+02  0.00000000000E+00 0. -1.
        -12    1    4    4    0    0  0.42562223573E+02  0.38997955889E+02  0.16438338157E+02  0.60021682752E+02  0.00000000000E+00 0.  1.
<mgrwt>
<rscale>  2 0.19608653E+03</rscale>
<asrwt>0</asrwt>
<pdfrwt beam="1">  1       21 0.16518388E+00 0.19645384E+03</pdfrwt>
<pdfrwt beam="2">  1       21 0.11896135E-01 0.19645384E+03</pdfrwt>
<totfact> 0.13720312E+04</totfact>
</mgrwt>
</event>
<event>
12    1  0.1019868E-001  0.1825257E+03  0.7546771E-02  0.1165848E+00
         21   -1    0    0  501  502  0.00000000000E+00  0.00000000000E+00  0.96050258096E+02  0.96050258096E+02  0.00000000000E+00 0. -1.
         21   -1    0    0  502  503 -0.00000000000E+00 -0.00000000000E+00 -0.15346760060E+04  0.15346760060E+04  0.00000000000E+00 0. -1.
         -6    2    1    2    0  503  0.42881834485E+02 -0.25658848363E+02 -0.14368909870E+04  0.14481923255E+04  0.17351678550E+03 0.  0.
        -24    2    3    3    0    0  0.36242347081E+02 -0.61670838581E+02 -0.58066229853E+03  0.59116805326E+03  0.84818407226E+02 0.  0.
          6    2    1    2  501    0 -0.42881834485E+02  0.25658848363E+02 -0.17347608885E+01  0.18253393859E+03  0.17555170496E+03 0.  0.
         24    2    5    5    0    0  0.45350337725E+01  0.62332701254E+02  0.39391766156E+02  0.10968606898E+03  0.81076447316E+02 0.  0.
          5    1    5    5  501    0 -0.47416868257E+02 -0.36673852891E+02 -0.41126527045E+02  0.72847869618E+02  0.47000000000E+01 0. -1.
        -11    1    6    6    0    0 -0.36352300825E+00  0.74625163493E+02  0.52356693836E+02  0.91160685412E+02  0.00000000000E+00 0.  1.
         12    1    6    6    0    0  0.48985567807E+01 -0.12292462239E+02 -0.12964927679E+02  0.18525383563E+02  0.00000000000E+00 0. -1.
         -5    1    3    3    0  503  0.66394874037E+01  0.36011990218E+02 -0.85622868851E+03  0.85702427227E+03  0.47000000000E+01 0.  1.
         13    1    4    4    0    0  0.42699794986E+02 -0.66383722619E+00 -0.14341840431E+03  0.14964141093E+03  0.00000000000E+00 0. -1.
        -14    1    4    4    0    0 -0.64574479050E+01 -0.61007001355E+02 -0.43724389422E+03  0.44152664233E+03  0.00000000000E+00 0.  1.
<mgrwt>
<rscale>  2 0.18203464E+03</rscale>
<asrwt>0</asrwt>
<pdfrwt beam="1">  1       21 0.14776963E-01 0.18252570E+03</pdfrwt>
<pdfrwt beam="2">  1       21 0.23610400E+00 0.18252570E+03</pdfrwt>
<totfact> 0.32757572E+03</totfact>
</mgrwt>
</event>
<event>
12    1  0.1019868E-001  0.2200966E+03  0.7546771E-02  0.1134070E+00
         21   -1    0    0  503  502  0.00000000000E+00  0.00000000000E+00  0.45321465644E+02  0.45321465644E+02  0.00000000000E+00 0. -1.
         21   -1    0    0  501  503 -0.00000000000E+00 -0.00000000000E+00 -0.12164106283E+04  0.12164106283E+04  0.00000000000E+00 0. -1.
          6    2    1    2  501    0 -0.98983656026E+02  0.95105055741E+02 -0.36249341449E+03  0.42408014322E+03  0.17204579780E+03 0.  0.
         24    2    3    3    0    0  0.31251815776E+01  0.70816450116E+02 -0.12923254959E+03  0.16825037135E+03  0.81131986422E+02 0.  0.
         -6    2    1    2    0  502  0.98983656026E+02 -0.95105055741E+02 -0.80859574822E+03  0.83765195077E+03  0.17026735098E+03 0.  0.
        -24    2    5    5    0    0  0.86193751240E+02 -0.98442866778E+02 -0.39496327609E+03  0.42378163939E+03  0.80464449607E+02 0.  0.
          5    1    3    3  501    0 -0.10210883760E+03  0.24288605625E+02 -0.23326086490E+03  0.25582977186E+03  0.47000000000E+01 0. -1.
        -13    1    4    4    0    0 -0.18489564566E+02 -0.10573116186E+02 -0.41476022078E+02  0.46625263443E+02  0.00000000000E+00 0.  1.
         14    1    4    4    0    0  0.21614746144E+02  0.81389566302E+02 -0.87756527511E+02  0.12162510791E+03  0.00000000000E+00 0. -1.
         -5    1    5    5    0  502  0.12789904786E+02  0.33378110376E+01 -0.41363247213E+03  0.41387031138E+03  0.47000000000E+01 0.  1.
         11    1    6    6    0    0  0.17283003940E+02 -0.91683761847E+01 -0.87364018382E+01  0.21426293756E+02  0.00000000000E+00 0. -1.
        -12    1    6    6    0    0  0.68910747300E+02 -0.89274490594E+02 -0.38622687425E+03  0.40235534563E+03  0.00000000000E+00 0.  1.
<mgrwt>
<rscale>  2 0.21974889E+03</rscale>
<asrwt>0</asrwt>
<pdfrwt beam="1">  1       21 0.69725337E-02 0.22009655E+03</pdfrwt>
<pdfrwt beam="2">  1       21 0.18714008E+00 0.22009655E+03</pdfrwt>
<totfact> 0.24347067E+04</totfact>
</mgrwt>
</event>
<event>
12    1  0.1019868E-001  0.3996113E+03  0.7546771E-02  0.1044598E+00
         21   -1    0    0  501  502  0.00000000000E+00  0.00000000000E+00  0.62945500351E+03  0.62945500351E+03  0.00000000000E+00 0.  1.
         21   -1    0    0  502  503 -0.00000000000E+00 -0.00000000000E+00 -0.28547230313E+03  0.28547230313E+03  0.00000000000E+00 0. -1.
         -6    2    1    2    0  503  0.61562298101E+02  0.34526593176E+03  0.64705401193E+01  0.39185595960E+03  0.17467325212E+03 0.  0.
        -24    2    3    3    0    0  0.99122511387E+02  0.28298659813E+03 -0.29164865240E+02  0.31072977928E+03  0.76129622223E+02 0.  0.
          6    2    1    2  501    0 -0.61562298101E+02 -0.34526593176E+03  0.33751216026E+03  0.52307134704E+03  0.19154815476E+03 0.  0.
         24    2    5    5    0    0 -0.63831196645E+02 -0.82528910475E+02  0.16252733177E+03  0.20735364013E+03  0.75464930763E+02 0.  0.
          5    1    5    5  501    0  0.22688985440E+01 -0.26273702128E+03  0.17498482850E+03  0.31571770691E+03  0.47000000000E+01 0. -1.
        -11    1    6    6    0    0 -0.46148522174E+02 -0.95825085521E+02  0.13949925770E+03  0.17541999889E+03  0.00000000000E+00 0.  1.
         12    1    6    6    0    0 -0.17682674471E+02  0.13296175046E+02  0.23028074071E+02  0.31933641238E+02  0.00000000000E+00 0. -1.
         -5    1    3    3    0  503 -0.37560213285E+02  0.62279333623E+02  0.35635405359E+02  0.81126180322E+02  0.47000000000E+01 0.  1.
         11    1    4    4    0    0  0.49295863999E+02  0.84018252093E+02 -0.40060886825E+02  0.10532817071E+03  0.00000000000E+00 0. -1.
        -12    1    4    4    0    0  0.49826647388E+02  0.19896834604E+03  0.10896021586E+02  0.20540160857E+03  0.00000000000E+00 0.  1.
<mgrwt>
<rscale>  2 0.39764462E+03</rscale>
<asrwt>0</asrwt>
<pdfrwt beam="1">  1       21 0.96839231E-01 0.39961128E+03</pdfrwt>
<pdfrwt beam="2">  1       21 0.43918816E-01 0.39961128E+03</pdfrwt>
<totfact> 0.39272762E+03</totfact>
</mgrwt>
</event>
<event>
12    1  0.1019868E-001  0.1896927E+03  0.7546771E-02  0.1162252E+00
         21   -1    0    0  501  502  0.00000000000E+00  0.00000000000E+00  0.69035680336E+03  0.69035680336E+03  0.00000000000E+00 0.  1.
         21   -1    0    0  502  503 -0.00000000000E+00 -0.00000000000E+00 -0.74123781120E+02  0.74123781120E+02  0.00000000000E+00 0.  1.
         -6    2    1    2    0  503  0.18687515853E+02 -0.10237143667E+01  0.73643168797E+02  0.18968751788E+03  0.17380381724E+03 0.  0.
        -24    2    3    3    0    0 -0.15497793738E+02 -0.57595477111E+02  0.73031454065E+02  0.12341939638E+03  0.79632490392E+02 0.  0.
          6    2    1    2  501    0 -0.18687515853E+02  0.10237143667E+01  0.54258985344E+03  0.57479306660E+03  0.18876718230E+03 0.  0.
         24    2    5    5    0    0  0.24255524802E+02  0.52264095575E+02  0.44768957916E+03  0.45861288986E+03  0.81116935919E+02 0.  0.
          5    1    5    5  501    0 -0.42943040655E+02 -0.51240381209E+02  0.94900274281E+02  0.11618017673E+03  0.47000000000E+01 0. -1.
        -13    1    6    6    0    0 -0.28562497532E+02  0.16648163498E+02  0.20758131556E+03  0.21019747902E+03  0.00000000000E+00 0.  1.
         14    1    6    6    0    0  0.52818022333E+02  0.35615932078E+02  0.24010826359E+03  0.24841541085E+03  0.00000000000E+00 0. -1.
         -5    1    3    3    0  503  0.34185309591E+02  0.56571762745E+02  0.61171473220E+00  0.66268121497E+02  0.47000000000E+01 0.  1.
         11    1    4    4    0    0  0.23440721883E+01 -0.41633841642E+01  0.66543458713E+02  0.66714768527E+02  0.00000000000E+00 0. -1.
        -12    1    4    4    0    0 -0.17841865926E+02 -0.53432092947E+02  0.64879953517E+01  0.56704627855E+02  0.00000000000E+00 0.  1.
<mgrwt>
<rscale>  2 0.18585688E+03</rscale>
<asrwt>0</asrwt>
<pdfrwt beam="1">  1       21 0.10620873E+00 0.18969270E+03</pdfrwt>
<pdfrwt beam="2">  1       21 0.11403659E-01 0.18969270E+03</pdfrwt>
<totfact> 0.45755523E+04</totfact>
</mgrwt>
</event>
<event>
12    1  0.1019868E-001  0.2101758E+03  0.7546771E-02  0.1141530E+00
         21   -1    0    0  501  502  0.00000000000E+00  0.00000000000E+00  0.98914431783E+03  0.98914431783E+03  0.00000000000E+00 0. -1.
         21   -1    0    0  502  503 -0.00000000000E+00 -0.00000000000E+00 -0.18883790927E+03  0.18883790927E+03  0.00000000000E+00 0. -1.
         -6    2    1    2    0  503  0.81166712972E+01 -0.11937569814E+03 -0.11481427907E+03  0.23903615723E+03  0.17216134330E+03 0.  0.
        -24    2    3    3    0    0  0.41031858231E+00 -0.91558275282E+02 -0.15008132355E+03  0.19322075248E+03  0.80167134029E+02 0.  0.
          6    2    1    2  501    0 -0.81166712972E+01  0.11937569814E+03  0.91512068763E+03  0.93894606987E+03  0.17279297305E+03 0.  0.
         24    2    5    5    0    0  0.52575311753E+02  0.38504590533E+02  0.36767706429E+03  0.38222328105E+03  0.81617682371E+02 0.  0.
          5    1    5    5  501    0 -0.60691983051E+02  0.80871107608E+02  0.54744362334E+03  0.55672278881E+03  0.47000000000E+01 0. -1.
        -11    1    6    6    0    0 -0.17281158423E+02 -0.61843726937E+01  0.11028583367E+03  0.11180272810E+03  0.00000000000E+00 0.  1.
         12    1    6    6    0    0  0.69856470176E+02  0.44688963227E+02  0.25739123062E+03  0.27042055295E+03  0.00000000000E+00 0. -1.
         -5    1    3    3    0  503  0.77063527149E+01 -0.27817422859E+02  0.35267044474E+02  0.45815404753E+02  0.47000000000E+01 0.  1.
         11    1    4    4    0    0  0.72635152131E+01 -0.80992043196E+02 -0.57032732962E+02  0.99323724978E+02  0.00000000000E+00 0. -1.
        -12    1    4    4    0    0 -0.68531966308E+01 -0.10566232086E+02 -0.93048590583E+02  0.93897027504E+02  0.00000000000E+00 0.  1.
<mgrwt>
<rscale>  2 0.21004589E+03</rscale>
<asrwt>0</asrwt>
<pdfrwt beam="1">  1       21 0.15217605E+00 0.21017576E+03</pdfrwt>
<pdfrwt beam="2">  1       21 0.29051987E-01 0.21017576E+03</pdfrwt>
<totfact> 0.32140297E+03</totfact>
</mgrwt>
</event>
<event>
12    1  0.1019868E-001  0.2551053E+03  0.7546771E-02  0.1110587E+00
         21   -1    0    0  501  502  0.00000000000E+00  0.00000000000E+00  0.24405969697E+03  0.24405969697E+03  0.00000000000E+00 0. -1.
         21   -1    0    0  502  503 -0.00000000000E+00 -0.00000000000E+00 -0.52086646607E+03  0.52086646607E+03  0.00000000000E+00 0. -1.
         -6    2    1    2    0  503 -0.16105845400E+03 -0.88071797797E+02 -0.40682463879E+03  0.47859876503E+03  0.17278317045E+03 0.  0.
        -24    2    3    3    0    0 -0.37196611064E+02  0.41897947342E+01 -0.84171409569E+02  0.12085422780E+03  0.78228996760E+02 0.  0.
          6    2    1    2  501    0  0.16105845400E+03  0.88071797797E+02  0.13001786969E+03  0.28632739802E+03  0.17715040288E+03 0.  0.
         24    2    5    5    0    0  0.11138507244E+03 -0.15396266300E+02  0.50965145985E+02  0.14688383148E+03  0.79584762771E+02 0.  0.
          5    1    5    5  501    0  0.49673381562E+02  0.10346806410E+03  0.79052723706E+02  0.13944356654E+03  0.47000000000E+01 0. -1.
        -11    1    6    6    0    0  0.56618115294E+02 -0.47130086481E+02  0.35245114248E+02  0.81664399279E+02  0.00000000000E+00 0.  1.
         12    1    6    6    0    0  0.54766957146E+02  0.31733820181E+02  0.15720031737E+02  0.65219432197E+02  0.00000000000E+00 0. -1.
         -5    1    3    3    0  503 -0.12386184294E+03 -0.92261592531E+02 -0.32265322922E+03  0.35774453723E+03  0.47000000000E+01 0.  1.
         11    1    4    4    0    0 -0.68499067950E+01  0.76340827272E+01 -0.89298259981E+02  0.89885369654E+02  0.00000000000E+00 0. -1.
        -12    1    4    4    0    0 -0.30346704269E+02 -0.34442879930E+01  0.51268504124E+01  0.30968858147E+02  0.00000000000E+00 0.  1.
<mgrwt>
<rscale>  2 0.25434870E+03</rscale>
<asrwt>0</asrwt>
<pdfrwt beam="1">  1       21 0.37547645E-01 0.25510534E+03</pdfrwt>
<pdfrwt beam="2">  1       21 0.80133303E-01 0.25510534E+03</pdfrwt>
<totfact> 0.90104827E+03</totfact>
</mgrwt>
</event>
<event>
12    1  0.1019868E-001  0.1879956E+03  0.7546771E-02  0.1161103E+00
         21   -1    0    0  503  502  0.00000000000E+00  0.00000000000E+00  0.71320727327E+02  0.71320727327E+02  0.00000000000E+00 0.  1.
         21   -1    0    0  501  503 -0.00000000000E+00 -0.00000000000E+00 -0.61943186342E+03  0.61943186342E+03  0.00000000000E+00 0. -1.
          6    2    1    2  501    0 -0.76303017372E+02  0.94493426307E+01 -0.11184022384E+03  0.21570033324E+03  0.16765129750E+03 0.  0.
         24    2    3    3    0    0 -0.28022589496E+02 -0.37872625099E+02 -0.11491083048E+03  0.14786312390E+03  0.80245892058E+02 0.  0.
         -6    2    1    2    0  502  0.76303017372E+02 -0.94493426307E+01 -0.43627091226E+03  0.47505225751E+03  0.17155435859E+03 0.  0.
        -24    2    5    5    0    0  0.66403052067E+02 -0.56736634408E+02 -0.19463182785E+03  0.22858596288E+03  0.82107143459E+02 0.  0.
          5    1    3    3  501    0 -0.48280427876E+02  0.47321967730E+02  0.30706066445E+01  0.67837209339E+02  0.47000000000E+01 0. -1.
        -11    1    4    4    0    0 -0.31147413427E+02  0.16898833301E+02 -0.28348055808E+02  0.45379997777E+02  0.00000000000E+00 0.  1.
         12    1    4    4    0    0  0.31248239310E+01 -0.54771458400E+02 -0.86562774675E+02  0.10248312612E+03  0.00000000000E+00 0. -1.
         -5    1    5    5    0  502  0.98999653044E+01  0.47287291777E+02 -0.24163908441E+03  0.24646629463E+03  0.47000000000E+01 0.  1.
         13    1    6    6    0    0  0.66284568648E+02 -0.59305556511E+02 -0.20203636392E+03  0.22074756040E+03  0.00000000000E+00 0. -1.
        -14    1    6    6    0    0  0.11848341911E+00  0.25689221028E+01  0.74045360724E+01  0.78384024864E+01  0.00000000000E+00 0.  1.
<mgrwt>
<rscale>  2 0.18710051E+03</rscale>
<asrwt>0</asrwt>
<pdfrwt beam="1">  1       21 0.10972420E-01 0.18799558E+03</pdfrwt>
<pdfrwt beam="2">  1       21 0.95297209E-01 0.18799558E+03</pdfrwt>
<totfact> 0.63441553E+04</totfact>
</mgrwt>
</event>
<event>
12    1  0.1019868E-001  0.5457614E+03  0.7546771E-02  0.1002487E+00
         21   -1    0    0  503  502  0.00000000000E+00  0.00000000000E+00  0.16563188984E+04  0.16563188984E+04  0.00000000000E+00 0.  1.
         21   -1    0    0  501  503 -0.00000000000E+00 -0.00000000000E+00 -0.24180480714E+03  0.24180480714E+03  0.00000000000E+00 0. -1.
          6    2    1    2  501    0 -0.23788037187E+03 -0.46025171549E+03  0.11879363974E+04  0.13073057612E+04  0.17157143189E+03 0.  0.
         24    2    3    3    0    0 -0.22554871303E+03 -0.34986034143E+03  0.82310233567E+03  0.92590792715E+03  0.80830403379E+02 0.  0.
         -6    2    1    2    0  502  0.23788037187E+03  0.46025171549E+03  0.22657769385E+03  0.59081794426E+03  0.17120069794E+03 0.  0.
        -24    2    5    5    0    0  0.20658508527E+03  0.25941833906E+03  0.13064005852E+03  0.36600789127E+03  0.83184610879E+02 0.  0.
          5    1    3    3  501    0 -0.12331658847E+02 -0.11039137406E+03  0.36483406169E+03  0.38139783409E+03  0.47000000000E+01 0. -1.
        -11    1    4    4    0    0 -0.13868400250E+03 -0.25890341008E+03  0.51062909390E+03  0.58907240628E+03  0.00000000000E+00 0.  1.
         12    1    4    4    0    0 -0.86864710523E+02 -0.90956931349E+02  0.31247324178E+03  0.33683552087E+03  0.00000000000E+00 0. -1.
         -5    1    5    5    0  502  0.31295286602E+02  0.20083337643E+03  0.95937635334E+02  0.22481005299E+03  0.47000000000E+01 0.  1.
         13    1    6    6    0    0  0.95102555162E+02  0.18314482114E+03  0.69677969695E+02  0.21781079168E+03  0.00000000000E+00 0. -1.
        -14    1    6    6    0    0  0.11148253011E+03  0.76273517916E+02  0.60962088825E+02  0.14819709960E+03  0.00000000000E+00 0.  1.
<mgrwt>
<rscale>  2 0.54573226E+03</rscale>
<asrwt>0</asrwt>
<pdfrwt beam="1">  1       21 0.25481829E+00 0.54576137E+03</pdfrwt>
<pdfrwt beam="2">  1       21 0.37200741E-01 0.54576137E+03</pdfrwt>
<totfact> 0.33282478E+02</totfact>
</mgrwt>
</event>
<event>
12    1  0.1019868E-001  0.1809209E+03  0.7546771E-02  0.1169382E+00
         21   -1    0    0  501  502  0.00000000000E+00  0.00000000000E+00  0.59347116320E+03  0.59347116320E+03  0.00000000000E+00 0.  1.
         21   -1    0    0  502  503 -0.00000000000E+00 -0.00000000000E+00 -0.65636909399E+02  0.65636909399E+02  0.00000000000E+00 0.  1.
         -6    2    1    2    0  503 -0.54441630636E+02  0.98414831647E+01  0.10870064720E+03  0.20259373804E+03  0.16176416801E+03 0.  0.
        -24    2    3    3    0    0 -0.12061206639E+02 -0.62422273182E+01 -0.40436673787E+01  0.80987173448E+02  0.79737901338E+02 0.  0.
          6    2    1    2  501    0  0.54441630636E+02 -0.98414831647E+01  0.41913360660E+03  0.45651433456E+03  0.17225449644E+03 0.  0.
         24    2    5    5    0    0  0.70402528810E+02  0.46429301043E+02  0.21937282367E+03  0.24831344162E+03  0.80143205983E+02 0.  0.
          5    1    5    5  501    0 -0.15960898174E+02 -0.56270784208E+02  0.19976078292E+03  0.20820089294E+03  0.47000000000E+01 0. -1.
        -11    1    6    6    0    0  0.51073074165E+02 -0.12658665874E+02  0.12095165118E+03  0.13190148843E+03  0.00000000000E+00 0.  1.
         12    1    6    6    0    0  0.19329454645E+02  0.59087966918E+02  0.98421172492E+02  0.11641195319E+03  0.00000000000E+00 0. -1.
         -5    1    3    3    0  503 -0.42380423997E+02  0.16083710483E+02  0.11274431458E+03  0.12160656459E+03  0.47000000000E+01 0.  1.
         11    1    4    4    0    0  0.21131184354E+02  0.42962658327E+00  0.27520192717E+02  0.34699748391E+02  0.00000000000E+00 0. -1.
        -12    1    4    4    0    0 -0.33192390993E+02 -0.66718539015E+01 -0.31563860096E+02  0.46287425058E+02  0.00000000000E+00 0.  1.
<mgrwt>
<rscale>  2 0.17837833E+03</rscale>
<asrwt>0</asrwt>
<pdfrwt beam="1">  1       21 0.91303252E-01 0.18092086E+03</pdfrwt>
<pdfrwt beam="2">  1       21 0.10097986E-01 0.18092086E+03</pdfrwt>
<totfact> 0.81455495E+04</totfact>
</mgrwt>
</event>
<event>
12    1  0.1019868E-001  0.1999001E+03  0.7546771E-02  0.1149861E+00
         21   -1    0    0  503  502  0.00000000000E+00  0.00000000000E+00  0.17681641771E+04  0.17681641771E+04  0.00000000000E+00 0. -1.
         21   -1    0    0  501  503 -0.00000000000E+00 -0.00000000000E+00 -0.22679323655E+02  0.22679323655E+02  0.00000000000E+00 0.  1.
          6    2    1    2  501    0  0.67678562852E+02  0.72663992741E+02  0.93176134307E+03  0.95292583465E+03  0.17328589726E+03 0.  0.
         24    2    3    3    0    0  0.16791130788E+02  0.95798847759E+02  0.80040707445E+03  0.81009451405E+03  0.78372671012E+02 0.  0.
         -6    2    1    2    0  502 -0.67678562852E+02 -0.72663992741E+02  0.81372351037E+03  0.83791766610E+03  0.17349242095E+03 0.  0.
        -24    2    5    5    0    0 -0.47719036174E+02 -0.61703989570E+01  0.21504313205E+03  0.23520706714E+03  0.82241325093E+02 0.  0.
          5    1    3    3  501    0  0.50887432064E+02 -0.23134855018E+02  0.13135426862E+03  0.14283132060E+03  0.47000000000E+01 0. -1.
        -11    1    4    4    0    0  0.46921340734E+02  0.66488672757E+02  0.58403191368E+03  0.58967417445E+03  0.00000000000E+00 0.  1.
         12    1    4    4    0    0 -0.30130209946E+02  0.29310175002E+02  0.21637516077E+03  0.22042033960E+03  0.00000000000E+00 0. -1.
         -5    1    5    5    0  502 -0.19959526678E+02 -0.66493593784E+02  0.59868037832E+03  0.60271059896E+03  0.47000000000E+01 0.  1.
         11    1    6    6    0    0  0.17075949045E+02  0.20543892492E+01  0.11126148765E+03  0.11258297911E+03  0.00000000000E+00 0. -1.
        -12    1    6    6    0    0 -0.64794985219E+02 -0.82247882062E+01  0.10378164440E+03  0.12262408803E+03  0.00000000000E+00 0.  1.
<mgrwt>
<rscale>  2 0.19985532E+03</rscale>
<asrwt>0</asrwt>
<pdfrwt beam="1">  1       21 0.27202515E+00 0.19990013E+03</pdfrwt>
<pdfrwt beam="2">  1       21 0.34891281E-02 0.19990013E+03</pdfrwt>
<totfact> 0.24204734E+04</totfact>
</mgrwt>
</event>
<event>
12    1  0.1019868E-001  0.1872738E+03  0.7546771E-02  0.1161811E+00
         21   -1    0    0  503  502  0.00000000000E+00  0.00000000000E+00  0.10152600969E+03  0.10152600969E+03  0.00000000000E+00 0.  1.
         21   -1    0    0  501  503 -0.00000000000E+00 -0.00000000000E+00 -0.34292096258E+03  0.34292096258E+03  0.00000000000E+00 0.  1.
          6    2    1    2  501    0  0.43822383370E+02  0.17781189867E+02 -0.14448229286E+03  0.23358318719E+03  0.17733978796E+03 0.  0.
         24    2    3    3    0    0  0.69276040252E+02  0.39417048320E+02 -0.15818741429E+03  0.19717001138E+03  0.86601858496E+02 0.  0.
         -6    2    1    2    0  502 -0.43822383370E+02 -0.17781189867E+02 -0.96912660036E+02  0.21086378508E+03  0.18120402916E+03 0.  0.
        -24    2    5    5    0    0  0.12129516598E+02  0.31381347194E+02  0.14270904593E+00  0.88432560187E+02  0.81782536099E+02 0.  0.
          5    1    3    3  501    0 -0.25453656881E+02 -0.21635858454E+02  0.13705121431E+02  0.36413175817E+02  0.47000000000E+01 0. -1.
        -13    1    4    4    0    0  0.66105641504E+02  0.27816078380E+02 -0.47935568902E+02  0.86264180406E+02  0.00000000000E+00 0.  1.
         14    1    4    4    0    0  0.31703987478E+01  0.11600969940E+02 -0.11025184539E+03  0.11090583097E+03  0.00000000000E+00 0. -1.
         -5    1    5    5    0  502 -0.55951899968E+02 -0.49162537061E+02 -0.97055369082E+02  0.12243122489E+03  0.47000000000E+01 0.  1.
         11    1    6    6    0    0  0.99651125157E+01  0.55468694156E+02 -0.16911939664E+02  0.58839554741E+02  0.00000000000E+00 0. -1.
        -12    1    6    6    0    0  0.21644040823E+01 -0.24087346962E+02  0.17054648710E+02  0.29593005446E+02  0.00000000000E+00 0.  1.
<mgrwt>
<rscale>  2 0.18633262E+03</rscale>
<asrwt>0</asrwt>
<pdfrwt beam="1">  1       21 0.15619386E-01 0.18727379E+03</pdfrwt>
<pdfrwt beam="2">  1       21 0.52757072E-01 0.18727379E+03</pdfrwt>
<totfact> 0.12432017E+05</totfact>
</mgrwt>
</event>
<event>
12    1  0.1019868E-001  0.1910507E+03  0.7546771E-02  0.1158708E+00
         21   -1    0    0  503  502  0.00000000000E+00  0.00000000000E+00  0.28742169939E+03  0.28742169939E+03  0.00000000000E+00 0.  1.
         21   -1    0    0  501  503 -0.00000000000E+00 -0.00000000000E+00 -0.39661659299E+03  0.39661659299E+03  0.00000000000E+00 0.  1.
          6    2    1    2  501    0  0.73018106662E+02  0.36182937045E+02 -0.33862535690E+03  0.38880265148E+03  0.17279907589E+03 0.  0.
         24    2    3    3    0    0  0.82572124204E+02 -0.28666529796E+02 -0.26295528630E+03  0.28857899067E+03  0.80575589590E+02 0.  0.
         -6    2    1    2    0  502 -0.73018106662E+02 -0.36182937045E+02  0.22943046330E+03  0.29523564090E+03  0.16698771612E+03 0.  0.
        -24    2    5    5    0    0 -0.27394143247E+02 -0.68208864401E+02  0.81200040550E+02  0.13680094050E+03  0.81964397578E+02 0.  0.
          5    1    3    3  501    0 -0.95540175423E+01  0.64849466841E+02 -0.75670070595E+02  0.10022366080E+03  0.47000000000E+01 0. -1.
        -11    1    4    4    0    0  0.89928306732E+02 -0.28542947989E+01 -0.17739403359E+03  0.19890673821E+03  0.00000000000E+00 0.  1.
         12    1    4    4    0    0 -0.73561825280E+01 -0.25812234997E+02 -0.85561252710E+02  0.89672252465E+02  0.00000000000E+00 0. -1.
         -5    1    5    5    0  502 -0.45623963415E+02  0.32025927356E+02  0.14823042275E+03  0.15843470040E+03  0.47000000000E+01 0.  1.
         11    1    6    6    0    0  0.10110620568E+02 -0.18363445915E+02 -0.12372771578E+02  0.24341862514E+02  0.00000000000E+00 0. -1.
        -12    1    6    6    0    0 -0.37504763815E+02 -0.49845418486E+02  0.93572812128E+02  0.11245907799E+03  0.00000000000E+00 0.  1.
<mgrwt>
<rscale>  2 0.18972709E+03</rscale>
<asrwt>0</asrwt>
<pdfrwt beam="1">  1       21 0.44218723E-01 0.19105070E+03</pdfrwt>
<pdfrwt beam="2">  1       21 0.61017937E-01 0.19105070E+03</pdfrwt>
<totfact> 0.12289128E+04</totfact>
</mgrwt>
</event>
<event>
12    1  0.1019868E-001  0.2005218E+03  0.7546771E-02  0.1149569E+00
         21   -1    0    0  503  502  0.00000000000E+00  0.00000000000E+00  0.40897286448E+02  0.40897286448E+02  0.00000000000E+00 0.  1.
         21   -1    0    0  501  503 -0.00000000000E+00 -0.00000000000E+00 -0.10106147302E+04  0.10106147302E+04  0.00000000000E+00 0.  1.
          6    2    1    2  501    0  0.61343415258E+00 -0.10226629156E+03 -0.38735032347E+03  0.43558956491E+03  0.17099481066E+03 0.  0.
         24    2    3    3    0    0  0.17820365774E+02 -0.12157120825E+03 -0.20942019561E+03  0.25572856662E+03  0.80269280212E+02 0.  0.
         -6    2    1    2    0  502 -0.61343415258E+00  0.10226629156E+03 -0.58236712032E+03  0.61592245178E+03  0.17248255878E+03 0.  0.
        -24    2    5    5    0    0  0.10789150094E+02  0.47489328920E+02 -0.53310518357E+03  0.54122731822E+03  0.79713431275E+02 0.  0.
          5    1    3    3  501    0 -0.17206931621E+02  0.19304916685E+02 -0.17793012786E+03  0.17986099829E+03  0.47000000000E+01 0. -1.
        -13    1    4    4    0    0  0.81111318963E+01 -0.42520305645E+02 -0.15065513462E+03  0.15675055483E+03  0.00000000000E+00 0.  1.
         14    1    4    4    0    0  0.97092338773E+01 -0.79050902604E+02 -0.58765060995E+02  0.98978011794E+02  0.00000000000E+00 0. -1.
         -5    1    5    5    0  502 -0.11402584246E+02  0.54776962643E+02 -0.49261936749E+02  0.74695133551E+02  0.47000000000E+01 0.  1.
         13    1    6    6    0    0  0.27179075331E+02 -0.48477236160E+01 -0.76290199733E+02  0.81131973570E+02  0.00000000000E+00 0. -1.
        -14    1    6    6    0    0 -0.16389925237E+02  0.52337052536E+02 -0.45681498383E+03  0.46009534465E+03  0.00000000000E+00 0.  1.
<mgrwt>
<rscale>  2 0.20020149E+03</rscale>
<asrwt>0</asrwt>
<pdfrwt beam="1">  1       21 0.62918909E-02 0.20052183E+03</pdfrwt>
<pdfrwt beam="2">  1       21 0.15547917E+00 0.20052183E+03</pdfrwt>
<totfact> 0.49182429E+04</totfact>
</mgrwt>
</event>
<event>
12    1  0.1019868E-001  0.2096141E+03  0.7546771E-02  0.1142063E+00
         21   -1    0    0  501  502  0.00000000000E+00  0.00000000000E+00  0.41062756005E+03  0.41062756005E+03  0.00000000000E+00 0.  1.
         21   -1    0    0  502  503 -0.00000000000E+00 -0.00000000000E+00 -0.10726469597E+03  0.10726469597E+03  0.00000000000E+00 0.  1.
         -6    2    1    2    0  503  0.83966600462E+02  0.81913241228E+02  0.12966091335E+03  0.24565991535E+03  0.17255918543E+03 0.  0.
        -24    2    3    3    0    0  0.64398862218E+02  0.47704588802E+02  0.16625356405E+03  0.19167621072E+03  0.51735683516E+02 0.  0.
          6    2    1    2  501    0 -0.83966600462E+02 -0.81913241228E+02  0.17370195073E+03  0.27223234066E+03  0.17371790504E+03 0.  0.
         24    2    5    5    0    0 -0.51475793308E+02 -0.44372076652E+02  0.15529452386E+02  0.10638415460E+03  0.80360350768E+02 0.  0.
          5    1    5    5  501    0 -0.32490807154E+02 -0.37541164576E+02  0.15817249835E+03  0.16584818606E+03  0.47000000000E+01 0. -1.
        -13    1    6    6    0    0 -0.67770841275E+02 -0.13207125424E+02  0.32080458229E+01  0.69120233269E+02  0.00000000000E+00 0.  1.
         14    1    6    6    0    0  0.16295047967E+02 -0.31164951228E+02  0.12321406563E+02  0.37263921331E+02  0.00000000000E+00 0. -1.
         -5    1    3    3    0  503  0.19567738244E+02  0.34208652426E+02 -0.36592650697E+02  0.53983704632E+02  0.47000000000E+01 0.  1.
         13    1    4    4    0    0  0.99533520588E+01 -0.75047070099E+01  0.64072697123E+01  0.14015810704E+02  0.00000000000E+00 0. -1.
        -14    1    4    4    0    0  0.54445510159E+02  0.55209295812E+02  0.15984629434E+03  0.17766040001E+03  0.00000000000E+00 0.  1.
<mgrwt>
<rscale>  2 0.20937389E+03</rscale>
<asrwt>0</asrwt>
<pdfrwt beam="1">  1       21 0.63173470E-01 0.20961412E+03</pdfrwt>
<pdfrwt beam="2">  1       21 0.16502261E-01 0.20961412E+03</pdfrwt>
<totfact> 0.75826885E+04</totfact>
</mgrwt>
</event>
<event>
12    1  0.1019868E-001  0.1915732E+03  0.7546771E-02  0.1157310E+00
         21   -1    0    0  503  502  0.00000000000E+00  0.00000000000E+00  0.81908157674E+02  0.81908157674E+02  0.00000000000E+00 0. -1.
         21   -1    0    0  501  503 -0.00000000000E+00 -0.00000000000E+00 -0.46314678392E+03  0.46314678392E+03  0.00000000000E+00 0.  1.
          6    2    1    2  501    0 -0.75919394618E+02  0.32964556163E+02 -0.24347701652E+03  0.30909188899E+03  0.17148271582E+03 0.  0.
         24    2    3    3    0    0  0.17417822666E+02  0.40673693857E+02 -0.15815796704E+03  0.18231374758E+03  0.79162049627E+02 0.  0.
         -6    2    1    2    0  502  0.75919394618E+02 -0.32964556163E+02 -0.13776160972E+03  0.23596305260E+03  0.17277119157E+03 0.  0.
        -24    2    5    5    0    0 -0.16605771562E+02 -0.43534196478E+02 -0.45964466841E+02  0.10511417368E+03  0.82251318437E+02 0.  0.
          5    1    3    3  501    0 -0.93337217284E+02 -0.77091376941E+01 -0.85319049479E+02  0.12677814141E+03  0.47000000000E+01 0. -1.
        -11    1    4    4    0    0 -0.38654051333E+01  0.54932878449E+02 -0.14128578433E+03  0.15163850219E+03  0.00000000000E+00 0.  1.
         12    1    4    4    0    0  0.21283227800E+02 -0.14259184592E+02 -0.16872182713E+02  0.30675245399E+02  0.00000000000E+00 0. -1.
         -5    1    5    5    0  502  0.92525166180E+02  0.10569640315E+02 -0.91797142881E+02  0.13084887892E+03  0.47000000000E+01 0.  1.
         11    1    6    6    0    0 -0.27662711462E+02 -0.41356631563E+02  0.76394841096E+01  0.50338437571E+02  0.00000000000E+00 0. -1.
        -12    1    6    6    0    0  0.11056939900E+02 -0.21775649155E+01 -0.53603950950E+02  0.54775736110E+02  0.00000000000E+00 0.  1.
<mgrwt>
<rscale>  2 0.19128226E+03</rscale>
<asrwt>0</asrwt>
<pdfrwt beam="1">  1       21 0.12601255E-01 0.19157323E+03</pdfrwt>
<pdfrwt beam="2">  1       21 0.71253351E-01 0.19157323E+03</pdfrwt>
<totfact> 0.95827100E+04</totfact>
</mgrwt>
</event>
<event>
12    1  0.1019868E-001  0.2281231E+03  0.7546771E-02  0.1128365E+00
         21   -1    0    0  501  502  0.00000000000E+00  0.00000000000E+00  0.76809085825E+03  0.76809085825E+03  0.00000000000E+00 0. -1.
         21   -1    0    0  502  503 -0.00000000000E+00 -0.00000000000E+00 -0.71497897171E+02  0.71497897171E+02  0.00000000000E+00 0. -1.
         -6    2    1    2    0  503  0.39179622410E+02 -0.14250986420E+03  0.45088376167E+03  0.50430800753E+03  0.17083997108E+03 0.  0.
        -24    2    3    3    0    0 -0.27737344847E+01 -0.46679950385E+02  0.91195696277E+02  0.12968679761E+03  0.79468856066E+02 0.  0.
          6    2    1    2  501    0 -0.39179622410E+02  0.14250986420E+03  0.24570919942E+03  0.33528074789E+03  0.17377014998E+03 0.  0.
         24    2    5    5    0    0  0.34113217461E+02  0.44245131791E+02  0.69771553886E+02  0.12079544973E+03  0.81253477783E+02 0.  0.
          5    1    5    5  501    0 -0.73292839871E+02  0.98264732413E+02  0.17593764553E+03  0.21448529816E+03  0.47000000000E+01 0. -1.
        -11    1    6    6    0    0  0.40515237610E+02  0.64229560424E+02  0.44771828170E+02  0.88155757092E+02  0.00000000000E+00 0.  1.
         12    1    6    6    0    0 -0.64020201497E+01 -0.19984428633E+02  0.24999725716E+02  0.32639692640E+02  0.00000000000E+00 0. -1.
         -5    1    3    3    0  503  0.41953356895E+02 -0.95829913818E+02  0.35968806539E+03  0.37462120992E+03  0.47000000000E+01 0.  1.
         13    1    4    4    0    0  0.23595371480E+02 -0.55811841039E+02  0.44096176099E+02  0.74941149591E+02  0.00000000000E+00 0. -1.
        -14    1    4    4    0    0 -0.26369105965E+02  0.91318906533E+01  0.47099520178E+02  0.54745648022E+02  0.00000000000E+00 0.  1.
<mgrwt>
<rscale>  2 0.22756509E+03</rscale>
<asrwt>0</asrwt>
<pdfrwt beam="1">  1       21 0.11816782E+00 0.22812314E+03</pdfrwt>
<pdfrwt beam="2">  1       21 0.10999677E-01 0.22812314E+03</pdfrwt>
<totfact> 0.36886053E+04</totfact>
</mgrwt>
</event>
<event>
12    1  0.1019868E-001  0.1981961E+03  0.7546771E-02  0.1152394E+00
         21   -1    0    0  501  502  0.00000000000E+00  0.00000000000E+00  0.16684902284E+03  0.16684902284E+03  0.00000000000E+00 0.  1.
         21   -1    0    0  502  503 -0.00000000000E+00 -0.00000000000E+00 -0.24193497574E+03  0.24193497574E+03  0.00000000000E+00 0.  1.
         -6    2    1    2    0  503  0.72335415143E+02  0.65636743615E+02  0.96266227415E+01  0.19324297720E+03  0.16646195354E+03 0.  0.
        -24    2    3    3    0    0  0.68184864908E+02 -0.19042949499E+02  0.31166821729E+01  0.10808226549E+03  0.81610371135E+02 0.  0.
          6    2    1    2  501    0 -0.72335415143E+02 -0.65636743615E+02 -0.84712575639E+02  0.21554102137E+03  0.17245613073E+03 0.  0.
         24    2    5    5    0    0  0.26838935011E+02 -0.18170001050E+02 -0.37848996132E+02  0.95929448093E+02  0.81972160716E+02 0.  0.
          5    1    5    5  501    0 -0.99174350155E+02 -0.47466742565E+02 -0.46863579508E+02  0.11961157328E+03  0.47000000000E+01 0. -1.
        -13    1    6    6    0    0  0.14479810529E+02 -0.50184836163E+02 -0.13800323054E+02  0.54024361265E+02  0.00000000000E+00 0.  1.
         14    1    6    6    0    0  0.12359124482E+02  0.32014835113E+02 -0.24048673077E+02  0.41905086828E+02  0.00000000000E+00 0. -1.
         -5    1    3    3    0  503  0.41505502350E+01  0.84679693114E+02  0.65099405686E+01  0.85160711713E+02  0.47000000000E+01 0.  1.
         13    1    4    4    0    0  0.64164122177E+01  0.25637706121E+01 -0.32741892059E+02  0.33463035742E+02  0.00000000000E+00 0. -1.
        -14    1    4    4    0    0  0.61768452691E+02 -0.21606720111E+02  0.35858574232E+02  0.74619229745E+02  0.00000000000E+00 0.  1.
<mgrwt>
<rscale>  2 0.19688491E+03</rscale>
<asrwt>0</asrwt>
<pdfrwt beam="1">  1       21 0.25669081E-01 0.19819614E+03</pdfrwt>
<pdfrwt beam="2">  1       21 0.37220765E-01 0.19819614E+03</pdfrwt>
<totfact> 0.10003121E+05</totfact>
</mgrwt>
</event>
<event>
12    1  0.1019868E-001  0.1826604E+03  0.7546771E-02  0.1167135E+00
         21   -1    0    0  503  502  0.00000000000E+00  0.00000000000E+00  0.63897296936E+03  0.63897296936E+03  0.00000000000E+00 0.  1.
         21   -1    0    0  501  503 -0.00000000000E+00 -0.00000000000E+00 -0.50055379864E+02  0.50055379864E+02  0.00000000000E+00 0.  1.
          6    2    1    2  501    0  0.13539003021E+02  0.55207412101E+02  0.30931495261E+03  0.35922217083E+03  0.17359050999E+03 0.  0.
         24    2    3    3    0    0  0.70363844368E+02  0.50175620335E+02  0.16062230256E+03  0.19989240054E+03  0.81784987893E+02 0.  0.
         -6    2    1    2    0  502 -0.13539003021E+02 -0.55207412101E+02  0.27960263689E+03  0.32980617839E+03  0.16541861382E+03 0.  0.
        -24    2    5    5    0    0 -0.34803545304E+02 -0.91469767866E+02  0.16270728528E+03  0.20549305587E+03  0.78585813781E+02 0.  0.
          5    1    3    3  501    0 -0.56824841347E+02  0.50317917661E+01  0.14869265005E+03  0.15932977029E+03  0.47000000000E+01 0. -1.
        -11    1    4    4    0    0  0.28905613988E+02 -0.21306666878E+02  0.40987193341E+02  0.54492738887E+02  0.00000000000E+00 0.  1.
         12    1    4    4    0    0  0.41458230380E+02  0.71482287214E+02  0.11963510922E+03  0.14539966165E+03  0.00000000000E+00 0. -1.
         -5    1    5    5    0  502  0.21264542284E+02  0.36262355764E+02  0.11689535160E+03  0.12431312252E+03  0.47000000000E+01 0.  1.
         13    1    6    6    0    0 -0.20617759962E+01 -0.85219953832E+02  0.82474825445E+02  0.11861192302E+03  0.00000000000E+00 0. -1.
        -14    1    6    6    0    0 -0.32741769308E+02 -0.62498140334E+01  0.80232459838E+02  0.86881132846E+02  0.00000000000E+00 0.  1.
<mgrwt>
<rscale>  2 0.18069191E+03</rscale>
<asrwt>0</asrwt>
<pdfrwt beam="1">  1       21 0.98303528E-01 0.18266042E+03</pdfrwt>
<pdfrwt beam="2">  1       21 0.77008281E-02 0.18266042E+03</pdfrwt>
<totfact> 0.11004712E+05</totfact>
</mgrwt>
</event>
<event>
12    1  0.1019868E-001  0.1767458E+03  0.7546771E-02  0.1171434E+00
         21   -1    0    0  503  502  0.00000000000E+00  0.00000000000E+00  0.14458397102E+03  0.14458397102E+03  0.00000000000E+00 0. -1.
         21   -1    0    0  501  503 -0.00000000000E+00 -0.00000000000E+00 -0.23742978582E+03  0.23742978582E+03  0.00000000000E+00 0. -1.
          6    2    1    2  501    0 -0.14131742078E+02 -0.25789266943E+02 -0.10677577804E+03  0.20649494426E+03  0.17428225041E+03 0.  0.
         24    2    3    3    0    0 -0.78032900819E+02 -0.44550155228E+02 -0.43284343338E+02  0.11436144711E+03  0.55956735658E+02 0.  0.
         -6    2    1    2    0  502  0.14131742078E+02  0.25789266943E+02  0.13929963237E+02  0.17551881257E+03  0.17247613535E+03 0.  0.
        -24    2    5    5    0    0 -0.49838295359E+02 -0.12599168887E+02 -0.91913812881E+01  0.97272251828E+02  0.82065917071E+02 0.  0.
          5    1    3    3  501    0  0.63901158740E+02  0.18760888285E+02 -0.63491434699E+02  0.92133497153E+02  0.47000000000E+01 0. -1.
        -13    1    4    4    0    0 -0.30131697949E+00 -0.24159754934E+02 -0.17955200491E+02  0.30102720393E+02  0.00000000000E+00 0.  1.
         14    1    4    4    0    0 -0.77731583839E+02 -0.20390400294E+02 -0.25329142846E+02  0.84258726715E+02  0.00000000000E+00 0. -1.
         -5    1    5    5    0  502  0.63970037438E+02  0.38388435830E+02  0.23121344525E+02  0.78246560742E+02  0.47000000000E+01 0.  1.
         13    1    6    6    0    0  0.67759658660E+01 -0.15297018117E+02 -0.32053022984E+02  0.36156724950E+02  0.00000000000E+00 0. -1.
        -14    1    6    6    0    0 -0.56614261225E+02  0.26978492302E+01  0.22861641695E+02  0.61115526878E+02  0.00000000000E+00 0.  1.
<mgrwt>
<rscale>  2 0.17629899E+03</rscale>
<asrwt>0</asrwt>
<pdfrwt beam="1">  1       21 0.22243688E-01 0.17674585E+03</pdfrwt>
<pdfrwt beam="2">  1       21 0.36527659E-01 0.17674585E+03</pdfrwt>
<totfact> 0.13738421E+05</totfact>
</mgrwt>
</event>
<event>
12    1  0.1019868E-001  0.2655743E+03  0.7546771E-02  0.1103930E+00
         21   -1    0    0  503  502  0.00000000000E+00  0.00000000000E+00  0.77127754666E+03  0.77127754666E+03  0.00000000000E+00 0.  1.
         21   -1    0    0  501  503 -0.00000000000E+00 -0.00000000000E+00 -0.11695159909E+03  0.11695159909E+03  0.00000000000E+00 0. -1.
          6    2    1    2  501    0  0.20082605227E+03  0.10962164138E+02  0.11919226872E+03  0.29109537295E+03  0.17343138965E+03 0.  0.
         24    2    3    3    0    0  0.78113326488E+02 -0.54282698933E+02  0.73899401646E+02  0.14484613694E+03  0.80442393323E+02 0.  0.
         -6    2    1    2    0  502 -0.20082605227E+03 -0.10962164138E+02  0.53513367885E+03  0.59713377281E+03  0.17248019038E+03 0.  0.
        -24    2    5    5    0    0 -0.24288433280E+02 -0.49863980547E+02  0.12823005856E+03  0.15185686071E+03  0.59508097599E+02 0.  0.
          5    1    3    3  501    0  0.12271272578E+03  0.65244863072E+02  0.45292867077E+02  0.14624923601E+03  0.47000000000E+01 0. -1.
        -13    1    4    4    0    0  0.90647256528E+02 -0.59184085060E+02  0.54410093684E+02  0.12116162485E+03  0.00000000000E+00 0.  1.
         14    1    4    4    0    0 -0.12533930040E+02  0.49013861268E+01  0.19489307962E+02  0.23684512092E+02  0.00000000000E+00 0. -1.
         -5    1    5    5    0  502 -0.17653761899E+03  0.38901816409E+02  0.40690362029E+03  0.44527691209E+03  0.47000000000E+01 0.  1.
         13    1    6    6    0    0 -0.43813150633E+02 -0.38638463294E+02  0.99094610005E+02  0.11503158152E+03  0.00000000000E+00 0. -1.
        -14    1    6    6    0    0  0.19524717353E+02 -0.11225517253E+02  0.29135448554E+02  0.36825279195E+02  0.00000000000E+00 0.  1.
<mgrwt>
<rscale>  2 0.26541913E+03</rscale>
<asrwt>0</asrwt>
<pdfrwt beam="1">  1       21 0.11865808E+00 0.26557432E+03</pdfrwt>
<pdfrwt beam="2">  1       21 0.17992554E-01 0.26557432E+03</pdfrwt>
<totfact> 0.14613537E+04</totfact>
</mgrwt>
</event>
<event>
12    1  0.1019868E-001  0.2306775E+03  0.7546771E-02  0.1126264E+00
         21   -1    0    0  501  502  0.00000000000E+00  0.00000000000E+00  0.86077055081E+02  0.86077055081E+02  0.00000000000E+00 0. -1.
         21   -1    0    0  502  503 -0.00000000000E+00 -0.00000000000E+00 -0.65119854826E+03  0.65119854826E+03  0.00000000000E+00 0. -1.
         -6    2    1    2    0  503  0.11557232564E+03  0.99510938364E+02 -0.36779579215E+03  0.43414959992E+03  0.17306860224E+03 0.  0.
        -24    2    3    3    0    0  0.12076671864E+03  0.91857908182E+02 -0.38060487642E+03  0.41766587372E+03  0.81007619937E+02 0.  0.
          6    2    1    2  501    0 -0.11557232564E+03 -0.99510938364E+02 -0.19732570103E+03  0.30312600342E+03  0.17230366321E+03 0.  0.
         24    2    5    5    0    0 -0.13710413349E+03 -0.76861189773E+02 -0.10468552286E+03  0.20524381673E+03  0.80378975458E+02 0.  0.
          5    1    5    5  501    0  0.21531807850E+02 -0.22649748591E+02 -0.92640178166E+02  0.97882186690E+02  0.47000000000E+01 0. -1.
        -13    1    6    6    0    0 -0.54694159457E+02  0.11305088236E+02 -0.32456804785E+02  0.64596441664E+02  0.00000000000E+00 0.  1.
         14    1    6    6    0    0 -0.82409974034E+02 -0.88166278009E+02 -0.72228718078E+02  0.14064737507E+03  0.00000000000E+00 0. -1.
         -5    1    3    3    0  503 -0.51943930026E+01  0.76530301823E+01  0.12809084270E+02  0.16483726201E+02  0.47000000000E+01 0.  1.
         11    1    4    4    0    0  0.16528995189E+02  0.56118951925E+02 -0.95350178044E+02  0.11186688920E+03  0.00000000000E+00 0. -1.
        -12    1    4    4    0    0  0.10423772345E+03  0.35738956257E+02 -0.28525469837E+03  0.30579898451E+03  0.00000000000E+00 0.  1.
<mgrwt>
<rscale>  2 0.23053408E+03</rscale>
<asrwt>0</asrwt>
<pdfrwt beam="1">  1       21 0.13242623E-01 0.23067755E+03</pdfrwt>
<pdfrwt beam="2">  1       21 0.10018440E+00 0.23067755E+03</pdfrwt>
<totfact> 0.39408640E+04</totfact>
</mgrwt>
</event>
<event>
12    1  0.1019868E-001  0.1841012E+03  0.7546771E-02  0.1164154E+00
         21   -1    0    0  501  502  0.00000000000E+00  0.00000000000E+00  0.25706330110E+03  0.25706330110E+03  0.00000000000E+00 0. -1.
         21   -1    0    0  502  503 -0.00000000000E+00 -0.00000000000E+00 -0.14973091214E+03  0.14973091214E+03  0.00000000000E+00 0. -1.
         -6    2    1    2    0  503 -0.17267728908E+02  0.55344025079E+02 -0.18315239088E+02  0.18390283677E+03  0.17356171760E+03 0.  0.
        -24    2    3    3    0    0 -0.32930808324E+02  0.43191611681E+02 -0.75198520061E+02  0.12348089653E+03  0.81503134493E+02 0.  0.
          6    2    1    2  501    0  0.17267728908E+02 -0.55344025079E+02  0.12564762805E+03  0.22289137647E+03  0.17473438041E+03 0.  0.
         24    2    5    5    0    0  0.52089490189E+02  0.75101839061E+01  0.11268755704E+03  0.14972540018E+03  0.83363613747E+02 0.  0.
          5    1    5    5  501    0 -0.34821761281E+02 -0.62854208985E+02  0.12960071010E+02  0.73165976290E+02  0.47000000000E+01 0. -1.
        -13    1    6    6    0    0  0.62456770349E+00 -0.27732611038E+02  0.98248400563E+01  0.29428137588E+02  0.00000000000E+00 0.  1.
         14    1    6    6    0    0  0.51464922486E+02  0.35242794944E+02  0.10286271698E+03  0.12029726259E+03  0.00000000000E+00 0. -1.
         -5    1    3    3    0  503  0.15663079416E+02  0.12152413398E+02  0.56883280973E+02  0.60421940241E+02  0.47000000000E+01 0.  1.
         13    1    4    4    0    0  0.27082413972E+02  0.14511349148E+02 -0.30832136306E+02  0.43527658217E+02  0.00000000000E+00 0. -1.
        -14    1    4    4    0    0 -0.60013222296E+02  0.28680262533E+02 -0.44366383755E+02  0.79953238314E+02  0.00000000000E+00 0.  1.
<mgrwt>
<rscale>  2 0.18382238E+03</rscale>
<asrwt>0</asrwt>
<pdfrwt beam="1">  1       21 0.39548200E-01 0.18410117E+03</pdfrwt>
<pdfrwt beam="2">  1       21 0.23035525E-01 0.18410117E+03</pdfrwt>
<totfact> 0.10940804E+05</totfact>
</mgrwt>
</event>
<event>
12    1  0.1019868E-001  0.2200969E+03  0.7546771E-02  0.1134180E+00
         21   -1    0    0  501  502  0.00000000000E+00  0.00000000000E+00  0.37225941842E+03  0.37225941842E+03  0.00000000000E+00 0.  1.
         21   -1    0    0  502  503 -0.00000000000E+00 -0.00000000000E+00 -0.31448547690E+03  0.31448547690E+03  0.00000000000E+00 0. -1.
         -6    2    1    2    0  503  0.13189552592E+03 -0.33581150185E+02 -0.23478833053E+03  0.32182012670E+03  0.17296968056E+03 0.  0.
        -24    2    3    3    0    0  0.23828794018E+02 -0.50403806963E+02 -0.59190743256E+02  0.11489496395E+03  0.81172368898E+02 0.  0.
          6    2    1    2  501    0 -0.13189552592E+03  0.33581150185E+02  0.29256227205E+03  0.36492476862E+03  0.17045022826E+03 0.  0.
         24    2    5    5    0    0 -0.13752322925E+03  0.19427005430E+02  0.30488509893E+03  0.34477649522E+03  0.81399391771E+02 0.  0.
          5    1    5    5  501    0  0.56277033325E+01  0.14154144755E+02 -0.12322826879E+02  0.20148273396E+02  0.47000000000E+01 0. -1.
        -13    1    6    6    0    0 -0.26793694390E+02  0.34000473216E+02  0.13233947952E+03  0.13923962107E+03  0.00000000000E+00 0.  1.
         14    1    6    6    0    0 -0.11072953486E+03 -0.14573467786E+02  0.17254561942E+03  0.20553687414E+03  0.00000000000E+00 0. -1.
         -5    1    3    3    0  503  0.10806673190E+03  0.16822656779E+02 -0.17559758727E+03  0.20692516275E+03  0.47000000000E+01 0.  1.
         11    1    4    4    0    0  0.87687318924E+01 -0.97431504324E+01 -0.69170259904E+02  0.70401310318E+02  0.00000000000E+00 0. -1.
        -12    1    4    4    0    0  0.15060062125E+02 -0.40660656531E+02  0.99795166480E+01  0.44493653629E+02  0.00000000000E+00 0.  1.
<mgrwt>
<rscale>  2 0.21960160E+03</rscale>
<asrwt>0</asrwt>
<pdfrwt beam="1">  1       21 0.57270680E-01 0.22009687E+03</pdfrwt>
<pdfrwt beam="2">  1       21 0.48382381E-01 0.22009687E+03</pdfrwt>
<totfact> 0.11473412E+04</totfact>
</mgrwt>
</event>
<event>
12    1  0.1019868E-001  0.2502583E+03  0.7546771E-02  0.1113440E+00
         21   -1    0    0  501  502  0.00000000000E+00  0.00000000000E+00  0.80362748934E+03  0.80362748934E+03  0.00000000000E+00 0.  1.
         21   -1    0    0  502  503 -0.00000000000E+00 -0.00000000000E+00 -0.10594628269E+03  0.10594628269E+03  0.00000000000E+00 0. -1.
         -6    2    1    2    0  503 -0.17630395730E+03 -0.39630653080E+02  0.11159534272E+03  0.27229372649E+03  0.17040152271E+03 0.  0.
        -24    2    3    3    0    0 -0.19417517488E+03 -0.54505598915E+02  0.77009117732E+02  0.23035399126E+03  0.80359804777E+02 0.  0.
          6    2    1    2  501    0  0.17630395730E+03  0.39630653080E+02  0.58608586392E+03  0.63728004554E+03  0.17313446372E+03 0.  0.
         24    2    5    5    0    0  0.15208642173E+03  0.88351185690E+02  0.48840508206E+03  0.52537024047E+03  0.80858850436E+02 0.  0.
          5    1    5    5  501    0  0.24217535566E+02 -0.48720532611E+02  0.97680781861E+02  0.11190980507E+03  0.47000000000E+01 0. -1.
        -11    1    6    6    0    0  0.79764413567E+02  0.51262866908E+00  0.19631130691E+03  0.21189797942E+03  0.00000000000E+00 0.  1.
         12    1    6    6    0    0  0.72322008168E+02  0.87838557021E+02  0.29209377515E+03  0.31347226105E+03  0.00000000000E+00 0. -1.
         -5    1    3    3    0  503  0.17871217580E+02  0.14874945835E+02  0.34586224993E+02  0.41939735224E+02  0.47000000000E+01 0.  1.
         11    1    4    4    0    0 -0.10938382068E+03 -0.64938396719E+02  0.68558322590E+02  0.14450626004E+03  0.00000000000E+00 0. -1.
        -12    1    4    4    0    0 -0.84791354200E+02  0.10432797805E+02  0.84507951416E+01  0.85847731220E+02  0.00000000000E+00 0.  1.
<mgrwt>
<rscale>  2 0.24978625E+03</rscale>
<asrwt>0</asrwt>
<pdfrwt beam="1">  1       21 0.12363499E+00 0.25025830E+03</pdfrwt>
<pdfrwt beam="2">  1       21 0.16299429E-01 0.25025830E+03</pdfrwt>
<totfact> 0.15958173E+04</totfact>
</mgrwt>
</event>
<event>
12    1  0.1019868E-001  0.2259712E+03  0.7546771E-02  0.1130701E+00
         21   -1    0    0  501  502  0.00000000000E+00  0.00000000000E+00  0.23387517342E+03  0.23387517342E+03  0.00000000000E+00 0.  1.
         21   -1    0    0  502  503 -0.00000000000E+00 -0.00000000000E+00 -0.23431431894E+03  0.23431431894E+03  0.00000000000E+00 0. -1.
         -6    2    1    2    0  503 -0.34238145931E+02  0.13442943318E+03 -0.72327764765E+02  0.23105877072E+03  0.17003919204E+03 0.  0.
        -24    2    3    3    0    0 -0.46949799719E+02  0.14771993235E+03 -0.95076891172E+02  0.20143046901E+03  0.86655389348E+02 0.  0.
          6    2    1    2  501    0  0.34238145931E+02 -0.13442943318E+03  0.71888619243E+02  0.23713072163E+03  0.17838016263E+03 0.  0.
         24    2    5    5    0    0  0.91274604292E+02 -0.85175080539E+02  0.32463548635E+02  0.15195105839E+03  0.80308121775E+02 0.  0.
          5    1    5    5  501    0 -0.57036458361E+02 -0.49254352646E+02  0.39425070608E+02  0.85179663238E+02  0.47000000000E+01 0. -1.
        -13    1    6    6    0    0 -0.71186626424E-01 -0.38132795404E+02  0.31080016254E+02  0.49194334665E+02  0.00000000000E+00 0.  1.
         14    1    6    6    0    0  0.91345790918E+02 -0.47042285135E+02  0.13835323819E+01  0.10275672373E+03  0.00000000000E+00 0. -1.
         -5    1    3    3    0  503  0.12711653788E+02 -0.13290499166E+02  0.22749126407E+02  0.29628301713E+02  0.47000000000E+01 0.  1.
         13    1    4    4    0    0 -0.28695875878E+02  0.32305548366E+02 -0.69464798547E+02  0.81807456780E+02  0.00000000000E+00 0. -1.
        -14    1    4    4    0    0 -0.18253923841E+02  0.11541438398E+03 -0.25612092625E+02  0.11962301223E+03  0.00000000000E+00 0.  1.
<mgrwt>
<rscale>  2 0.22432214E+03</rscale>
<asrwt>0</asrwt>
<pdfrwt beam="1">  1       21 0.35980796E-01 0.22597125E+03</pdfrwt>
<pdfrwt beam="2">  1       21 0.36048357E-01 0.22597125E+03</pdfrwt>
<totfact> 0.54439582E+04</totfact>
</mgrwt>
</event>
<event>
12    1  0.1019868E-001  0.1988321E+03  0.7546771E-02  0.1150984E+00
         21   -1    0    0  501  502  0.00000000000E+00  0.00000000000E+00  0.43124020007E+03  0.43124020007E+03  0.00000000000E+00 0.  1.
         21   -1    0    0  502  503 -0.00000000000E+00 -0.00000000000E+00 -0.23663337034E+03  0.23663337034E+03  0.00000000000E+00 0. -1.
         -6    2    1    2    0  503  0.22232598991E+02  0.94900692585E+02 -0.16444452288E+03  0.25802363273E+03  0.17330252171E+03 0.  0.
        -24    2    3    3    0    0  0.23295658746E+02  0.61842319418E+02 -0.15351363927E+02  0.10523342958E+03  0.80444080821E+02 0.  0.
          6    2    1    2  501    0 -0.22232598991E+02 -0.94900692585E+02  0.35905135261E+03  0.40984993768E+03  0.17192634379E+03 0.  0.
         24    2    5    5    0    0 -0.11757378736E+02 -0.10398157720E+03  0.36884020162E+03  0.39224016000E+03  0.82818140717E+02 0.  0.
          5    1    5    5  501    0 -0.10475220255E+02  0.90808846161E+01 -0.97888490122E+01  0.17609777675E+02  0.47000000000E+01 0. -1.
        -13    1    6    6    0    0 -0.28559866634E+02 -0.63542742035E+02  0.11352192277E+03  0.13319374233E+03  0.00000000000E+00 0.  1.
         14    1    6    6    0    0  0.16802487897E+02 -0.40438835166E+02  0.25531827886E+03  0.25904641767E+03  0.00000000000E+00 0. -1.
         -5    1    3    3    0  503 -0.10630597549E+01  0.33058373167E+02 -0.14909315896E+03  0.15279020316E+03  0.47000000000E+01 0.  1.
         11    1    4    4    0    0 -0.38163654879E+00 -0.19196263570E+02  0.10484491507E+01  0.19228661606E+02  0.00000000000E+00 0. -1.
        -12    1    4    4    0    0  0.23677295295E+02  0.81038582988E+02 -0.16399813077E+02  0.86004767974E+02  0.00000000000E+00 0.  1.
<mgrwt>
<rscale>  2 0.19853181E+03</rscale>
<asrwt>0</asrwt>
<pdfrwt beam="1">  1       21 0.66344646E-01 0.19883207E+03</pdfrwt>
<pdfrwt beam="2">  1       21 0.36405134E-01 0.19883207E+03</pdfrwt>
<totfact> 0.15107010E+04</totfact>
</mgrwt>
</event>
<event>
12    1  0.1019868E-001  0.1984496E+03  0.7546771E-02  0.1151134E+00
         21   -1    0    0  503  502  0.00000000000E+00  0.00000000000E+00  0.41507154942E+02  0.41507154942E+02  0.00000000000E+00 0. -1.
         21   -1    0    0  501  503 -0.00000000000E+00 -0.00000000000E+00 -0.12000719154E+04  0.12000719154E+04  0.00000000000E+00 0. -1.
          6    2    1    2  501    0 -0.14420289523E+01 -0.95835376101E+02 -0.86391827419E+03  0.88633436755E+03  0.17334165066E+03 0.  0.
         24    2    3    3    0    0 -0.50634171872E+02 -0.38036069438E+02 -0.67555989894E+03  0.68320486624E+03  0.79857061390E+02 0.  0.
         -6    2    1    2    0  502  0.14420289523E+01  0.95835376101E+02 -0.29464648628E+03  0.35524470280E+03  0.17376923846E+03 0.  0.
        -24    2    5    5    0    0 -0.28238473489E+02  0.82475472298E+02 -0.29966994885E+03  0.32197693415E+03  0.79167246832E+02 0.  0.
          5    1    3    3  501    0  0.49192142920E+02 -0.57799306663E+02 -0.18835837525E+03  0.20312950131E+03  0.47000000000E+01 0. -1.
        -11    1    4    4    0    0 -0.61685038160E+02 -0.33213490345E+01 -0.33019778228E+03  0.33592655554E+03  0.00000000000E+00 0.  1.
         12    1    4    4    0    0  0.11050866288E+02 -0.34714720404E+02 -0.34536211666E+03  0.34727831070E+03  0.00000000000E+00 0. -1.
         -5    1    5    5    0  502  0.29680502441E+02  0.13359903803E+02  0.50234625675E+01  0.33267768650E+02  0.47000000000E+01 0.  1.
         11    1    6    6    0    0 -0.94151531657E+01  0.91396437371E+02 -0.19917579168E+03  0.21934664316E+03  0.00000000000E+00 0. -1.
        -12    1    6    6    0    0 -0.18823320323E+02 -0.89209650725E+01 -0.10049415716E+03  0.10263029100E+03  0.00000000000E+00 0.  1.
<mgrwt>
<rscale>  2 0.19835597E+03</rscale>
<asrwt>0</asrwt>
<pdfrwt beam="1">  1       21 0.63857176E-02 0.19844961E+03</pdfrwt>
<pdfrwt beam="2">  1       21 0.18462641E+00 0.19844961E+03</pdfrwt>
<totfact> 0.29885918E+04</totfact>
</mgrwt>
</event>
<event>
12    1  0.1019868E-001  0.2281871E+03  0.7546771E-02  0.1127924E+00
         21   -1    0    0  501  502  0.00000000000E+00  0.00000000000E+00  0.85288913080E+03  0.85288913080E+03  0.00000000000E+00 0. -1.
         21   -1    0    0  502  503 -0.00000000000E+00 -0.00000000000E+00 -0.65932031105E+02  0.65932031105E+02  0.00000000000E+00 0.  1.
         -6    2    1    2    0  503  0.74819694831E+02 -0.12870579969E+03  0.26843389566E+03  0.35230932745E+03  0.17292176341E+03 0.  0.
        -24    2    3    3    0    0  0.63689829654E+02 -0.15046533176E+02  0.77447091473E+02  0.12973270663E+03  0.80930406087E+02 0.  0.
          6    2    1    2  501    0 -0.74819694831E+02  0.12870579969E+03  0.51852320403E+03  0.56651183446E+03  0.17293402166E+03 0.  0.
         24    2    5    5    0    0  0.11086901338E+02  0.85944733277E+02  0.18693107702E+03  0.22128164927E+03  0.80702690093E+02 0.  0.
          5    1    5    5  501    0 -0.85906596169E+02  0.42761066410E+02  0.33159212701E+03  0.34523018518E+03  0.47000000000E+01 0. -1.
        -13    1    6    6    0    0 -0.76072295067E+01  0.17876849645E+02 -0.20613303177E+01  0.19537163988E+02  0.00000000000E+00 0.  1.
         14    1    6    6    0    0  0.18694130845E+02  0.68067883632E+02  0.18899240734E+03  0.20174448529E+03  0.00000000000E+00 0. -1.
         -5    1    3    3    0  503  0.11129865177E+02 -0.11365926651E+03  0.19098680419E+03  0.22257662083E+03  0.47000000000E+01 0.  1.
         11    1    4    4    0    0  0.72043917533E+01 -0.39727990182E+02  0.43542163811E+02  0.59381280668E+02  0.00000000000E+00 0. -1.
        -12    1    4    4    0    0  0.56485437901E+02  0.24681457006E+02  0.33904927662E+02  0.70351425960E+02  0.00000000000E+00 0.  1.
<mgrwt>
<rscale>  2 0.22818476E+03</rscale>
<asrwt>0</asrwt>
<pdfrwt beam="1">  1       21 0.13121370E+00 0.22818708E+03</pdfrwt>
<pdfrwt beam="2">  1       21 0.10143390E-01 0.22818708E+03</pdfrwt>
<totfact> 0.32745081E+04</totfact>
</mgrwt>
</event>
<event>
12    1  0.1019868E-001  0.2629809E+03  0.7546771E-02  0.1105404E+00
         21   -1    0    0  501  502  0.00000000000E+00  0.00000000000E+00  0.93993027423E+03  0.93993027423E+03  0.00000000000E+00 0. -1.
         21   -1    0    0  502  503 -0.00000000000E+00 -0.00000000000E+00 -0.24812655133E+03  0.24812655133E+03  0.00000000000E+00 0.  1.
         -6    2    1    2    0  503  0.48792219439E+02  0.19212994855E+03 -0.15248229737E+03  0.30376171861E+03  0.17241152188E+03 0.  0.
        -24    2    3    3    0    0  0.60523595339E+02  0.18719259113E+03 -0.75456706178E+02  0.22555024646E+03  0.80467554974E+02 0.  0.
          6    2    1    2  501    0 -0.48792219439E+02 -0.19212994855E+03  0.84428602028E+03  0.88429510695E+03  0.17281306182E+03 0.  0.
         24    2    5    5    0    0  0.26786234237E+02 -0.42388954928E+02  0.29866087301E+03  0.31345068054E+03  0.80862143314E+02 0.  0.
          5    1    5    5  501    0 -0.75578453676E+02 -0.14974099362E+03  0.54562514727E+03  0.57084442641E+03  0.47000000000E+01 0. -1.
        -11    1    6    6    0    0  0.27111711820E+02 -0.45530968181E+01  0.24913170559E+02  0.37100426895E+02  0.00000000000E+00 0.  1.
         12    1    6    6    0    0 -0.32547758340E+00 -0.37835858110E+02  0.27374770245E+03  0.27635025364E+03  0.00000000000E+00 0. -1.
         -5    1    3    3    0  503 -0.11731375900E+02  0.49373574229E+01 -0.77025591191E+02  0.78211472158E+02  0.47000000000E+01 0.  1.
         13    1    4    4    0    0 -0.18315381394E+02  0.39379960651E+02 -0.46558864060E+01  0.43679649434E+02  0.00000000000E+00 0. -1.
        -14    1    4    4    0    0  0.78838976733E+02  0.14781263048E+03 -0.70800819772E+02  0.18187059702E+03  0.00000000000E+00 0.  1.
<mgrwt>
<rscale>  2 0.26291495E+03</rscale>
<asrwt>0</asrwt>
<pdfrwt beam="1">  1       21 0.14460466E+00 0.26298090E+03</pdfrwt>
<pdfrwt beam="2">  1       21 0.38173316E-01 0.26298090E+03</pdfrwt>
<totfact> 0.20548083E+03</totfact>
</mgrwt>
</event>
<event>
12    1  0.1019868E-001  0.2173444E+03  0.7546771E-02  0.1136468E+00
         21   -1    0    0  503  502  0.00000000000E+00  0.00000000000E+00  0.78146961283E+03  0.78146961283E+03  0.00000000000E+00 0. -1.
         21   -1    0    0  501  503 -0.00000000000E+00 -0.00000000000E+00 -0.72048573678E+02  0.72048573678E+02  0.00000000000E+00 0. -1.
          6    2    1    2  501    0 -0.11940596217E+03 -0.42136394280E+02  0.17517467825E+03  0.27675328156E+03  0.17283793400E+03 0.  0.
         24    2    3    3    0    0 -0.25770924407E+02  0.32094876158E+02  0.49839609367E+02  0.10352288209E+03  0.80862715970E+02 0.  0.
         -6    2    1    2    0  502  0.11940596217E+03  0.42136394280E+02  0.53424636090E+03  0.57676490495E+03  0.17665028142E+03 0.  0.
        -24    2    5    5    0    0 -0.10511397035E+01  0.48559370926E+02  0.19373906851E+03  0.21549149853E+03  0.80886598830E+02 0.  0.
          5    1    3    3  501    0 -0.93635037759E+02 -0.74231270438E+02  0.12533506889E+03  0.17323039947E+03  0.47000000000E+01 0. -1.
        -11    1    4    4    0    0  0.15061522080E+00  0.50632610851E+02  0.50686449900E+02  0.71643563353E+02  0.00000000000E+00 0.  1.
         12    1    4    4    0    0 -0.25921539628E+02 -0.18537734693E+02 -0.84684053307E+00  0.31879318737E+02  0.00000000000E+00 0. -1.
         -5    1    5    5    0  502  0.12045710187E+03 -0.64229766466E+01  0.34050729239E+03  0.36127340642E+03  0.47000000000E+01 0.  1.
         11    1    6    6    0    0  0.37484362167E+02  0.26646280172E+02  0.12964509482E+03  0.13756072210E+03  0.00000000000E+00 0. -1.
        -12    1    6    6    0    0 -0.38535501870E+02  0.21913090754E+02  0.64093973690E+02  0.77930776425E+02  0.00000000000E+00 0.  1.
<mgrwt>
<rscale>  2 0.21656848E+03</rscale>
<asrwt>0</asrwt>
<pdfrwt beam="1">  1       21 0.12022609E+00 0.21734438E+03</pdfrwt>
<pdfrwt beam="2">  1       21 0.11084396E-01 0.21734438E+03</pdfrwt>
<totfact> 0.35050509E+04</totfact>
</mgrwt>
</event>
<event>
12    1  0.1019868E-001  0.2013550E+03  0.7546771E-02  0.1150140E+00
         21   -1    0    0  503  502  0.00000000000E+00  0.00000000000E+00  0.19134665753E+03  0.19134665753E+03  0.00000000000E+00 0. -1.
         21   -1    0    0  501  503 -0.00000000000E+00 -0.00000000000E+00 -0.21098840083E+03  0.21098840083E+03  0.00000000000E+00 0. -1.
          6    2    1    2  501    0  0.15191852832E+02 -0.10058924153E+03  0.26010161114E+02  0.19586973964E+03  0.16534641974E+03 0.  0.
         24    2    3    3    0    0 -0.24855587315E+02 -0.15894472669E+02  0.50098420072E+02  0.99022769868E+02  0.80157487338E+02 0.  0.
         -6    2    1    2    0  502 -0.15191852832E+02  0.10058924153E+03 -0.45651904418E+02  0.20646531872E+03  0.17376663533E+03 0.  0.
        -24    2    5    5    0    0 -0.10902799924E+02  0.31048004347E+02  0.41124681533E+02  0.95080196232E+02  0.79159046636E+02 0.  0.
          5    1    3    3  501    0  0.40047440146E+02 -0.84694768859E+02 -0.24088258958E+02  0.96846969771E+02  0.47000000000E+01 0. -1.
        -11    1    4    4    0    0  0.15434319073E+02 -0.11142613418E+02  0.54959986824E+02  0.58163357802E+02  0.00000000000E+00 0.  1.
         12    1    4    4    0    0 -0.40289906388E+02 -0.47518592511E+01 -0.48615667518E+01  0.40859412066E+02  0.00000000000E+00 0. -1.
         -5    1    5    5    0  502 -0.42890529075E+01  0.69541237181E+02 -0.86776585950E+02  0.11138512249E+03  0.47000000000E+01 0.  1.
         11    1    6    6    0    0  0.14737145228E+02  0.46241553444E+02  0.58248878050E+01  0.48881428297E+02  0.00000000000E+00 0. -1.
        -12    1    6    6    0    0 -0.25639945152E+02 -0.15193549097E+02  0.35299793727E+02  0.46198767936E+02  0.00000000000E+00 0.  1.
<mgrwt>
<rscale>  2 0.19952522E+03</rscale>
<asrwt>0</asrwt>
<pdfrwt beam="1">  1       21 0.29437947E-01 0.20135499E+03</pdfrwt>
<pdfrwt beam="2">  1       21 0.32459754E-01 0.20135499E+03</pdfrwt>
<totfact> 0.10061685E+05</totfact>
</mgrwt>
</event>
<event>
11    1  0.1019868E-001  0.2260849E+03  0.7546771E-02  0.1129560E+00
         21   -1    0    0  501  502  0.00000000000E+00  0.00000000000E+00  0.67182440358E+03  0.67182440358E+03  0.00000000000E+00 0.  1.
         21   -1    0    0  502  503 -0.00000000000E+00 -0.00000000000E+00 -0.76861056795E+02  0.76861056795E+02  0.00000000000E+00 0.  1.
         -6    2    1    2    0  503  0.12757871429E+03  0.69126661615E+02  0.25369307442E+03  0.33932037605E+03  0.17240451823E+03 0.  0.
        -24    2    3    3    0    0  0.30619755904E+02  0.26543918109E+02  0.34740821237E+02  0.96058153685E+02  0.79862977586E+02 0.  0.
          6    2    1    2  501    0 -0.12757871429E+03 -0.69126661615E+02  0.34127027237E+03  0.40936508433E+03  0.17337690094E+03 0.  0.
          5    1    5    5  501    0 -0.12799834313E+03 -0.21377808710E+02  0.33087500993E+03  0.35544471968E+03  0.47000000000E+01 0. -1.
        -13    1    5    5    0    0 -0.52863251353E+01 -0.51447619575E+00  0.60387387628E+00  0.53455198859E+01  0.00000000000E+00 0.  1.
         14    1    5    5    0    0  0.57059539727E+01 -0.47234376710E+02  0.97913885588E+01  0.48574844764E+02  0.00000000000E+00 0. -1.
         -5    1    3    3    0  503  0.96958958389E+02  0.42582743506E+02  0.21895225318E+03  0.24326222237E+03  0.47000000000E+01 0.  1.
         11    1    4    4    0    0 -0.18453666261E+02 -0.11499843488E+02  0.25121443618E+02  0.33224556102E+02  0.00000000000E+00 0. -1.
        -12    1    4    4    0    0  0.49073422165E+02  0.38043761597E+02  0.96193776190E+01  0.62833597583E+02  0.00000000000E+00 0.  1.
<mgrwt>
<rscale>  2 0.22589844E+03</rscale>
<asrwt>0</asrwt>
<pdfrwt beam="1">  1       21 0.10335760E+00 0.22608488E+03</pdfrwt>
<pdfrwt beam="2">  1       21 0.11824778E-01 0.22608488E+03</pdfrwt>
<totfact> 0.44943663E+04</totfact>
</mgrwt>
</event>
<event>
12    1  0.1019868E-001  0.1810707E+03  0.7546771E-02  0.1167054E+00
         21   -1    0    0  501  502  0.00000000000E+00  0.00000000000E+00  0.48358454159E+02  0.48358454159E+02  0.00000000000E+00 0.  1.
         21   -1    0    0  502  503 -0.00000000000E+00 -0.00000000000E+00 -0.13670016849E+04  0.13670016849E+04  0.00000000000E+00 0.  1.
         -6    2    1    2    0  503 -0.47491095675E+02 -0.84245737969E+00 -0.11643939798E+04  0.11783887004E+04  0.17472972024E+03 0.  0.
        -24    2    3    3    0    0 -0.35152458881E+01  0.54104139393E+02 -0.88185759748E+03  0.88718104048E+03  0.80484542017E+02 0.  0.
          6    2    1    2  501    0  0.47491095675E+02  0.84245737969E+00 -0.15424925089E+03  0.23697143861E+03  0.17351229758E+03 0.  0.
         24    2    5    5    0    0  0.98377463622E+02 -0.76014147086E+01 -0.71000496830E+02  0.13892468205E+03  0.67253920918E+02 0.  0.
          5    1    5    5  501    0 -0.50886367947E+02  0.84438720883E+01 -0.83248754057E+02  0.98046756553E+02  0.47000000000E+01 0. -1.
        -13    1    6    6    0    0  0.84522442486E+02  0.22962294229E+00 -0.21906447342E+02  0.87315453648E+02  0.00000000000E+00 0.  1.
         14    1    6    6    0    0  0.13855021136E+02 -0.78310376509E+01 -0.49094049488E+02  0.51609228404E+02  0.00000000000E+00 0. -1.
         -5    1    3    3    0  503 -0.43975849787E+02 -0.54946596772E+02 -0.28253638233E+03  0.29120765993E+03  0.47000000000E+01 0.  1.
         11    1    4    4    0    0  0.35514968912E+01  0.67763752067E+02 -0.45360791608E+03  0.45865529623E+03  0.00000000000E+00 0. -1.
        -12    1    4    4    0    0 -0.70667427794E+01 -0.13659612674E+02 -0.42824968140E+03  0.42852574425E+03  0.00000000000E+00 0.  1.
<mgrwt>
<rscale>  2 0.18077633E+03</rscale>
<asrwt>0</asrwt>
<pdfrwt beam="1">  1       21 0.74397620E-02 0.18107067E+03</pdfrwt>
<pdfrwt beam="2">  1       21 0.21030796E+00 0.18107067E+03</pdfrwt>
<totfact> 0.15877417E+04</totfact>
</mgrwt>
</event>
<event>
12    1  0.1019868E-001  0.1840343E+03  0.7546771E-02  0.1166095E+00
         21   -1    0    0  503  502  0.00000000000E+00  0.00000000000E+00  0.84374331181E+03  0.84374331181E+03  0.00000000000E+00 0. -1.
         21   -1    0    0  501  503 -0.00000000000E+00 -0.00000000000E+00 -0.39324064907E+02  0.39324064907E+02  0.00000000000E+00 0. -1.
          6    2    1    2  501    0 -0.27233799376E+02 -0.53891347316E+00  0.48549314538E+03  0.51920343366E+03  0.18200725549E+03 0.  0.
         24    2    3    3    0    0 -0.83305311270E+02 -0.30811960754E+02  0.29204380519E+03  0.31547516105E+03  0.79660788840E+02 0.  0.
         -6    2    1    2    0  502  0.27233799376E+02  0.53891347316E+00  0.31892610152E+03  0.36386394306E+03  0.17303508480E+03 0.  0.
        -24    2    5    5    0    0  0.54816257769E+02 -0.52956160216E+01  0.32041360612E+03  0.33524338374E+03  0.81794753461E+02 0.  0.
          5    1    3    3  501    0  0.56071511895E+02  0.30273047281E+02  0.19344934019E+03  0.20372827260E+03  0.47000000000E+01 0. -1.
        -13    1    4    4    0    0 -0.38301915468E+02  0.52849650767E+00  0.32603872748E+02  0.50302371268E+02  0.00000000000E+00 0.  1.
         14    1    4    4    0    0 -0.45003395802E+02 -0.31340457261E+02  0.25943993244E+03  0.26517278978E+03  0.00000000000E+00 0. -1.
         -5    1    5    5    0  502 -0.27582458394E+02  0.58345294948E+01 -0.14875046013E+01  0.28620559313E+02  0.47000000000E+01 0.  1.
         11    1    6    6    0    0 -0.94868764652E+00  0.27237810313E+02  0.16035361945E+03  0.16265325570E+03  0.00000000000E+00 0. -1.
        -12    1    6    6    0    0  0.55764945416E+02 -0.32533426335E+02  0.16005998667E+03  0.17259012804E+03  0.00000000000E+00 0.  1.
<mgrwt>
<rscale>  2 0.18177596E+03</rscale>
<asrwt>0</asrwt>
<pdfrwt beam="1">  1       21 0.12980665E+00 0.18403427E+03</pdfrwt>
<pdfrwt beam="2">  1       21 0.60498568E-02 0.18403427E+03</pdfrwt>
<totfact> 0.84686140E+04</totfact>
</mgrwt>
</event>
<event>
12    1  0.1019868E-001  0.2640756E+03  0.7546771E-02  0.1105327E+00
         21   -1    0    0  503  502  0.00000000000E+00  0.00000000000E+00  0.57342913645E+03  0.57342913645E+03  0.00000000000E+00 0.  1.
         21   -1    0    0  501  503 -0.00000000000E+00 -0.00000000000E+00 -0.11973792859E+03  0.11973792859E+03  0.00000000000E+00 0. -1.
          6    2    1    2  501    0  0.16886641864E+03  0.90446716899E+02  0.22662863313E+03  0.34798917336E+03  0.18176757543E+03 0.  0.
         24    2    3    3    0    0  0.16277563638E+02  0.20116984938E+02  0.32226600269E+02  0.90999153611E+02  0.81071820210E+02 0.  0.
         -6    2    1    2    0  502 -0.16886641864E+03 -0.90446716899E+02  0.22706257472E+03  0.34517789168E+03  0.17576657281E+03 0.  0.
        -24    2    5    5    0    0 -0.32892686059E+02 -0.11113219399E+02  0.12366707275E+03  0.15677571651E+03  0.89886862017E+02 0.  0.
          5    1    3    3  501    0  0.15258885501E+03  0.70329731961E+02  0.19440203286E+03  0.25699001975E+03  0.47000000000E+01 0. -1.
        -11    1    4    4    0    0 -0.21123103745E+02  0.30291008653E+02  0.36600293893E+02  0.51993386407E+02  0.00000000000E+00 0.  1.
         12    1    4    4    0    0  0.37400667383E+02 -0.10174023715E+02 -0.43736936240E+01  0.39005767204E+02  0.00000000000E+00 0. -1.
         -5    1    5    5    0  502 -0.13597373258E+03 -0.79333497500E+02  0.10339550197E+03  0.18840217516E+03  0.47000000000E+01 0.  1.
         13    1    6    6    0    0 -0.93817256496E+01 -0.24727555574E+02 -0.35547842014E+01  0.26685300664E+02  0.00000000000E+00 0. -1.
        -14    1    6    6    0    0 -0.23510960409E+02  0.13614336175E+02  0.12722185696E+03  0.13009041585E+03  0.00000000000E+00 0.  1.
<mgrwt>
<rscale>  2 0.26304607E+03</rscale>
<asrwt>0</asrwt>
<pdfrwt beam="1">  1       21 0.88219866E-01 0.26407561E+03</pdfrwt>
<pdfrwt beam="2">  1       21 0.18421220E-01 0.26407561E+03</pdfrwt>
<totfact> 0.28548421E+04</totfact>
</mgrwt>
</event>
<event>
12    1  0.1019868E-001  0.1891177E+03  0.7546771E-02  0.1159370E+00
         21   -1    0    0  503  502  0.00000000000E+00  0.00000000000E+00  0.19807395950E+04  0.19807395950E+04  0.00000000000E+00 0.  1.
         21   -1    0    0  501  503 -0.00000000000E+00 -0.00000000000E+00 -0.22570106843E+03  0.22570106843E+03  0.00000000000E+00 0.  1.
          6    2    1    2  501    0  0.55852481869E+02  0.50512701897E+02 -0.18086016159E+03  0.26132646277E+03  0.17294533619E+03 0.  0.
         24    2    3    3    0    0 -0.58981535987E+01  0.19500352513E+02 -0.17274218183E+03  0.19159197782E+03  0.80327906838E+02 0.  0.
         -6    2    1    2    0  502 -0.55852481869E+02 -0.50512701897E+02  0.19358986882E+04  0.19451142007E+04  0.17347763548E+03 0.  0.
        -24    2    5    5    0    0  0.36980916263E+02 -0.23612155649E+02  0.89491388819E+03  0.89964152145E+03  0.80986898873E+02 0.  0.
          5    1    3    3  501    0  0.61750635468E+02  0.31012349384E+02 -0.81179797520E+01  0.69734484943E+02  0.47000000000E+01 0. -1.
        -13    1    4    4    0    0 -0.32363803467E+02  0.14889750659E+02 -0.15582379031E+03  0.15984421815E+03  0.00000000000E+00 0.  1.
         14    1    4    4    0    0  0.26465649868E+02  0.46106018541E+01 -0.16918391524E+02  0.31747759672E+02  0.00000000000E+00 0. -1.
         -5    1    5    5    0  502 -0.92833398132E+02 -0.26900546248E+02  0.10409848000E+04  0.10454726792E+04  0.47000000000E+01 0.  1.
         11    1    6    6    0    0  0.35735583151E+02  0.13867459866E+02  0.70609946457E+03  0.70713916043E+03  0.00000000000E+00 0. -1.
        -12    1    6    6    0    0  0.12453331116E+01 -0.37479615515E+02  0.18881442362E+03  0.19250236102E+03  0.00000000000E+00 0.  1.
<mgrwt>
<rscale>  2 0.18899559E+03</rscale>
<asrwt>0</asrwt>
<pdfrwt beam="1">  1       21 0.30472916E+00 0.18911775E+03</pdfrwt>
<pdfrwt beam="2">  1       21 0.34723243E-01 0.18911775E+03</pdfrwt>
<totfact> 0.25772732E+02</totfact>
</mgrwt>
</event>
<event>
12    1  0.1019868E-001  0.2356630E+03  0.7546771E-02  0.1122810E+00
         21   -1    0    0  501  502  0.00000000000E+00  0.00000000000E+00  0.49276297401E+03  0.49276297401E+03  0.00000000000E+00 0.  1.
         21   -1    0    0  502  503 -0.00000000000E+00 -0.00000000000E+00 -0.11593284797E+03  0.11593284797E+03  0.00000000000E+00 0. -1.
         -6    2    1    2    0  503  0.58815126482E+02 -0.14879869990E+03  0.24101334202E+03  0.33669719939E+03  0.17227100990E+03 0.  0.
        -24    2    3    3    0    0  0.85333290045E+02 -0.13835367482E+03  0.13281217838E+03  0.22470660443E+03  0.80190233950E+02 0.  0.
          6    2    1    2  501    0 -0.58815126482E+02  0.14879869990E+03  0.13581678402E+03  0.27199862259E+03  0.17302248314E+03 0.  0.
         24    2    5    5    0    0  0.20684504212E+02  0.63283360162E+02  0.18977409799E+02  0.10675155308E+03  0.81259581684E+02 0.  0.
          5    1    5    5  501    0 -0.79499630695E+02  0.85515339739E+02  0.11683937422E+03  0.16524706950E+03  0.47000000000E+01 0. -1.
        -13    1    6    6    0    0 -0.10037703153E+02  0.74419270437E+01  0.38191380551E+02  0.40183570164E+02  0.00000000000E+00 0.  1.
         14    1    6    6    0    0  0.30722207365E+02  0.55841433119E+02 -0.19213970752E+02  0.66567982921E+02  0.00000000000E+00 0. -1.
         -5    1    3    3    0  503 -0.26518163563E+02 -0.10445025081E+02  0.10820116364E+03  0.11199059497E+03  0.47000000000E+01 0.  1.
         11    1    4    4    0    0  0.70080443563E+02 -0.64707774504E+02  0.35632666688E+02  0.10182362980E+03  0.00000000000E+00 0. -1.
        -12    1    4    4    0    0  0.15252846482E+02 -0.73645900316E+02  0.97179511696E+02  0.12288297462E+03  0.00000000000E+00 0.  1.
<mgrwt>
<rscale>  2 0.23552509E+03</rscale>
<asrwt>0</asrwt>
<pdfrwt beam="1">  1       21 0.75809687E-01 0.23566300E+03</pdfrwt>
<pdfrwt beam="2">  1       21 0.17835823E-01 0.23566300E+03</pdfrwt>
<totfact> 0.43412390E+04</totfact>
</mgrwt>
</event>
<event>
12    1  0.1019868E-001  0.1760040E+03  0.7546771E-02  0.1171815E+00
         21   -1    0    0  503  502  0.00000000000E+00  0.00000000000E+00  0.45161475722E+03  0.45161475722E+03  0.00000000000E+00 0. -1.
         21   -1    0    0  501  503 -0.00000000000E+00 -0.00000000000E+00 -0.95167844298E+02  0.95167844298E+02  0.00000000000E+00 0. -1.
          6    2    1    2  501    0 -0.26320785829E+02 -0.16223198689E+02  0.33253431587E+02  0.17877249800E+03  0.17290991697E+03 0.  0.
         24    2    3    3    0    0 -0.30379926772E+02 -0.20554414376E+02  0.87145463645E+02  0.12435120462E+03  0.80767978521E+02 0.  0.
         -6    2    1    2    0  502  0.26320785829E+02  0.16223198689E+02  0.32319348133E+03  0.36801010352E+03  0.17326694425E+03 0.  0.
        -24    2    5    5    0    0  0.27240527783E+02  0.56432738181E+02  0.10912071729E+03  0.15014112615E+03  0.81904374290E+02 0.  0.
          5    1    3    3  501    0  0.40591409437E+01  0.43312156864E+01 -0.53892032058E+02  0.54421293386E+02  0.47000000000E+01 0. -1.
        -11    1    4    4    0    0  0.27812451039E+02 -0.47751847023E+01  0.31680044548E+02  0.42425935986E+02  0.00000000000E+00 0.  1.
         12    1    4    4    0    0 -0.58192377811E+02 -0.15779229673E+02  0.55465419097E+02  0.81925268629E+02  0.00000000000E+00 0. -1.
         -5    1    5    5    0  502 -0.91974195459E+00 -0.40209539492E+02  0.21407276405E+03  0.21786897737E+03  0.47000000000E+01 0.  1.
         11    1    6    6    0    0  0.56029444409E+02  0.34529182567E+02  0.80719269988E+02  0.10414971741E+03  0.00000000000E+00 0. -1.
        -12    1    6    6    0    0 -0.28788916626E+02  0.21903555615E+02  0.28401447300E+02  0.45991408739E+02  0.00000000000E+00 0.  1.
<mgrwt>
<rscale>  2 0.17591607E+03</rscale>
<asrwt>0</asrwt>
<pdfrwt beam="1">  1       21 0.69479192E-01 0.17600401E+03</pdfrwt>
<pdfrwt beam="2">  1       21 0.14641207E-01 0.17600401E+03</pdfrwt>
<totfact> 0.77766129E+04</totfact>
</mgrwt>
</event>
<event>
12    1  0.1019868E-001  0.2799074E+03  0.7546771E-02  0.1095892E+00
         21   -1    0    0  501  502  0.00000000000E+00  0.00000000000E+00  0.42820236355E+02  0.42820236355E+02  0.00000000000E+00 0.  1.
         21   -1    0    0  502  503 -0.00000000000E+00 -0.00000000000E+00 -0.25491957362E+04  0.25491957362E+04  0.00000000000E+00 0.  1.
         -6    2    1    2    0  503 -0.10036994586E+03 -0.19773913767E+03 -0.19469817425E+04  0.19669992529E+04  0.17080182294E+03 0.  0.
        -24    2    3    3    0    0 -0.27643844632E+02 -0.56324269187E+02 -0.42902451381E+03  0.44072814693E+03  0.79010509413E+02 0.  0.
          6    2    1    2  501    0  0.10036994586E+03  0.19773913767E+03 -0.55939375741E+03  0.62501671971E+03  0.16896636200E+03 0.  0.
         24    2    5    5    0    0  0.10183282221E+03  0.15008070312E+03 -0.53613319516E+03  0.57175688356E+03  0.81073977395E+02 0.  0.
          5    1    5    5  501    0 -0.14628763430E+01  0.47658434553E+02 -0.23260562248E+02  0.53259836155E+02  0.47000000000E+01 0. -1.
        -11    1    6    6    0    0  0.32149695665E+02  0.83276231138E+02 -0.15776522986E+03  0.18126886483E+03  0.00000000000E+00 0.  1.
         12    1    6    6    0    0  0.69683126541E+02  0.66804471978E+02 -0.37836796530E+03  0.39048801872E+03  0.00000000000E+00 0. -1.
         -5    1    3    3    0  503 -0.72726101232E+02 -0.14141486848E+03 -0.15179572287E+04  0.15262711060E+04  0.47000000000E+01 0.  1.
         13    1    4    4    0    0  0.10831210497E+02 -0.50107287842E+02 -0.33570965970E+03  0.33960128244E+03  0.00000000000E+00 0. -1.
        -14    1    4    4    0    0 -0.38475055129E+02 -0.62169813452E+01 -0.93314854108E+02  0.10112686449E+03  0.00000000000E+00 0.  1.
<mgrwt>
<rscale>  2 0.27962793E+03</rscale>
<asrwt>0</asrwt>
<pdfrwt beam="1">  1       21 0.65877279E-02 0.27990740E+03</pdfrwt>
<pdfrwt beam="2">  1       21 0.39218401E+00 0.27990740E+03</pdfrwt>
<totfact> 0.14702386E+03</totfact>
</mgrwt>
</event>
<event>
12    1  0.1019868E-001  0.2225408E+03  0.7546771E-02  0.1132068E+00
         21   -1    0    0  503  502  0.00000000000E+00  0.00000000000E+00  0.21687834543E+03  0.21687834543E+03  0.00000000000E+00 0.  1.
         21   -1    0    0  501  503 -0.00000000000E+00 -0.00000000000E+00 -0.33443893022E+03  0.33443893022E+03  0.00000000000E+00 0.  1.
          6    2    1    2  501    0  0.13930269740E+03  0.10786412359E+02 -0.21433468736E+03  0.30897208664E+03  0.17321317480E+03 0.  0.
         24    2    3    3    0    0  0.16424944852E+03  0.21744361998E+02 -0.21238724975E+03  0.28125386944E+03  0.80899299136E+02 0.  0.
         -6    2    1    2    0  502 -0.13930269740E+03 -0.10786412359E+02  0.96774102565E+02  0.24234518901E+03  0.17275524743E+03 0.  0.
        -24    2    5    5    0    0 -0.57305621884E+02  0.48887641417E+02  0.87726514008E+02  0.14042138440E+03  0.79676145455E+02 0.  0.
          5    1    3    3  501    0 -0.24946751119E+02 -0.10957949640E+02 -0.19474376054E+01  0.27718217203E+02  0.47000000000E+01 0. -1.
        -11    1    4    4    0    0  0.37893919402E+02  0.36169230822E+02 -0.93433083410E+02  0.10711630810E+03  0.00000000000E+00 0.  1.
         12    1    4    4    0    0  0.12635552912E+03 -0.14424868823E+02 -0.11895416634E+03  0.17413756134E+03  0.00000000000E+00 0. -1.
         -5    1    5    5    0  502 -0.81997075516E+02 -0.59674053776E+02  0.90475885571E+01  0.10192380461E+03  0.47000000000E+01 0.  1.
         11    1    6    6    0    0  0.74179048607E+01  0.14981884437E+02 -0.91670560483E+01  0.19066124158E+02  0.00000000000E+00 0. -1.
        -12    1    6    6    0    0 -0.64723526745E+02  0.33905756980E+02  0.96893570057E+02  0.12135526024E+03  0.00000000000E+00 0.  1.
<mgrwt>
<rscale>  2 0.22245165E+03</rscale>
<asrwt>0</asrwt>
<pdfrwt beam="1">  1       21 0.33365899E-01 0.22254077E+03</pdfrwt>
<pdfrwt beam="2">  1       21 0.51452143E-01 0.22254077E+03</pdfrwt>
<totfact> 0.30560254E+04</totfact>
</mgrwt>
</event>
<event>
12    1  0.1019868E-001  0.1801824E+03  0.7546771E-02  0.1168435E+00
         21   -1    0    0  501  502  0.00000000000E+00  0.00000000000E+00  0.34078078065E+02  0.34078078065E+02  0.00000000000E+00 0.  1.
         21   -1    0    0  502  503 -0.00000000000E+00 -0.00000000000E+00 -0.99449040652E+03  0.99449040652E+03  0.00000000000E+00 0.  1.
         -6    2    1    2    0  503  0.22634944848E+02 -0.44661079847E+02 -0.60153513857E+03  0.62699840527E+03  0.16963350052E+03 0.  0.
        -24    2    3    3    0    0  0.24435213465E+02 -0.92253877207E+02 -0.48961642600E+03  0.50527657670E+03  0.80450710608E+02 0.  0.
          6    2    1    2  501    0 -0.22634944848E+02  0.44661079847E+02 -0.35887718988E+03  0.40157007931E+03  0.17308592779E+03 0.  0.
         24    2    5    5    0    0  0.36884995283E+02  0.46077928474E+02 -0.30551033693E+03  0.32147799651E+03  0.80795160122E+02 0.  0.
          5    1    5    5  501    0 -0.59519940131E+02 -0.14168486268E+01 -0.53366852955E+02  0.80092082802E+02  0.47000000000E+01 0. -1.
        -13    1    6    6    0    0  0.32616712232E+02  0.22943760965E+01 -0.36955237017E+02  0.49343729303E+02  0.00000000000E+00 0.  1.
         14    1    6    6    0    0  0.42682830510E+01  0.43783552378E+02 -0.26855509991E+03  0.27213426721E+03  0.00000000000E+00 0. -1.
         -5    1    3    3    0  503 -0.18002686173E+01  0.47592797360E+02 -0.11191871257E+03  0.12172182857E+03  0.47000000000E+01 0.  1.
         13    1    4    4    0    0  0.16298375644E+02  0.11456338968E+02 -0.59002627191E+02  0.62275153686E+02  0.00000000000E+00 0. -1.
        -14    1    4    4    0    0  0.81368378215E+01 -0.10371021618E+03 -0.43061379881E+03  0.44300142301E+03  0.00000000000E+00 0.  1.
<mgrwt>
<rscale>  2 0.17934814E+03</rscale>
<asrwt>0</asrwt>
<pdfrwt beam="1">  1       21 0.52427816E-02 0.18018238E+03</pdfrwt>
<pdfrwt beam="2">  1       21 0.15299851E+00 0.18018238E+03</pdfrwt>
<totfact> 0.70869639E+04</totfact>
</mgrwt>
</event>
<event>
12    1  0.1019868E-001  0.2044424E+03  0.7546771E-02  0.1146433E+00
         21   -1    0    0  501  502  0.00000000000E+00  0.00000000000E+00  0.13111272380E+03  0.13111272380E+03  0.00000000000E+00 0. -1.
         21   -1    0    0  502  503 -0.00000000000E+00 -0.00000000000E+00 -0.32996635137E+03  0.32996635137E+03  0.00000000000E+00 0. -1.
         -6    2    1    2    0  503  0.84717759200E+02  0.65702388673E+02 -0.14755746015E+03  0.25213074950E+03  0.17407701800E+03 0.  0.
        -24    2    3    3    0    0  0.76426927500E+01  0.91711069872E+02 -0.89862559599E+02  0.15229183466E+03  0.81536447046E+02 0.  0.
          6    2    1    2  501    0 -0.84717759200E+02 -0.65702388673E+02 -0.51296167418E+02  0.20894832567E+03  0.17185518150E+03 0.  0.
         24    2    5    5    0    0 -0.14663432958E+02  0.22651576115E+02 -0.54127612718E+00  0.85205929100E+02  0.80818606813E+02 0.  0.
          5    1    5    5  501    0 -0.70054326242E+02 -0.88353964788E+02 -0.50754891291E+02  0.12374239657E+03  0.47000000000E+01 0. -1.
        -11    1    6    6    0    0 -0.40275862919E+02 -0.12900615572E+01 -0.20130086352E+02  0.45044752960E+02  0.00000000000E+00 0.  1.
         12    1    6    6    0    0  0.25612429961E+02  0.23941637672E+02  0.19588810224E+02  0.40161176140E+02  0.00000000000E+00 0. -1.
         -5    1    3    3    0  503  0.77075066450E+02 -0.26008681199E+02 -0.57694900555E+02  0.99838914838E+02  0.47000000000E+01 0.  1.
         13    1    4    4    0    0  0.31203223117E+02  0.30062001417E+02 -0.71810703824E+02  0.83869793405E+02  0.00000000000E+00 0. -1.
        -14    1    4    4    0    0 -0.23560530367E+02  0.61649068456E+02 -0.18051855776E+02  0.68422041256E+02  0.00000000000E+00 0.  1.
<mgrwt>
<rscale>  2 0.20396867E+03</rscale>
<asrwt>0</asrwt>
<pdfrwt beam="1">  1       21 0.20171188E-01 0.20444244E+03</pdfrwt>
<pdfrwt beam="2">  1       21 0.50764054E-01 0.20444244E+03</pdfrwt>
<totfact> 0.83447930E+04</totfact>
</mgrwt>
</event>
<event>
12    1  0.1019868E-001  0.1738992E+03  0.7546771E-02  0.1173960E+00
         21   -1    0    0  501  502  0.00000000000E+00  0.00000000000E+00  0.11170611128E+03  0.11170611128E+03  0.00000000000E+00 0.  1.
         21   -1    0    0  502  503 -0.00000000000E+00 -0.00000000000E+00 -0.29001262566E+03  0.29001262566E+03  0.00000000000E+00 0.  1.
         -6    2    1    2    0  503  0.17995382782E+01 -0.95979126406E+01 -0.36266169273E+02  0.17718279619E+03  0.17315643207E+03 0.  0.
        -24    2    3    3    0    0  0.23720545812E+02  0.56088551765E+02 -0.11585039584E+02  0.10351808048E+03  0.82904703801E+02 0.  0.
          6    2    1    2  501    0 -0.17995382782E+01  0.95979126406E+01 -0.14204034511E+03  0.22453594075E+03  0.17362479887E+03 0.  0.
         24    2    5    5    0    0  0.66708049463E+02  0.31439223962E+01 -0.91020855952E+02  0.13874537109E+03  0.80657508452E+02 0.  0.
          5    1    5    5  501    0 -0.68507587741E+02  0.64539902445E+01 -0.51019489154E+02  0.85790569655E+02  0.47000000000E+01 0. -1.
        -11    1    6    6    0    0  0.65324699083E+02  0.33405765132E+02 -0.55103566905E+02  0.91758730047E+02  0.00000000000E+00 0.  1.
         12    1    6    6    0    0  0.13833503804E+01 -0.30261842736E+02 -0.35917289047E+02  0.46986641043E+02  0.00000000000E+00 0. -1.
         -5    1    3    3    0  503 -0.21921007534E+02 -0.65686464406E+02 -0.24681129689E+02  0.73664715707E+02  0.47000000000E+01 0.  1.
         13    1    4    4    0    0 -0.13511490840E+02  0.53786074868E+02  0.15308423519E+02  0.57531296396E+02  0.00000000000E+00 0. -1.
        -14    1    4    4    0    0  0.37232036652E+02  0.23024768972E+01 -0.26893463103E+02  0.45986784088E+02  0.00000000000E+00 0.  1.
<mgrwt>
<rscale>  2 0.17378217E+03</rscale>
<asrwt>0</asrwt>
<pdfrwt beam="1">  1       21 0.17185555E-01 0.17389919E+03</pdfrwt>
<pdfrwt beam="2">  1       21 0.44617327E-01 0.17389919E+03</pdfrwt>
<totfact> 0.14838191E+05</totfact>
</mgrwt>
</event>
<event>
12    1  0.1019868E-001  0.1969239E+03  0.7546771E-02  0.1152679E+00
         21   -1    0    0  501  502  0.00000000000E+00  0.00000000000E+00  0.19689162436E+03  0.19689162436E+03  0.00000000000E+00 0.  1.
         21   -1    0    0  502  503 -0.00000000000E+00 -0.00000000000E+00 -0.22577699396E+03  0.22577699396E+03  0.00000000000E+00 0.  1.
         -6    2    1    2    0  503 -0.42746891087E+02  0.76397811035E+02 -0.91806296290E+02  0.21593671230E+03  0.17474651770E+03 0.  0.
        -24    2    3    3    0    0  0.34315979263E+02  0.48411418946E+02 -0.12753822147E+02  0.10194852082E+03  0.81912080916E+02 0.  0.
          6    2    1    2  501    0  0.42746891087E+02 -0.76397811035E+02  0.62920926689E+02  0.20673190602E+03  0.17639477237E+03 0.  0.
         24    2    5    5    0    0 -0.13967134519E+02 -0.29357793127E+00  0.74371602913E+02  0.11101595655E+03  0.81229552833E+02 0.  0.
          5    1    5    5  501    0  0.56714025607E+02 -0.76104233104E+02 -0.11450676223E+02  0.95715949470E+02  0.47000000000E+01 0. -1.
        -11    1    6    6    0    0  0.31851740021E+02 -0.13713003610E+02  0.31141501433E+02  0.46608721521E+02  0.00000000000E+00 0.  1.
         12    1    6    6    0    0 -0.45818874540E+02  0.13419425679E+02  0.43230101480E+02  0.64407235025E+02  0.00000000000E+00 0. -1.
         -5    1    3    3    0  503 -0.77062870350E+02  0.27986392089E+02 -0.79052474142E+02  0.11398819148E+03  0.47000000000E+01 0.  1.
         11    1    4    4    0    0 -0.57549698648E+01 -0.10665675977E+02 -0.26602340011E+02  0.29232872186E+02  0.00000000000E+00 0. -1.
        -12    1    4    4    0    0  0.40070949128E+02  0.59077094924E+02  0.13848517863E+02  0.72715648630E+02  0.00000000000E+00 0.  1.
<mgrwt>
<rscale>  2 0.19655414E+03</rscale>
<asrwt>0</asrwt>
<pdfrwt beam="1">  1       21 0.30291019E-01 0.19692394E+03</pdfrwt>
<pdfrwt beam="2">  1       21 0.34734922E-01 0.19692394E+03</pdfrwt>
<totfact> 0.83395194E+04</totfact>
</mgrwt>
</event>
<event>
12    1  0.1019868E-001  0.2312045E+03  0.7546771E-02  0.1125930E+00
         21   -1    0    0  503  502  0.00000000000E+00  0.00000000000E+00  0.23357395034E+03  0.23357395034E+03  0.00000000000E+00 0.  1.
         21   -1    0    0  501  503 -0.00000000000E+00 -0.00000000000E+00 -0.28698216360E+03  0.28698216360E+03  0.00000000000E+00 0.  1.
          6    2    1    2  501    0 -0.14198485330E+03 -0.57447268832E+02 -0.14464017216E+03  0.27272017662E+03  0.17319245961E+03 0.  0.
         24    2    3    3    0    0 -0.22241023550E+02 -0.54632675075E+02 -0.10790670474E+03  0.14734895053E+03  0.81169353696E+02 0.  0.
         -6    2    1    2    0  502  0.14198485330E+03  0.57447268832E+02  0.91231958902E+02  0.24783593732E+03  0.17216124488E+03 0.  0.
        -24    2    5    5    0    0  0.54046868921E+02 -0.41915475418E+01  0.10320246629E+03  0.13967949587E+03  0.76947900589E+02 0.  0.
          5    1    3    3  501    0 -0.11974382975E+03 -0.28145937568E+01 -0.36733467422E+02  0.12537122609E+03  0.47000000000E+01 0. -1.
        -11    1    4    4    0    0 -0.39467084050E+02 -0.10567925926E+02 -0.85998310057E+02  0.95210509475E+02  0.00000000000E+00 0.  1.
         12    1    4    4    0    0  0.17226060501E+02 -0.44064749149E+02 -0.21908394685E+02  0.52138441055E+02  0.00000000000E+00 0. -1.
         -5    1    5    5    0  502  0.87937984379E+02  0.61638816374E+02 -0.11970507393E+02  0.10815644145E+03  0.47000000000E+01 0.  1.
         11    1    6    6    0    0  0.26648244244E+01 -0.28449734668E+02  0.65573518059E+02  0.71528840076E+02  0.00000000000E+00 0. -1.
        -12    1    6    6    0    0  0.51382044497E+02  0.24258187126E+02  0.37628948236E+02  0.68150655790E+02  0.00000000000E+00 0.  1.
<mgrwt>
<rscale>  2 0.23101138E+03</rscale>
<asrwt>0</asrwt>
<pdfrwt beam="1">  1       21 0.35934454E-01 0.23120449E+03</pdfrwt>
<pdfrwt beam="2">  1       21 0.44151102E-01 0.23120449E+03</pdfrwt>
<totfact> 0.36094393E+04</totfact>
</mgrwt>
</event>
<event>
12    1  0.1019868E-001  0.1911769E+03  0.7546771E-02  0.1157485E+00
         21   -1    0    0  501  502  0.00000000000E+00  0.00000000000E+00  0.37499050599E+03  0.37499050599E+03  0.00000000000E+00 0.  1.
         21   -1    0    0  502  503 -0.00000000000E+00 -0.00000000000E+00 -0.15196338833E+03  0.15196338833E+03  0.00000000000E+00 0.  1.
         -6    2    1    2    0  503 -0.27980092898E+02 -0.74255577380E+02 -0.46468076594E+02  0.19674324524E+03  0.17393057820E+03 0.  0.
        -24    2    3    3    0    0 -0.26326434985E+02 -0.44262239217E+02 -0.98092508122E+02  0.13683075197E+03  0.80301229980E+02 0.  0.
          6    2    1    2  501    0  0.27980092898E+02  0.74255577380E+02  0.26949519425E+03  0.33021064908E+03  0.17353569278E+03 0.  0.
         24    2    5    5    0    0  0.41277965029E+02  0.24388189270E+02  0.51999354745E+02  0.10662594476E+03  0.79790381814E+02 0.  0.
          5    1    5    5  501    0 -0.13297872131E+02  0.49867388109E+02  0.21749583951E+03  0.22358470431E+03  0.47000000000E+01 0. -1.
        -11    1    6    6    0    0 -0.41240676860E+01 -0.11868312435E+02  0.46610516757E+02  0.48274268992E+02  0.00000000000E+00 0.  1.
         12    1    6    6    0    0  0.45402032715E+02  0.36256501705E+02  0.53888379879E+01  0.58351675772E+02  0.00000000000E+00 0. -1.
         -5    1    3    3    0  503 -0.16536579127E+01 -0.29993338163E+02  0.51624431528E+02  0.59912493265E+02  0.47000000000E+01 0.  1.
         13    1    4    4    0    0 -0.27085605948E+02  0.10236069378E+02 -0.56267776356E+01  0.29496911575E+02  0.00000000000E+00 0. -1.
        -14    1    4    4    0    0  0.75917096334E+00 -0.54498308595E+02 -0.92465730486E+02  0.10733384040E+03  0.00000000000E+00 0.  1.
<mgrwt>
<rscale>  2 0.19108708E+03</rscale>
<asrwt>0</asrwt>
<pdfrwt beam="1">  1       21 0.57690847E-01 0.19117694E+03</pdfrwt>
<pdfrwt beam="2">  1       21 0.23378983E-01 0.19117694E+03</pdfrwt>
<totfact> 0.48530667E+04</totfact>
</mgrwt>
</event>
<event>
12    1  0.1019868E-001  0.2692079E+03  0.7546771E-02  0.1101743E+00
         21   -1    0    0  503  502  0.00000000000E+00  0.00000000000E+00  0.31070880147E+03  0.31070880147E+03  0.00000000000E+00 0. -1.
         21   -1    0    0  501  503 -0.00000000000E+00 -0.00000000000E+00 -0.24294852219E+03  0.24294852219E+03  0.00000000000E+00 0.  1.
          6    2    1    2  501    0 -0.82027558674E+02  0.18958627500E+03 -0.21597228459E+02  0.27000669911E+03  0.17252739272E+03 0.  0.
         24    2    3    3    0    0 -0.91982072817E+02  0.56689585445E+02 -0.18203687510E+02  0.13661168959E+03  0.81590248657E+02 0.  0.
         -6    2    1    2    0  502  0.82027558674E+02 -0.18958627500E+03  0.89357507742E+02  0.28365062455E+03  0.17263092588E+03 0.  0.
        -24    2    5    5    0    0 -0.24503422203E+02 -0.92446569365E+02  0.42624607204E+02  0.13202270400E+03  0.80413626619E+02 0.  0.
          5    1    3    3  501    0  0.99545141433E+01  0.13289668955E+03 -0.33935409490E+01  0.13339500952E+03  0.47000000000E+01 0. -1.
        -11    1    4    4    0    0  0.12167825073E+02 -0.24333866682E+01 -0.11085385608E+02  0.16639204061E+02  0.00000000000E+00 0.  1.
         12    1    4    4    0    0 -0.10414989789E+03  0.59122972113E+02 -0.71183019016E+01  0.11997248553E+03  0.00000000000E+00 0. -1.
         -5    1    5    5    0  502  0.10653098088E+03 -0.97139705631E+02  0.46732900537E+02  0.15162792055E+03  0.47000000000E+01 0.  1.
         13    1    6    6    0    0 -0.24228479048E+02 -0.43446673323E+02  0.61860971149E+02  0.79381435936E+02  0.00000000000E+00 0. -1.
        -14    1    6    6    0    0 -0.27494315534E+00 -0.48999896043E+02 -0.19236363945E+02  0.52641268067E+02  0.00000000000E+00 0.  1.
<mgrwt>
<rscale>  2 0.26919134E+03</rscale>
<asrwt>0</asrwt>
<pdfrwt beam="1">  1       21 0.47801354E-01 0.26920794E+03</pdfrwt>
<pdfrwt beam="2">  1       21 0.37376696E-01 0.26920794E+03</pdfrwt>
<totfact> 0.27822384E+04</totfact>
</mgrwt>
</event>
<event>
12    1  0.1019868E-001  0.1926390E+03  0.7546771E-02  0.1156611E+00
         21   -1    0    0  501  502  0.00000000000E+00  0.00000000000E+00  0.10769533528E+03  0.10769533528E+03  0.00000000000E+00 0. -1.
         21   -1    0    0  502  503 -0.00000000000E+00 -0.00000000000E+00 -0.35605904723E+03  0.35605904723E+03  0.00000000000E+00 0. -1.
         -6    2    1    2    0  503  0.80307839898E+02 -0.61447141360E+01 -0.76437899134E+02  0.20724989544E+03  0.17499331437E+03 0.  0.
        -24    2    3    3    0    0  0.18892378242E+02 -0.68734384307E+02 -0.87975925374E+01  0.96404837730E+02  0.64305190783E+02 0.  0.
          6    2    1    2  501    0 -0.80307839898E+02  0.61447141360E+01 -0.17192581282E+03  0.25650448707E+03  0.17247886860E+03 0.  0.
         24    2    5    5    0    0 -0.10068308059E+03 -0.38987419143E+02 -0.97766166201E+02  0.16720833332E+03  0.82117610224E+02 0.  0.
          5    1    5    5  501    0  0.20375240695E+02  0.45132133279E+02 -0.74159646620E+02  0.89296153750E+02  0.47000000000E+01 0. -1.
        -13    1    6    6    0    0  0.89456918919E+01 -0.89799210326E+01 -0.35313150161E+02  0.37519101261E+02  0.00000000000E+00 0.  1.
         14    1    6    6    0    0 -0.10962877249E+03 -0.30007498110E+02 -0.62453016040E+02  0.12968923206E+03  0.00000000000E+00 0. -1.
         -5    1    3    3    0  503  0.61415461657E+02  0.62589670171E+02 -0.67640306597E+02  0.11084505771E+03  0.47000000000E+01 0.  1.
         13    1    4    4    0    0  0.29045935352E+02 -0.12491496220E+02 -0.21010550381E+02  0.37962442830E+02  0.00000000000E+00 0. -1.
        -14    1    4    4    0    0 -0.10153557110E+02 -0.56242888087E+02  0.12212957844E+02  0.58442394900E+02  0.00000000000E+00 0.  1.
<mgrwt>
<rscale>  2 0.19206610E+03</rscale>
<asrwt>0</asrwt>
<pdfrwt beam="1">  1       21 0.16568513E-01 0.19263895E+03</pdfrwt>
<pdfrwt beam="2">  1       21 0.54778314E-01 0.19263895E+03</pdfrwt>
<totfact> 0.10289915E+05</totfact>
</mgrwt>
</event>
<event>
12    1  0.1019868E-001  0.2337121E+03  0.7546771E-02  0.1124056E+00
         21   -1    0    0  501  502  0.00000000000E+00  0.00000000000E+00  0.55101456510E+03  0.55101456510E+03  0.00000000000E+00 0. -1.
         21   -1    0    0  502  503 -0.00000000000E+00 -0.00000000000E+00 -0.12474553011E+03  0.12474553011E+03  0.00000000000E+00 0.  1.
         -6    2    1    2    0  503 -0.15566313124E+03 -0.12665034649E+02  0.60011279288E+02  0.24129378125E+03  0.17386754067E+03 0.  0.
        -24    2    3    3    0    0 -0.74093356524E+02  0.58676838030E+02  0.40275784839E+02  0.13104465116E+03  0.81349646292E+02 0.  0.
          6    2    1    2  501    0  0.15566313124E+03  0.12665034649E+02  0.36625775570E+03  0.43446631395E+03  0.17385287118E+03 0.  0.
         24    2    5    5    0    0  0.14058987240E+03  0.17613092971E+02  0.16269515656E+03  0.23023235943E+03  0.80383406818E+02 0.  0.
          5    1    5    5  501    0  0.15073258836E+02 -0.49480583218E+01  0.20356259914E+03  0.20423395453E+03  0.47000000000E+01 0. -1.
        -13    1    6    6    0    0  0.40612778308E+02  0.45584923962E+01  0.24943603489E+01  0.40943857273E+02  0.00000000000E+00 0.  1.
         14    1    6    6    0    0  0.99977094096E+02  0.13054600574E+02  0.16020079622E+03  0.18928850216E+03  0.00000000000E+00 0. -1.
         -5    1    3    3    0  503 -0.81569774717E+02 -0.71341872679E+02  0.19735494449E+02  0.11024913009E+03  0.47000000000E+01 0.  1.
         13    1    4    4    0    0 -0.22822230254E+02  0.11059583884E+02  0.54073123510E+02  0.59724963588E+02  0.00000000000E+00 0. -1.
        -14    1    4    4    0    0 -0.51271126270E+02  0.47617254146E+02 -0.13797338671E+02  0.71319687575E+02  0.00000000000E+00 0.  1.
<mgrwt>
<rscale>  2 0.23370935E+03</rscale>
<asrwt>0</asrwt>
<pdfrwt beam="1">  1       21 0.84771470E-01 0.23371208E+03</pdfrwt>
<pdfrwt beam="2">  1       21 0.19191620E-01 0.23371208E+03</pdfrwt>
<totfact> 0.29404835E+04</totfact>
</mgrwt>
</event>
<event>
12    1  0.1019868E-001  0.2224828E+03  0.7546771E-02  0.1132056E+00
         21   -1    0    0  501  502  0.00000000000E+00  0.00000000000E+00  0.10810060602E+04  0.10810060602E+04  0.00000000000E+00 0.  1.
         21   -1    0    0  502  503 -0.00000000000E+00 -0.00000000000E+00 -0.45918504978E+02  0.45918504978E+02  0.00000000000E+00 0.  1.
         -6    2    1    2    0  503 -0.13215577115E+03 -0.44951684203E+02  0.48638443892E+03  0.53485364529E+03  0.17324202059E+03 0.  0.
        -24    2    3    3    0    0 -0.12130315274E+02 -0.80990649983E+01  0.10397109680E+03  0.13232876428E+03  0.80549199152E+02 0.  0.
          6    2    1    2  501    0  0.13215577115E+03  0.44951684203E+02  0.54870311633E+03  0.59207091992E+03  0.17316772961E+03 0.  0.
         24    2    5    5    0    0  0.11766282664E+02 -0.59278891984E+01  0.30399949053E+03  0.31461044632E+03  0.79940336591E+02 0.  0.
          5    1    5    5  501    0  0.12038948849E+03  0.50879573401E+02  0.24470362580E+03  0.27746047360E+03  0.47000000000E+01 0. -1.
        -13    1    6    6    0    0  0.13690793624E+02  0.21768459651E+02  0.31335324617E+02  0.40536480292E+02  0.00000000000E+00 0.  1.
         14    1    6    6    0    0 -0.19245109594E+01 -0.27696348850E+02  0.27266416591E+03  0.27407396603E+03  0.00000000000E+00 0. -1.
         -5    1    3    3    0  503 -0.12002545588E+03 -0.36852619204E+02  0.38241334212E+03  0.40252488101E+03  0.47000000000E+01 0.  1.
         13    1    4    4    0    0  0.30422321732E+02  0.14465676585E+02  0.41914480767E+02  0.53773573032E+02  0.00000000000E+00 0. -1.
        -14    1    4    4    0    0 -0.42552637006E+02 -0.22564741583E+02  0.62056616034E+02  0.78555191251E+02  0.00000000000E+00 0.  1.
<mgrwt>
<rscale>  2 0.22246834E+03</rscale>
<asrwt>0</asrwt>
<pdfrwt beam="1">  1       21 0.16630861E+00 0.22248281E+03</pdfrwt>
<pdfrwt beam="2">  1       21 0.70643862E-02 0.22248281E+03</pdfrwt>
<totfact> 0.33124990E+04</totfact>
</mgrwt>
</event>
<event>
12    1  0.1019868E-001  0.2117051E+03  0.7546771E-02  0.1140542E+00
         21   -1    0    0  501  502  0.00000000000E+00  0.00000000000E+00  0.20701606864E+03  0.20701606864E+03  0.00000000000E+00 0. -1.
         21   -1    0    0  502  503 -0.00000000000E+00 -0.00000000000E+00 -0.33285467687E+03  0.33285467687E+03  0.00000000000E+00 0. -1.
         -6    2    1    2    0  503  0.84554018706E+02  0.85243307894E+02 -0.22380197550E+03  0.30806875135E+03  0.17436521356E+03 0.  0.
        -24    2    3    3    0    0 -0.20349822485E+01  0.26648221060E+02 -0.17286440472E+03  0.19167388289E+03  0.78374141929E+02 0.  0.
          6    2    1    2  501    0 -0.84554018706E+02 -0.85243307894E+02  0.97963367271E+02  0.23180199415E+03  0.17239356005E+03 0.  0.
         24    2    5    5    0    0 -0.73619139828E+02 -0.48032375126E+02 -0.66006466366E+01  0.12017785654E+03  0.81683914311E+02 0.  0.
          5    1    5    5  501    0 -0.10934878878E+02 -0.37210932767E+02  0.10456401391E+03  0.11162413761E+03  0.47000000000E+01 0. -1.
        -13    1    6    6    0    0  0.14247354827E+02 -0.25597447811E+02 -0.77712797543E+00  0.29305637374E+02  0.00000000000E+00 0.  1.
         14    1    6    6    0    0 -0.87866494655E+02 -0.22434927316E+02 -0.58235186612E+01  0.90872219167E+02  0.00000000000E+00 0. -1.
         -5    1    3    3    0  503  0.86589000954E+02  0.58595086834E+02 -0.50937570779E+02  0.11639486846E+03  0.47000000000E+01 0.  1.
         11    1    4    4    0    0  0.34645339092E+02  0.11946806465E+02 -0.46093240479E+02  0.58886437517E+02  0.00000000000E+00 0. -1.
        -12    1    4    4    0    0 -0.36680321341E+02  0.14701414595E+02 -0.12677116424E+03  0.13278744537E+03  0.00000000000E+00 0.  1.
<mgrwt>
<rscale>  2 0.21129866E+03</rscale>
<asrwt>0</asrwt>
<pdfrwt beam="1">  1       21 0.31848626E-01 0.21170506E+03</pdfrwt>
<pdfrwt beam="2">  1       21 0.51208411E-01 0.21170506E+03</pdfrwt>
<totfact> 0.34021194E+04</totfact>
</mgrwt>
</event>
<event>
12    1  0.1019868E-001  0.2408339E+03  0.7546771E-02  0.1119498E+00
         21   -1    0    0  501  502  0.00000000000E+00  0.00000000000E+00  0.42119383100E+03  0.42119383100E+03  0.00000000000E+00 0.  1.
         21   -1    0    0  502  503 -0.00000000000E+00 -0.00000000000E+00 -0.20072550251E+03  0.20072550251E+03  0.00000000000E+00 0. -1.
         -6    2    1    2    0  503  0.10651994621E+03  0.12950727649E+03 -0.65474916000E+02  0.24806842555E+03  0.17068200118E+03 0.  0.
        -24    2    3    3    0    0  0.36636672668E+02  0.10195459577E+03 -0.96838235105E+02  0.16652966226E+03  0.81348013184E+02 0.  0.
          6    2    1    2  501    0 -0.10651994621E+03 -0.12950727649E+03  0.28594324449E+03  0.37385090796E+03  0.17286505924E+03 0.  0.
         24    2    5    5    0    0 -0.12733740339E+02 -0.10884481209E+03  0.21675483952E+03  0.25539452261E+03  0.78957966445E+02 0.  0.
          5    1    5    5  501    0 -0.93786205867E+02 -0.20662464400E+02  0.69188404973E+02  0.11845638534E+03  0.47000000000E+01 0. -1.
        -13    1    6    6    0    0 -0.43092039930E+02 -0.84339408931E+02  0.16899404389E+03  0.19372415099E+03  0.00000000000E+00 0.  1.
         14    1    6    6    0    0  0.30358299590E+02 -0.24505403157E+02  0.47760795624E+02  0.61670371626E+02  0.00000000000E+00 0. -1.
         -5    1    3    3    0  503  0.69883273538E+02  0.27552680714E+02  0.31363319105E+02  0.81538763298E+02  0.47000000000E+01 0.  1.
         11    1    4    4    0    0  0.28498673192E+02  0.24857670302E+02 -0.78097332779E+02  0.86771375083E+02  0.00000000000E+00 0. -1.
        -12    1    4    4    0    0  0.81379994762E+01  0.77096925472E+02 -0.18740902326E+02  0.79758287173E+02  0.00000000000E+00 0.  1.
<mgrwt>
<rscale>  2 0.24044241E+03</rscale>
<asrwt>0</asrwt>
<pdfrwt beam="1">  1       21 0.64799051E-01 0.24083389E+03</pdfrwt>
<pdfrwt beam="2">  1       21 0.30880847E-01 0.24083389E+03</pdfrwt>
<totfact> 0.21519261E+04</totfact>
</mgrwt>
</event>
<event>
12    1  0.1019868E-001  0.1939538E+03  0.7546771E-02  0.1155508E+00
         21   -1    0    0  503  502  0.00000000000E+00  0.00000000000E+00  0.92723386070E+03  0.92723386070E+03  0.00000000000E+00 0.  1.
         21   -1    0    0  501  503 -0.00000000000E+00 -0.00000000000E+00 -0.15503542509E+03  0.15503542509E+03  0.00000000000E+00 0.  1.
          6    2    1    2  501    0 -0.74889430078E+02  0.32861488755E+02 -0.79289560122E+02  0.20953501657E+03  0.17586865737E+03 0.  0.
         24    2    3    3    0    0 -0.26694837604E+02 -0.42304857741E+02 -0.51618700515E+01  0.93389836628E+02  0.78693718553E+02 0.  0.
         -6    2    1    2    0  502  0.74889430078E+02 -0.32861488755E+02  0.85148799573E+03  0.87273426921E+03  0.17304621813E+03 0.  0.
        -24    2    5    5    0    0  0.11793889128E+03 -0.66646985769E+01  0.60546562650E+03  0.62155977989E+03  0.76117900792E+02 0.  0.
          5    1    3    3  501    0 -0.48194592474E+02  0.75166346496E+02 -0.74127690070E+02  0.11614517994E+03  0.47000000000E+01 0. -1.
        -13    1    4    4    0    0 -0.32872494523E+02  0.14241495082E+02 -0.68871648612E+01  0.36480873320E+02  0.00000000000E+00 0.  1.
         14    1    4    4    0    0  0.61776569191E+01 -0.56546352823E+02  0.17252948097E+01  0.56908963308E+02  0.00000000000E+00 0. -1.
         -5    1    5    5    0  502 -0.43049461203E+02 -0.26196790178E+02  0.24602236923E+03  0.25117448932E+03  0.47000000000E+01 0.  1.
         13    1    6    6    0    0  0.13216888338E+02  0.19761349712E+02  0.46170880792E+02  0.51932141424E+02  0.00000000000E+00 0. -1.
        -14    1    6    6    0    0  0.10472200294E+03 -0.26426048289E+02  0.55929474571E+03  0.56962763847E+03  0.00000000000E+00 0.  1.
<mgrwt>
<rscale>  2 0.19331176E+03</rscale>
<asrwt>0</asrwt>
<pdfrwt beam="1">  1       21 0.14265136E+00 0.19395383E+03</pdfrwt>
<pdfrwt beam="2">  1       21 0.23851605E-01 0.19395383E+03</pdfrwt>
<totfact> 0.56407402E+03</totfact>
</mgrwt>
</event>
<event>
12    1  0.1019868E-001  0.1774913E+03  0.7546771E-02  0.1170606E+00
         21   -1    0    0  503  502  0.00000000000E+00  0.00000000000E+00  0.50563927300E+02  0.50563927300E+02  0.00000000000E+00 0. -1.
         21   -1    0    0  501  503 -0.00000000000E+00 -0.00000000000E+00 -0.67981872117E+03  0.67981872117E+03  0.00000000000E+00 0. -1.
          6    2    1    2  501    0  0.38044723387E+02 -0.14193027906E+02 -0.42355940488E+03  0.45869579398E+03  0.17131963967E+03 0.  0.
         24    2    3    3    0    0 -0.33390240429E+01  0.47098854756E+01 -0.86329350728E+02  0.11837809813E+03  0.80791616008E+02 0.  0.
         -6    2    1    2    0  502 -0.38044723387E+02  0.14193027906E+02 -0.20569538899E+03  0.27168685449E+03  0.17278400051E+03 0.  0.
        -24    2    5    5    0    0  0.43302519172E+02  0.11558838702E+02 -0.81621370080E+02  0.12322552958E+03  0.80707918869E+02 0.  0.
          5    1    3    3  501    0  0.41383747430E+02 -0.18902913381E+02 -0.33723005415E+03  0.34031769585E+03  0.47000000000E+01 0. -1.
        -11    1    4    4    0    0 -0.21612840405E+02  0.37530268254E+02 -0.49490330761E+02  0.65764190441E+02  0.00000000000E+00 0.  1.
         12    1    4    4    0    0  0.18273816363E+02 -0.32820382779E+02 -0.36839019967E+02  0.52613907689E+02  0.00000000000E+00 0. -1.
         -5    1    5    5    0  502 -0.81347242559E+02  0.26341892033E+01 -0.12407401891E+03  0.14846132491E+03  0.47000000000E+01 0.  1.
         13    1    6    6    0    0  0.14672174522E+02  0.14763021699E+02  0.12848712299E+02  0.24460354099E+02  0.00000000000E+00 0. -1.
        -14    1    6    6    0    0  0.28630344651E+02 -0.32041829969E+01 -0.94470082379E+02  0.98765175483E+02  0.00000000000E+00 0.  1.
<mgrwt>
<rscale>  2 0.17713390E+03</rscale>
<asrwt>0</asrwt>
<pdfrwt beam="1">  1       21 0.77790663E-02 0.17749128E+03</pdfrwt>
<pdfrwt beam="2">  1       21 0.10458749E+00 0.17749128E+03</pdfrwt>
<totfact> 0.93527810E+04</totfact>
</mgrwt>
</event>
<event>
12    1  0.1019868E-001  0.2161274E+03  0.7546771E-02  0.1137048E+00
         21   -1    0    0  501  502  0.00000000000E+00  0.00000000000E+00  0.12348209321E+03  0.12348209321E+03  0.00000000000E+00 0.  1.
         21   -1    0    0  502  503 -0.00000000000E+00 -0.00000000000E+00 -0.50746787112E+03  0.50746787112E+03  0.00000000000E+00 0.  1.
         -6    2    1    2    0  503 -0.28687796384E+01 -0.12847050119E+03 -0.35295472021E+03  0.41386966848E+03  0.17377620204E+03 0.  0.
        -24    2    3    3    0    0  0.28278407583E+02 -0.67854385223E+01 -0.17355808286E+03  0.19482025570E+03  0.83587160453E+02 0.  0.
          6    2    1    2  501    0  0.28687796384E+01  0.12847050119E+03 -0.31031057699E+02  0.21708029584E+03  0.17218602943E+03 0.  0.
         24    2    5    5    0    0 -0.16581208004E+02  0.54681073462E+02  0.44222293969E+02  0.10980337102E+03  0.82681393003E+02 0.  0.
          5    1    5    5  501    0  0.19449987642E+02  0.73789427724E+02 -0.75253351668E+02  0.10727692483E+03  0.47000000000E+01 0. -1.
        -11    1    6    6    0    0 -0.31402083372E+02  0.46056820972E+02 -0.66314692726E+01  0.56136422961E+02  0.00000000000E+00 0.  1.
         12    1    6    6    0    0  0.14820875369E+02  0.86242524897E+01  0.50853763242E+02  0.53666948055E+02  0.00000000000E+00 0. -1.
         -5    1    3    3    0  503 -0.31147187222E+02 -0.12168506266E+03 -0.17939663735E+03  0.21904941278E+03  0.47000000000E+01 0.  1.
         13    1    4    4    0    0 -0.76844612280E+01 -0.94568264219E+01  0.46182724297E+01  0.13031153079E+02  0.00000000000E+00 0. -1.
        -14    1    4    4    0    0  0.35962868811E+02  0.26713878997E+01 -0.17817635529E+03  0.18178910262E+03  0.00000000000E+00 0.  1.
<mgrwt>
<rscale>  2 0.21580760E+03</rscale>
<asrwt>0</asrwt>
<pdfrwt beam="1">  1       21 0.18997245E-01 0.21612743E+03</pdfrwt>
<pdfrwt beam="2">  1       21 0.78071981E-01 0.21612743E+03</pdfrwt>
<totfact> 0.36465367E+04</totfact>
</mgrwt>
</event>
<event>
12    1  0.1019868E-001  0.2161537E+03  0.7546771E-02  0.1141102E+00
         21   -1    0    0  501  502  0.00000000000E+00  0.00000000000E+00  0.76643085588E+03  0.76643085588E+03  0.00000000000E+00 0. -1.
         21   -1    0    0  502  503 -0.00000000000E+00 -0.00000000000E+00 -0.70422612127E+02  0.70422612127E+02  0.00000000000E+00 0.  1.
         -6    2    1    2    0  503  0.78430345755E+01 -0.97197203559E+02  0.55735874985E+03  0.59780533062E+03  0.19290834019E+03 0.  0.
        -24    2    3    3    0    0  0.12794612281E+02 -0.14366546531E+03  0.47415523133E+03  0.50226092751E+03  0.81482439070E+02 0.  0.
          6    2    1    2  501    0 -0.78430345755E+01  0.97197203559E+02  0.13864949391E+03  0.23904813739E+03  0.16855717207E+03 0.  0.
         24    2    5    5    0    0 -0.45436670872E+02  0.43252533708E+02  0.21686876780E+02  0.10478849080E+03  0.81086586120E+02 0.  0.
          5    1    5    5  501    0  0.37593636296E+02  0.53944669851E+02  0.11696261713E+03  0.13425964658E+03  0.47000000000E+01 0. -1.
        -11    1    6    6    0    0 -0.10049380809E+02  0.52751285984E+02 -0.11990671582E+02  0.55022399372E+02  0.00000000000E+00 0.  1.
         12    1    6    6    0    0 -0.35387290063E+02 -0.94987522763E+01  0.33677548362E+02  0.49766091433E+02  0.00000000000E+00 0. -1.
         -5    1    3    3    0  503 -0.49515777057E+01  0.46468261755E+02  0.83203518516E+02  0.95544403111E+02  0.47000000000E+01 0.  1.
         13    1    4    4    0    0  0.41301691493E+02 -0.12262078213E+03  0.39161098751E+03  0.41243284480E+03  0.00000000000E+00 0. -1.
        -14    1    4    4    0    0 -0.28507079211E+02 -0.21044683182E+02  0.82544243821E+02  0.89828082710E+02  0.00000000000E+00 0.  1.
<mgrwt>
<rscale>  2 0.21058676E+03</rscale>
<asrwt>0</asrwt>
<pdfrwt beam="1">  1       21 0.11791243E+00 0.21615374E+03</pdfrwt>
<pdfrwt beam="2">  1       21 0.10834249E-01 0.21615374E+03</pdfrwt>
<totfact> 0.38333457E+04</totfact>
</mgrwt>
</event>
<event>
12    1  0.1019868E-001  0.1717024E+03  0.7546771E-02  0.1176724E+00
         21   -1    0    0  501  502  0.00000000000E+00  0.00000000000E+00  0.99451013972E+03  0.99451013972E+03  0.00000000000E+00 0.  1.
         21   -1    0    0  502  503 -0.00000000000E+00 -0.00000000000E+00 -0.32290108398E+03  0.32290108398E+03  0.00000000000E+00 0.  1.
         -6    2    1    2    0  503 -0.11346014356E+02 -0.22380724454E+02 -0.29216921914E+03  0.33888722608E+03  0.16985897244E+03 0.  0.
        -24    2    3    3    0    0  0.14027651048E+02  0.13740355200E+02 -0.28130138883E+03  0.29318432653E+03  0.80255875859E+02 0.  0.
          6    2    1    2  501    0  0.11346014356E+02  0.22380724454E+02  0.96377827488E+03  0.97852399762E+03  0.16736493637E+03 0.  0.
         24    2    5    5    0    0  0.46961465008E+02  0.25092544195E+02  0.90039569161E+03  0.90561819434E+03  0.81221287022E+02 0.  0.
          5    1    5    5  501    0 -0.35615450652E+02 -0.27118197413E+01  0.63382583264E+02  0.72905803285E+02  0.47000000000E+01 0. -1.
        -11    1    6    6    0    0  0.21975314261E+02  0.17758601830E+02  0.80593671329E+02  0.85402706246E+02  0.00000000000E+00 0.  1.
         12    1    6    6    0    0  0.24986150747E+02  0.73339423656E+01  0.81980202028E+03  0.82021548809E+03  0.00000000000E+00 0. -1.
         -5    1    3    3    0  503 -0.25373665404E+02 -0.36121079654E+02 -0.10867830306E+02  0.45702899546E+02  0.47000000000E+01 0.  1.
         11    1    4    4    0    0 -0.92495830152E+01  0.43700042686E+02 -0.15491561536E+03  0.16122684764E+03  0.00000000000E+00 0. -1.
        -12    1    4    4    0    0  0.23277234063E+02 -0.29959687487E+02 -0.12638577347E+03  0.13195747889E+03  0.00000000000E+00 0.  1.
<mgrwt>
<rscale>  2 0.17108229E+03</rscale>
<asrwt>0</asrwt>
<pdfrwt beam="1">  1       21 0.15300156E+00 0.17170236E+03</pdfrwt>
<pdfrwt beam="2">  1       21 0.49677090E-01 0.17170236E+03</pdfrwt>
<totfact> 0.11209202E+03</totfact>
</mgrwt>
</event>
<event>
12    1  0.1019868E-001  0.2069032E+03  0.7546771E-02  0.1144044E+00
         21   -1    0    0  501  502  0.00000000000E+00  0.00000000000E+00  0.25994661185E+03  0.25994661185E+03  0.00000000000E+00 0. -1.
         21   -1    0    0  502  503 -0.00000000000E+00 -0.00000000000E+00 -0.17012220742E+03  0.17012220742E+03  0.00000000000E+00 0. -1.
         -6    2    1    2    0  503  0.73575814232E+02  0.87092387838E+02  0.64318003973E+01  0.20700318587E+03  0.17265707760E+03 0.  0.
        -24    2    3    3    0    0  0.11435513078E+03  0.54656320439E+02  0.21195299563E+02  0.15264233568E+03  0.82377379300E+02 0.  0.
          6    2    1    2  501    0 -0.73575814232E+02 -0.87092387838E+02  0.83392604028E+02  0.22306563339E+03  0.17264259594E+03 0.  0.
         24    2    5    5    0    0 -0.55084341992E+02  0.15039783901E+02  0.24995963232E+02  0.10388017830E+03  0.83101224014E+02 0.  0.
          5    1    5    5  501    0 -0.18491472241E+02 -0.10213217174E+03  0.58396640796E+02  0.11918545509E+03  0.47000000000E+01 0. -1.
        -13    1    6    6    0    0 -0.24222287523E+02 -0.24208957959E+02 -0.17369544629E+02  0.38399139820E+02  0.00000000000E+00 0.  1.
         14    1    6    6    0    0 -0.30862054469E+02  0.39248741861E+02  0.42365507861E+02  0.65481038477E+02  0.00000000000E+00 0. -1.
         -5    1    3    3    0  503 -0.40779316543E+02  0.32436067399E+02 -0.14763499165E+02  0.54360850192E+02  0.47000000000E+01 0.  1.
         11    1    4    4    0    0  0.81335990442E+02  0.76370824656E+02  0.13555795338E+02  0.11239130655E+03  0.00000000000E+00 0. -1.
        -12    1    4    4    0    0  0.33019140334E+02 -0.21714504217E+02  0.76395042246E+01  0.40251029137E+02  0.00000000000E+00 0.  1.
<mgrwt>
<rscale>  2 0.20690022E+03</rscale>
<asrwt>0</asrwt>
<pdfrwt beam="1">  1       21 0.39991786E-01 0.20690324E+03</pdfrwt>
<pdfrwt beam="2">  1       21 0.26172647E-01 0.20690324E+03</pdfrwt>
<totfact> 0.83105686E+04</totfact>
</mgrwt>
</event>
<event>
12    1  0.1019868E-001  0.2151211E+03  0.7546771E-02  0.1137631E+00
         21   -1    0    0  501  502  0.00000000000E+00  0.00000000000E+00  0.49615313175E+02  0.49615313175E+02  0.00000000000E+00 0. -1.
         21   -1    0    0  502  503 -0.00000000000E+00 -0.00000000000E+00 -0.10206338476E+04  0.10206338476E+04  0.00000000000E+00 0.  1.
         -6    2    1    2    0  503 -0.17001655222E+02  0.12642451140E+03 -0.64341039909E+03  0.67832546054E+03  0.17284754956E+03 0.  0.
        -24    2    3    3    0    0  0.56967836402E+02  0.79914407978E+02 -0.44960995534E+03  0.46568638273E+03  0.71295498689E+02 0.  0.
          6    2    1    2  501    0  0.17001655222E+02 -0.12642451140E+03 -0.32760813537E+03  0.39192370028E+03  0.17321917652E+03 0.  0.
         24    2    5    5    0    0 -0.52044335151E+02 -0.87881513259E+02 -0.24529607571E+03  0.27768589280E+03  0.80669183125E+02 0.  0.
          5    1    5    5  501    0  0.69045990373E+02 -0.38542998139E+02 -0.82312059664E+02  0.11423780748E+03  0.47000000000E+01 0. -1.
        -13    1    6    6    0    0  0.15636711281E+02  0.35370991724E+01 -0.23887813351E+02  0.28768827521E+02  0.00000000000E+00 0.  1.
         14    1    6    6    0    0 -0.67681046432E+02 -0.91418612431E+02 -0.22140826236E+03  0.24891706528E+03  0.00000000000E+00 0. -1.
         -5    1    3    3    0  503 -0.73969491624E+02  0.46510103419E+02 -0.19380044375E+03  0.21263907780E+03  0.47000000000E+01 0.  1.
         13    1    4    4    0    0  0.68671234714E+02  0.83766945796E+02 -0.38684013821E+03  0.40171872276E+03  0.00000000000E+00 0. -1.
        -14    1    4    4    0    0 -0.11703398312E+02 -0.38525378179E+01 -0.62769817137E+02  0.63967659978E+02  0.00000000000E+00 0.  1.
<mgrwt>
<rscale>  2 0.21504630E+03</rscale>
<asrwt>0</asrwt>
<pdfrwt beam="1">  1       21 0.76331258E-02 0.21512112E+03</pdfrwt>
<pdfrwt beam="2">  1       21 0.15702058E+00 0.21512112E+03</pdfrwt>
<totfact> 0.34002137E+04</totfact>
</mgrwt>
</event>
<event>
12    1  0.1019868E-001  0.1950038E+03  0.7546771E-02  0.1154636E+00
         21   -1    0    0  501  502  0.00000000000E+00  0.00000000000E+00  0.22341015284E+03  0.22341015284E+03  0.00000000000E+00 0.  1.
         21   -1    0    0  502  503 -0.00000000000E+00 -0.00000000000E+00 -0.34753806110E+03  0.34753806110E+03  0.00000000000E+00 0.  1.
         -6    2    1    2    0  503  0.80045448006E+02  0.40157153617E+02 -0.26715270601E+03  0.32911653805E+03  0.17008014745E+03 0.  0.
        -24    2    3    3    0    0 -0.84347176497E+01 -0.20316225245E+02 -0.13013976849E+03  0.15510388244E+03  0.81467548968E+02 0.  0.
          6    2    1    2  501    0 -0.80045448006E+02 -0.40157153617E+02  0.14302479775E+03  0.24183167590E+03  0.17322412062E+03 0.  0.
         24    2    5    5    0    0  0.12070636337E+02 -0.53841121331E+02  0.47709774278E+02  0.10849125568E+03  0.80309173751E+02 0.  0.
          5    1    5    5  501    0 -0.92116084343E+02  0.13683967714E+02  0.95315023468E+02  0.13334042023E+03  0.47000000000E+01 0. -1.
        -13    1    6    6    0    0  0.41090496323E+02 -0.29672470343E+02  0.49280334390E+02  0.70692543750E+02  0.00000000000E+00 0.  1.
         14    1    6    6    0    0 -0.29019859986E+02 -0.24168650988E+02 -0.15705601112E+01  0.37798711925E+02  0.00000000000E+00 0. -1.
         -5    1    3    3    0  503  0.88480165656E+02  0.60473378862E+02 -0.13701293752E+03  0.17401265561E+03  0.47000000000E+01 0.  1.
         13    1    4    4    0    0  0.18107132027E+02  0.14672379454E+02 -0.69494042647E+01  0.24319563498E+02  0.00000000000E+00 0. -1.
        -14    1    4    4    0    0 -0.26541849677E+02 -0.34988604699E+02 -0.12319036422E+03  0.13078431894E+03  0.00000000000E+00 0.  1.
<mgrwt>
<rscale>  2 0.19430314E+03</rscale>
<asrwt>0</asrwt>
<pdfrwt beam="1">  1       21 0.34370793E-01 0.19500376E+03</pdfrwt>
<pdfrwt beam="2">  1       21 0.53467394E-01 0.19500376E+03</pdfrwt>
<totfact> 0.26974448E+04</totfact>
</mgrwt>
</event>
<event>
12    1  0.1019868E-001  0.1790621E+03  0.7546771E-02  0.1169405E+00
         21   -1    0    0  503  502  0.00000000000E+00  0.00000000000E+00  0.88684305360E+02  0.88684305360E+02  0.00000000000E+00 0.  1.
         21   -1    0    0  501  503 -0.00000000000E+00 -0.00000000000E+00 -0.41385175416E+03  0.41385175416E+03  0.00000000000E+00 0.  1.
          6    2    1    2  501    0 -0.37243391986E+02  0.86480058895E+01 -0.25772456576E+03  0.31382348861E+03  0.17493247828E+03 0.  0.
         24    2    3    3    0    0 -0.61661585294E+02 -0.46778292882E+00 -0.72213243344E+02  0.12643115549E+03  0.83472837747E+02 0.  0.
         -6    2    1    2    0  502  0.37243391986E+02 -0.86480058895E+01 -0.67442883040E+02  0.18871257091E+03  0.17205241554E+03 0.  0.
        -24    2    5    5    0    0 -0.39077797648E+02  0.13332516893E+02 -0.12607063159E+02  0.92083773383E+02  0.81336664570E+02 0.  0.
          5    1    3    3  501    0  0.24418193308E+02  0.91157888183E+01 -0.18551132242E+03  0.18739233313E+03  0.47000000000E+01 0. -1.
        -11    1    4    4    0    0  0.92360073735E+01 -0.19227606020E+02 -0.42014698243E+02  0.47119417801E+02  0.00000000000E+00 0.  1.
         12    1    4    4    0    0 -0.70897592667E+02  0.18759823092E+02 -0.30198545101E+02  0.79311737685E+02  0.00000000000E+00 0. -1.
         -5    1    5    5    0  502  0.76321189634E+02 -0.21980522782E+02 -0.54835819880E+02  0.96628797523E+02  0.47000000000E+01 0.  1.
         13    1    6    6    0    0 -0.10357516642E+02  0.43585856566E+02  0.80780173567E+01  0.45522076051E+02  0.00000000000E+00 0. -1.
        -14    1    6    6    0    0 -0.28720281006E+02 -0.30253339674E+02 -0.20685080516E+02  0.46561697332E+02  0.00000000000E+00 0.  1.
<mgrwt>
<rscale>  2 0.17835476E+03</rscale>
<asrwt>0</asrwt>
<pdfrwt beam="1">  1       21 0.13643739E-01 0.17906208E+03</pdfrwt>
<pdfrwt beam="2">  1       21 0.63669501E-01 0.17906208E+03</pdfrwt>
<totfact> 0.10674685E+05</totfact>
</mgrwt>
</event>
<event>
12    1  0.1019868E-001  0.1995191E+03  0.7546771E-02  0.1150455E+00
         21   -1    0    0  501  502  0.00000000000E+00  0.00000000000E+00  0.43339257110E+03  0.43339257110E+03  0.00000000000E+00 0. -1.
         21   -1    0    0  502  503 -0.00000000000E+00 -0.00000000000E+00 -0.91916968258E+02  0.91916968258E+02  0.00000000000E+00 0.  1.
         -6    2    1    2    0  503 -0.83315011251E+02  0.49782620059E+02  0.14785810728E+03  0.24833420371E+03  0.17432199082E+03 0.  0.
        -24    2    3    3    0    0 -0.26192569852E+02  0.18692463350E+02  0.15910064384E+01  0.88191373883E+02  0.82095847790E+02 0.  0.
          6    2    1    2  501    0  0.83315011251E+02 -0.49782620059E+02  0.19361749556E+03  0.27697533565E+03  0.17264964990E+03 0.  0.
         24    2    5    5    0    0  0.96571824770E+02  0.61789617212E+01  0.80618343444E+02  0.15009610126E+03  0.81640831737E+02 0.  0.
          5    1    5    5  501    0 -0.13256813518E+02 -0.55961581781E+02  0.11299915212E+03  0.12687923439E+03  0.47000000000E+01 0. -1.
        -13    1    6    6    0    0  0.50925490038E+02 -0.22982638436E+02  0.36658006639E+01  0.55991475240E+02  0.00000000000E+00 0.  1.
         14    1    6    6    0    0  0.45646334732E+02  0.29161600157E+02  0.76952542780E+02  0.94104626020E+02  0.00000000000E+00 0. -1.
         -5    1    3    3    0  503 -0.57122441400E+02  0.31090156709E+02  0.14626710085E+03  0.16014282983E+03  0.47000000000E+01 0.  1.
         11    1    4    4    0    0 -0.32682896174E+02 -0.25003175115E+02 -0.10348330404E+02  0.42431337597E+02  0.00000000000E+00 0. -1.
        -12    1    4    4    0    0  0.64903263224E+01  0.43695638465E+02  0.11939336843E+02  0.45760036286E+02  0.00000000000E+00 0.  1.
<mgrwt>
<rscale>  2 0.19915319E+03</rscale>
<asrwt>0</asrwt>
<pdfrwt beam="1">  1       21 0.66675779E-01 0.19951906E+03</pdfrwt>
<pdfrwt beam="2">  1       21 0.14141072E-01 0.19951906E+03</pdfrwt>
<totfact> 0.89763571E+04</totfact>
</mgrwt>
</event>
<event>
12    1  0.1019868E-001  0.1973469E+03  0.7546771E-02  0.1152163E+00
         21   -1    0    0  501  502  0.00000000000E+00  0.00000000000E+00  0.63128376185E+02  0.63128376185E+02  0.00000000000E+00 0. -1.
         21   -1    0    0  502  503 -0.00000000000E+00 -0.00000000000E+00 -0.12616870129E+04  0.12616870129E+04  0.00000000000E+00 0. -1.
         -6    2    1    2    0  503 -0.19400422169E+02 -0.92842549123E+02 -0.10731222434E+04  0.10909776323E+04  0.17217644913E+03 0.  0.
        -24    2    3    3    0    0  0.37056647205E+02 -0.19806801018E+02 -0.31887651859E+03  0.33108926909E+03  0.78564403692E+02 0.  0.
          6    2    1    2  501    0  0.19400422169E+02  0.92842549123E+02 -0.12543639337E+03  0.23383775682E+03  0.17305979436E+03 0.  0.
         24    2    5    5    0    0  0.19081760862E+02  0.12967886961E+03 -0.76394748983E+02  0.17232199513E+03  0.81718966659E+02 0.  0.
          5    1    5    5  501    0  0.31866130644E+00 -0.36836320488E+02 -0.49041644385E+02  0.61515761688E+02  0.47000000000E+01 0. -1.
        -11    1    6    6    0    0  0.30674775572E+02  0.47671985934E+02 -0.68809254108E+02  0.89153090525E+02  0.00000000000E+00 0.  1.
         12    1    6    6    0    0 -0.11593014710E+02  0.82006883677E+02 -0.75854948751E+01  0.83168904604E+02  0.00000000000E+00 0. -1.
         -5    1    3    3    0  503 -0.56457069374E+02 -0.73035748105E+02 -0.75424572476E+03  0.75988836319E+03  0.47000000000E+01 0.  1.
         11    1    4    4    0    0  0.85969488903E+01 -0.28295263927E+02 -0.28288562828E+03  0.28442715794E+03  0.00000000000E+00 0. -1.
        -12    1    4    4    0    0  0.28459698315E+02  0.84884629089E+01 -0.35990890317E+02  0.46662111145E+02  0.00000000000E+00 0.  1.
<mgrwt>
<rscale>  2 0.19715309E+03</rscale>
<asrwt>0</asrwt>
<pdfrwt beam="1">  1       21 0.97120593E-02 0.19734692E+03</pdfrwt>
<pdfrwt beam="2">  1       21 0.19410567E+00 0.19734692E+03</pdfrwt>
<totfact> 0.12477782E+04</totfact>
</mgrwt>
</event>
<event>
12    1  0.1019868E-001  0.1803293E+03  0.7546771E-02  0.1167487E+00
         21   -1    0    0  503  502  0.00000000000E+00  0.00000000000E+00  0.78686952936E+02  0.78686952936E+02  0.00000000000E+00 0. -1.
         21   -1    0    0  501  503 -0.00000000000E+00 -0.00000000000E+00 -0.56530516521E+03  0.56530516521E+03  0.00000000000E+00 0. -1.
          6    2    1    2  501    0 -0.66865511383E+01  0.52309297315E+02 -0.41031122156E+03  0.44818965505E+03  0.17244621134E+03 0.  0.
         24    2    3    3    0    0  0.43207213464E+02  0.63990290969E+02 -0.17876907998E+03  0.21099841009E+03  0.81242380994E+02 0.  0.
         -6    2    1    2    0  502  0.66865511383E+01 -0.52309297315E+02 -0.76306990721E+02  0.19580246310E+03  0.17243803285E+03 0.  0.
        -24    2    5    5    0    0  0.24062244398E+02 -0.30010286124E+02  0.26089880425E+02  0.89471048003E+02  0.76451145783E+02 0.  0.
          5    1    3    3  501    0 -0.49893764602E+02 -0.11680993654E+02 -0.23154214158E+03  0.23719124496E+03  0.47000000000E+01 0. -1.
        -11    1    4    4    0    0  0.42484190367E+02  0.27048502447E+02 -0.16339114318E+03  0.17097717270E+03  0.00000000000E+00 0.  1.
         12    1    4    4    0    0  0.72302309676E+00  0.36941788522E+02 -0.15377936797E+02  0.40021237383E+02  0.00000000000E+00 0. -1.
         -5    1    5    5    0  502 -0.17375693259E+02 -0.22299011190E+02 -0.10239687115E+03  0.10633141510E+03  0.47000000000E+01 0.  1.
         13    1    6    6    0    0  0.28625248658E+01 -0.53603198503E+02  0.13546006400E+02  0.55362362917E+02  0.00000000000E+00 0. -1.
        -14    1    6    6    0    0  0.21199719532E+02  0.23592912379E+02  0.12543874025E+02  0.34108685086E+02  0.00000000000E+00 0.  1.
<mgrwt>
<rscale>  2 0.18032738E+03</rscale>
<asrwt>0</asrwt>
<pdfrwt beam="1">  1       21 0.12105686E-01 0.18032933E+03</pdfrwt>
<pdfrwt beam="2">  1       21 0.86970021E-01 0.18032933E+03</pdfrwt>
<totfact> 0.66045594E+04</totfact>
</mgrwt>
</event>
<event>
12    1  0.1019868E-001  0.2739393E+03  0.7546771E-02  0.1099097E+00
         21   -1    0    0  503  502  0.00000000000E+00  0.00000000000E+00  0.12275400888E+03  0.12275400888E+03  0.00000000000E+00 0. -1.
         21   -1    0    0  501  503 -0.00000000000E+00 -0.00000000000E+00 -0.79781359833E+03  0.79781359833E+03  0.00000000000E+00 0. -1.
          6    2    1    2  501    0 -0.20198866687E+03  0.62599664064E+02 -0.56072459258E+03  0.62406313731E+03  0.17413957376E+03 0.  0.
         24    2    3    3    0    0 -0.10342136797E+03  0.10352909803E+03 -0.34646153448E+03  0.38464409245E+03  0.80630202108E+02 0.  0.
         -6    2    1    2    0  502  0.20198866687E+03 -0.62599664064E+02 -0.11433499687E+03  0.29650446990E+03  0.17356344568E+03 0.  0.
        -24    2    5    5    0    0  0.19511638353E+03 -0.10111767704E+03 -0.10033755254E+03  0.25468480885E+03  0.80632125604E+02 0.  0.
          5    1    3    3  501    0 -0.98567298895E+02 -0.40929433968E+02 -0.21426305810E+03  0.23941904486E+03  0.47000000000E+01 0. -1.
        -13    1    4    4    0    0 -0.20511823125E+02 -0.27692296991E+01 -0.11740658829E+02  0.23795936434E+02  0.00000000000E+00 0.  1.
         14    1    4    4    0    0 -0.82909544847E+02  0.10629832773E+03 -0.33472087565E+03  0.36084815602E+03  0.00000000000E+00 0. -1.
         -5    1    5    5    0  502  0.68722833386E+01  0.38518012978E+02 -0.13997444336E+02  0.41819661045E+02  0.47000000000E+01 0.  1.
         11    1    6    6    0    0  0.12576022832E+03 -0.32564089942E+02 -0.86783588017E+02  0.15622882618E+03  0.00000000000E+00 0. -1.
        -12    1    6    6    0    0  0.69356155206E+02 -0.68553587099E+02 -0.13553964521E+02  0.98455982669E+02  0.00000000000E+00 0.  1.
<mgrwt>
<rscale>  2 0.27384777E+03</rscale>
<asrwt>0</asrwt>
<pdfrwt beam="1">  1       21 0.18885233E-01 0.27393928E+03</pdfrwt>
<pdfrwt beam="2">  1       21 0.12274055E+00 0.27393928E+03</pdfrwt>
<totfact> 0.12210684E+04</totfact>
</mgrwt>
</event>
<event>
12    1  0.1019868E-001  0.2100656E+03  0.7546771E-02  0.1141654E+00
         21   -1    0    0  503  502  0.00000000000E+00  0.00000000000E+00  0.45933424143E+02  0.45933424143E+02  0.00000000000E+00 0. -1.
         21   -1    0    0  501  503 -0.00000000000E+00 -0.00000000000E+00 -0.10973250277E+04  0.10973250277E+04  0.00000000000E+00 0. -1.
          6    2    1    2  501    0  0.11403910514E+03  0.35262021074E+02 -0.73055930401E+03  0.76016081285E+03  0.17285611672E+03 0.  0.
         24    2    3    3    0    0 -0.85148368025E+01  0.11204182068E+02 -0.21976096980E+03  0.23429459742E+03  0.80006489671E+02 0.  0.
         -6    2    1    2    0  502 -0.11403910514E+03 -0.35262021074E+02 -0.32083229951E+03  0.38309763895E+03  0.17199450263E+03 0.  0.
        -24    2    5    5    0    0 -0.75615733755E+02 -0.67278289607E+02 -0.30363305544E+03  0.33000054943E+03  0.80394171596E+02 0.  0.
          5    1    3    3  501    0  0.12255394194E+03  0.24057839006E+02 -0.51079833421E+03  0.52586621543E+03  0.47000000000E+01 0. -1.
        -13    1    4    4    0    0 -0.36153782269E+02 -0.18112405386E+01 -0.49553335373E+02  0.61367007514E+02  0.00000000000E+00 0.  1.
         14    1    4    4    0    0  0.27638945467E+02  0.13015422607E+02 -0.17020763443E+03  0.17292758990E+03  0.00000000000E+00 0. -1.
         -5    1    5    5    0  502 -0.38423371381E+02  0.32016268533E+02 -0.17199244069E+02  0.53097089521E+02  0.47000000000E+01 0.  1.
         13    1    6    6    0    0  0.12046548391E+02 -0.23854559552E+02 -0.34503148223E+02  0.43642027643E+02  0.00000000000E+00 0. -1.
        -14    1    6    6    0    0 -0.87662282146E+02 -0.43423730055E+02 -0.26912990722E+03  0.28635852179E+03  0.00000000000E+00 0.  1.
<mgrwt>
<rscale>  2 0.20988829E+03</rscale>
<asrwt>0</asrwt>
<pdfrwt beam="1">  1       21 0.70666810E-02 0.21006562E+03</pdfrwt>
<pdfrwt beam="2">  1       21 0.16881923E+00 0.21006562E+03</pdfrwt>
<totfact> 0.32007988E+04</totfact>
</mgrwt>
</event>
<event>
12    1  0.1019868E-001  0.2061039E+03  0.7546771E-02  0.1144785E+00
         21   -1    0    0  503  502  0.00000000000E+00  0.00000000000E+00  0.18795622489E+03  0.18795622489E+03  0.00000000000E+00 0. -1.
         21   -1    0    0  501  503 -0.00000000000E+00 -0.00000000000E+00 -0.30040660840E+03  0.30040660840E+03  0.00000000000E+00 0. -1.
          6    2    1    2  501    0 -0.75955707860E+02 -0.81400025938E+02 -0.17812032392E+03  0.27204977129E+03  0.17288433846E+03 0.  0.
         24    2    3    3    0    0 -0.11953590047E+03 -0.56613326573E+02 -0.15073980659E+03  0.21473139393E+03  0.76767063262E+02 0.  0.
         -6    2    1    2    0  502  0.75955707860E+02  0.81400025938E+02  0.65669940406E+02  0.21631306200E+03  0.17344614709E+03 0.  0.
        -24    2    5    5    0    0  0.11313388002E+02  0.97288918828E+02  0.77352498317E+02  0.14856604293E+03  0.80593632757E+02 0.  0.
          5    1    3    3  501    0  0.43580192610E+02 -0.24786699365E+02 -0.27380517339E+02  0.57318377359E+02  0.47000000000E+01 0. -1.
        -13    1    4    4    0    0 -0.37852308041E+02  0.15868533213E+02 -0.24454472845E+02  0.47776864825E+02  0.00000000000E+00 0.  1.
         14    1    4    4    0    0 -0.81683592429E+02 -0.72481859786E+02 -0.12628533374E+03  0.16695452910E+03  0.00000000000E+00 0. -1.
         -5    1    5    5    0  502  0.64642319858E+02 -0.15888892890E+02 -0.11682557911E+02  0.67747019073E+02  0.47000000000E+01 0.  1.
         11    1    6    6    0    0 -0.14548448298E+02  0.27458544261E+02 -0.11049357850E+02  0.32980559572E+02  0.00000000000E+00 0. -1.
        -12    1    6    6    0    0  0.25861836300E+02  0.69830374567E+02  0.88401856168E+02  0.11558548336E+03  0.00000000000E+00 0.  1.
<mgrwt>
<rscale>  2 0.20598561E+03</rscale>
<asrwt>0</asrwt>
<pdfrwt beam="1">  1       21 0.28916342E-01 0.20610386E+03</pdfrwt>
<pdfrwt beam="2">  1       21 0.46216402E-01 0.20610386E+03</pdfrwt>
<totfact> 0.51011968E+04</totfact>
</mgrwt>
</event>
<event>
12    1  0.1019868E-001  0.1840975E+03  0.7546771E-02  0.1165318E+00
         21   -1    0    0  501  502  0.00000000000E+00  0.00000000000E+00  0.38992778225E+03  0.38992778225E+03  0.00000000000E+00 0.  1.
         21   -1    0    0  502  503 -0.00000000000E+00 -0.00000000000E+00 -0.30633471762E+03  0.30633471762E+03  0.00000000000E+00 0.  1.
         -6    2    1    2    0  503  0.14126997414E+02 -0.40485938948E+02 -0.25450002784E+03  0.31410533840E+03  0.17903412002E+03 0.  0.
        -24    2    3    3    0    0  0.78505862343E+02 -0.30853983080E+02 -0.15716931621E+03  0.19691843534E+03  0.83423842654E+02 0.  0.
          6    2    1    2  501    0 -0.14126997414E+02  0.40485938948E+02  0.33809309247E+03  0.38215716148E+03  0.17291175085E+03 0.  0.
         24    2    5    5    0    0  0.63364340375E+01 -0.25877651314E+00  0.32494346617E+03  0.33447187510E+03  0.79012414624E+02 0.  0.
          5    1    5    5  501    0 -0.20463431452E+02  0.40744715461E+02  0.13149626300E+02  0.47685286375E+02  0.47000000000E+01 0. -1.
        -11    1    6    6    0    0 -0.92745113493E+01 -0.10347075442E+02  0.62488511408E+01  0.15235703841E+02  0.00000000000E+00 0.  1.
         12    1    6    6    0    0  0.15610945387E+02  0.10088298929E+02  0.31869461503E+03  0.31923617126E+03  0.00000000000E+00 0. -1.
         -5    1    3    3    0  503 -0.64378864928E+02 -0.96319558682E+01 -0.97330711624E+02  0.11718690306E+03  0.47000000000E+01 0.  1.
         11    1    4    4    0    0  0.20676325099E+02  0.92485340588E+01  0.21463648075E+01  0.22751981974E+02  0.00000000000E+00 0. -1.
        -12    1    4    4    0    0  0.57829537244E+02 -0.40102517139E+02 -0.15931568102E+03  0.17416645336E+03  0.00000000000E+00 0.  1.
<mgrwt>
<rscale>  2 0.18259209E+03</rscale>
<asrwt>0</asrwt>
<pdfrwt beam="1">  1       21 0.59988890E-01 0.18409753E+03</pdfrwt>
<pdfrwt beam="2">  1       21 0.47128418E-01 0.18409753E+03</pdfrwt>
<totfact> 0.11232457E+04</totfact>
</mgrwt>
</event>
<event>
12    1  0.1019868E-001  0.2618811E+03  0.7546771E-02  0.1106287E+00
         21   -1    0    0  503  502  0.00000000000E+00  0.00000000000E+00  0.36998465630E+03  0.36998465630E+03  0.00000000000E+00 0.  1.
         21   -1    0    0  501  503 -0.00000000000E+00 -0.00000000000E+00 -0.27787063325E+03  0.27787063325E+03  0.00000000000E+00 0.  1.
          6    2    1    2  501    0  0.19465997030E+03 -0.29430151853E+02 -0.14223102839E+03  0.29643059903E+03  0.16994939462E+03 0.  0.
         24    2    3    3    0    0  0.17502812406E+03 -0.75315228296E+02 -0.94851693034E+02  0.22745421868E+03  0.80195698775E+02 0.  0.
         -6    2    1    2    0  502 -0.19465997030E+03  0.29430151853E+02  0.23434505145E+03  0.35142469051E+03  0.17269357859E+03 0.  0.
        -24    2    5    5    0    0 -0.12244154784E+03  0.11337067465E+01  0.59869005359E+02  0.16042686328E+03  0.84612426575E+02 0.  0.
          5    1    3    3  501    0  0.19631846245E+02  0.45885076443E+02 -0.47379335359E+02  0.68976380350E+02  0.47000000000E+01 0. -1.
        -11    1    4    4    0    0  0.17320480534E+03 -0.48567808698E+02 -0.81065163783E+02  0.19730762128E+03  0.00000000000E+00 0.  1.
         12    1    4    4    0    0  0.18233187120E+01 -0.26747419598E+02 -0.13786529250E+02  0.30146597404E+02  0.00000000000E+00 0. -1.
         -5    1    5    5    0  502 -0.72218422464E+02  0.28296445106E+02  0.17447604609E+03  0.19099782723E+03  0.47000000000E+01 0.  1.
         11    1    6    6    0    0 -0.12077135478E+03  0.17145814157E+02  0.28650601328E+02  0.12530185967E+03  0.00000000000E+00 0. -1.
        -12    1    6    6    0    0 -0.16701930538E+01 -0.16012107410E+02  0.31218404030E+02  0.35125003612E+02  0.00000000000E+00 0.  1.
<mgrwt>
<rscale>  2 0.26142958E+03</rscale>
<asrwt>0</asrwt>
<pdfrwt beam="1">  1       21 0.56920716E-01 0.26188110E+03</pdfrwt>
<pdfrwt beam="2">  1       21 0.42749328E-01 0.26188110E+03</pdfrwt>
<totfact> 0.14678384E+04</totfact>
</mgrwt>
</event>
<event>
12    1  0.1019868E-001  0.2113223E+03  0.7546771E-02  0.1140572E+00
         21   -1    0    0  503  502  0.00000000000E+00  0.00000000000E+00  0.10757222175E+03  0.10757222175E+03  0.00000000000E+00 0.  1.
         21   -1    0    0  501  503 -0.00000000000E+00 -0.00000000000E+00 -0.41468835925E+03  0.41468835925E+03  0.00000000000E+00 0.  1.
          6    2    1    2  501    0 -0.11142709345E+03  0.48518492255E+02 -0.15089453813E+03  0.25946354075E+03  0.17257498687E+03 0.  0.
         24    2    3    3    0    0 -0.14116692712E+02 -0.10476865881E+02 -0.11226404481E+03  0.13919645719E+03  0.80395225015E+02 0.  0.
         -6    2    1    2    0  502  0.11142709345E+03 -0.48518492255E+02 -0.15622159937E+03  0.26279704026E+03  0.17287872921E+03 0.  0.
        -24    2    5    5    0    0  0.72878237348E+02 -0.36096725772E+02  0.24118323654E+01  0.99007632012E+02  0.56413501672E+02 0.  0.
          5    1    3    3  501    0 -0.97310400742E+02  0.58995358136E+02 -0.38630493326E+02  0.12026708356E+03  0.47000000000E+01 0. -1.
        -13    1    4    4    0    0 -0.16129922637E+02  0.14046453408E+02  0.27635884712E+01  0.21566517541E+02  0.00000000000E+00 0.  1.
         14    1    4    4    0    0  0.20132299246E+01 -0.24523319289E+02 -0.11502763328E+03  0.11762993965E+03  0.00000000000E+00 0. -1.
         -5    1    5    5    0  502  0.38548856106E+02 -0.12421766483E+02 -0.15863343173E+03  0.16378940824E+03  0.47000000000E+01 0.  1.
         11    1    6    6    0    0  0.98589435908E+01 -0.29040422823E+01  0.22725242516E+02  0.24941308661E+02  0.00000000000E+00 0. -1.
        -12    1    6    6    0    0  0.63019293757E+02 -0.33192683490E+02 -0.20313410151E+02  0.74066323352E+02  0.00000000000E+00 0.  1.
<mgrwt>
<rscale>  2 0.21126013E+03</rscale>
<asrwt>0</asrwt>
<pdfrwt beam="1">  1       21 0.16549572E-01 0.21132226E+03</pdfrwt>
<pdfrwt beam="2">  1       21 0.63798209E-01 0.21132226E+03</pdfrwt>
<totfact> 0.73779265E+04</totfact>
</mgrwt>
</event>
<event>
12    1  0.1019868E-001  0.3082514E+03  0.7546771E-02  0.1081240E+00
         21   -1    0    0  503  502  0.00000000000E+00  0.00000000000E+00  0.55995300276E+03  0.55995300276E+03  0.00000000000E+00 0. -1.
         21   -1    0    0  501  503 -0.00000000000E+00 -0.00000000000E+00 -0.33422738800E+03  0.33422738800E+03  0.00000000000E+00 0.  1.
          6    2    1    2  501    0  0.13538649949E+03 -0.21557761494E+03 -0.20110008604E+03  0.36768340489E+03  0.17305094428E+03 0.  0.
         24    2    3    3    0    0  0.96263267668E+02 -0.23039705885E+03 -0.14655612859E+03  0.29878219677E+03  0.73774527114E+02 0.  0.
         -6    2    1    2    0  502 -0.13538649949E+03  0.21557761494E+03  0.42682570081E+03  0.52649698587E+03  0.17382659449E+03 0.  0.
        -24    2    5    5    0    0 -0.79967108369E+02  0.48464361103E+02  0.23870978044E+03  0.26879980308E+03  0.80792587171E+02 0.  0.
          5    1    3    3  501    0  0.39123231818E+02  0.14819443910E+02 -0.54543957450E+02  0.68901208117E+02  0.47000000000E+01 0. -1.
        -13    1    4    4    0    0  0.62781828537E+02 -0.20904942099E+03 -0.13776331911E+03  0.25811228274E+03  0.00000000000E+00 0.  1.
         14    1    4    4    0    0  0.33481439131E+02 -0.21347637861E+02 -0.87928094809E+01  0.40669914028E+02  0.00000000000E+00 0. -1.
         -5    1    5    5    0  502 -0.55419391117E+02  0.16711325384E+03  0.18811592037E+03  0.25769718279E+03  0.47000000000E+01 0.  1.
         13    1    6    6    0    0 -0.84599391144E+02  0.51669490998E+02  0.14930123212E+03  0.17921398158E+03  0.00000000000E+00 0. -1.
        -14    1    6    6    0    0  0.46322827753E+01 -0.32051298944E+01  0.89408548317E+02  0.89585821499E+02  0.00000000000E+00 0.  1.
<mgrwt>
<rscale>  2 0.30814211E+03</rscale>
<asrwt>0</asrwt>
<pdfrwt beam="1">  1       21 0.86146615E-01 0.30825135E+03</pdfrwt>
<pdfrwt beam="2">  1       21 0.51419598E-01 0.30825135E+03</pdfrwt>
<totfact> 0.38730247E+03</totfact>
</mgrwt>
</event>
<event>
12    1  0.1019868E-001  0.2557520E+03  0.7546771E-02  0.1109795E+00
         21   -1    0    0  503  502  0.00000000000E+00  0.00000000000E+00  0.11770640638E+04  0.11770640638E+04  0.00000000000E+00 0. -1.
         21   -1    0    0  501  503 -0.00000000000E+00 -0.00000000000E+00 -0.55470790196E+02  0.55470790196E+02  0.00000000000E+00 0.  1.
          6    2    1    2  501    0  0.91186497301E+02 -0.16474955077E+03  0.56473530545E+03  0.61975440307E+03  0.17237216462E+03 0.  0.
         24    2    3    3    0    0  0.68027861850E+02 -0.16823673732E+03  0.33611626408E+03  0.38989088064E+03  0.78162433804E+02 0.  0.
         -6    2    1    2    0  502 -0.91186497301E+02  0.16474955077E+03  0.55685796813E+03  0.61278045090E+03  0.17306557303E+03 0.  0.
        -24    2    5    5    0    0 -0.43749784418E+02  0.18224054115E+03  0.44986875550E+03  0.49435343501E+03  0.82932279932E+02 0.  0.
          5    1    3    3  501    0  0.23158635451E+02  0.34871865517E+01  0.22861904137E+03  0.22986352243E+03  0.47000000000E+01 0. -1.
        -11    1    4    4    0    0  0.34781970206E+02 -0.15339670298E+03  0.29929616770E+03  0.33811023341E+03  0.00000000000E+00 0.  1.
         12    1    4    4    0    0  0.33245891644E+02 -0.14840034336E+02  0.36820096377E+02  0.51780647230E+02  0.00000000000E+00 0. -1.
         -5    1    5    5    0  502 -0.47436712883E+02 -0.17490990386E+02  0.10698921263E+03  0.11842701589E+03  0.47000000000E+01 0.  1.
         11    1    6    6    0    0 -0.19095606895E+01  0.59254427310E+02  0.24259619979E+03  0.24973515918E+03  0.00000000000E+00 0. -1.
        -12    1    6    6    0    0 -0.41840223729E+02  0.12298611384E+03  0.20727255571E+03  0.24461827583E+03  0.00000000000E+00 0.  1.
<mgrwt>
<rscale>  2 0.25563474E+03</rscale>
<asrwt>0</asrwt>
<pdfrwt beam="1">  1       21 0.18108676E+00 0.25575200E+03</pdfrwt>
<pdfrwt beam="2">  1       21 0.85339686E-02 0.25575200E+03</pdfrwt>
<totfact> 0.18402882E+04</totfact>
</mgrwt>
</event>
<event>
12    1  0.1019868E-001  0.1887801E+03  0.7546771E-02  0.1159867E+00
         21   -1    0    0  503  502  0.00000000000E+00  0.00000000000E+00  0.88239105141E+03  0.88239105141E+03  0.00000000000E+00 0. -1.
         21   -1    0    0  501  503 -0.00000000000E+00 -0.00000000000E+00 -0.34418417681E+03  0.34418417681E+03  0.00000000000E+00 0. -1.
          6    2    1    2  501    0 -0.74815741629E+02 -0.78932976677E+01 -0.30723572597E+03  0.36059912069E+03  0.17314223975E+03 0.  0.
         24    2    3    3    0    0 -0.26108486886E+02 -0.12728727136E+02 -0.49710006246E+02  0.98421004971E+02  0.79824406772E+02 0.  0.
         -6    2    1    2    0  502  0.74815741629E+02  0.78932976677E+01  0.84544260057E+03  0.86597610752E+03  0.17170244200E+03 0.  0.
        -24    2    5    5    0    0  0.51814703317E+02  0.54156339206E+02  0.34880691877E+03  0.36663813859E+03  0.84496068134E+02 0.  0.
          5    1    3    3  501    0 -0.48707254743E+02  0.48354294683E+01 -0.25752571973E+03  0.26217811572E+03  0.47000000000E+01 0. -1.
        -11    1    4    4    0    0 -0.34044331055E+02 -0.41615743208E+02 -0.39700578363E+02  0.66835787435E+02  0.00000000000E+00 0.  1.
         12    1    4    4    0    0  0.79358441690E+01  0.28887016072E+02 -0.10009427883E+02  0.31585217536E+02  0.00000000000E+00 0. -1.
         -5    1    5    5    0  502  0.23001038312E+02 -0.46263041538E+02  0.49663568180E+03  0.49933796893E+03  0.47000000000E+01 0.  1.
         13    1    6    6    0    0  0.52346359655E+02  0.20151528714E+02  0.31001805820E+03  0.31505145912E+03  0.00000000000E+00 0. -1.
        -14    1    6    6    0    0 -0.53165633764E+00  0.34004810492E+02  0.38788860568E+02  0.51586679474E+02  0.00000000000E+00 0.  1.
<mgrwt>
<rscale>  2 0.18844934E+03</rscale>
<asrwt>0</asrwt>
<pdfrwt beam="1">  1       21 0.13575247E+00 0.18878012E+03</pdfrwt>
<pdfrwt beam="2">  1       21 0.52951412E-01 0.18878012E+03</pdfrwt>
<totfact> 0.13139562E+03</totfact>
</mgrwt>
</event>
<event>
12    1  0.1019868E-001  0.1839325E+03  0.7546771E-02  0.1164360E+00
         21   -1    0    0  501  502  0.00000000000E+00  0.00000000000E+00  0.14204179163E+04  0.14204179163E+04  0.00000000000E+00 0.  1.
         21   -1    0    0  502  503 -0.00000000000E+00 -0.00000000000E+00 -0.63762323246E+02  0.63762323246E+02  0.00000000000E+00 0.  1.
         -6    2    1    2    0  503 -0.25082050615E+02 -0.59840242323E+02  0.90626024090E+02  0.20504696407E+03  0.17210815602E+03 0.  0.
        -24    2    3    3    0    0 -0.76151876771E+02 -0.34036786908E+02  0.91590847740E+02  0.14762774830E+03  0.80296061417E+02 0.  0.
          6    2    1    2  501    0  0.25082050615E+02  0.59840242323E+02  0.12660295690E+04  0.12791332755E+04  0.17070765384E+03 0.  0.
         24    2    5    5    0    0 -0.33349010296E+02 -0.91050162740E+01  0.47296122009E+03  0.48091830848E+03  0.79969030930E+02 0.  0.
          5    1    5    5  501    0  0.58431060910E+02  0.68945258597E+02  0.79306834886E+03  0.79821496699E+03  0.47000000000E+01 0. -1.
        -11    1    6    6    0    0 -0.20155671632E+02  0.54186807949E+01  0.45094349544E+03  0.45142623903E+03  0.00000000000E+00 0.  1.
         12    1    6    6    0    0 -0.13193338663E+02 -0.14523697069E+02  0.22017724649E+02  0.29492069448E+02  0.00000000000E+00 0. -1.
         -5    1    3    3    0  503  0.51069826157E+02 -0.25803455414E+02 -0.96482365006E+00  0.57419215770E+02  0.47000000000E+01 0.  1.
         11    1    4    4    0    0 -0.13705593110E+02  0.18433456083E+02  0.52240897789E+02  0.57067915570E+02  0.00000000000E+00 0. -1.
        -12    1    4    4    0    0 -0.62446283662E+02 -0.52470242991E+02  0.39349949951E+02  0.90559832728E+02  0.00000000000E+00 0.  1.
<mgrwt>
<rscale>  2 0.18360422E+03</rscale>
<asrwt>0</asrwt>
<pdfrwt beam="1">  1       21 0.21852581E+00 0.18393255E+03</pdfrwt>
<pdfrwt beam="2">  1       21 0.98095892E-02 0.18393255E+03</pdfrwt>
<totfact> 0.86917088E+03</totfact>
</mgrwt>
</event>
<event>
12    1  0.1019868E-001  0.1958437E+03  0.7546771E-02  0.1153500E+00
         21   -1    0    0  503  502  0.00000000000E+00  0.00000000000E+00  0.52044318247E+03  0.52044318247E+03  0.00000000000E+00 0. -1.
         21   -1    0    0  501  503 -0.00000000000E+00 -0.00000000000E+00 -0.14001146715E+03  0.14001146715E+03  0.00000000000E+00 0. -1.
          6    2    1    2  501    0 -0.48460605228E+02 -0.75963445001E+02 -0.37902232781E+02  0.19854766509E+03  0.17281701545E+03 0.  0.
         24    2    3    3    0    0 -0.14267991460E+02  0.13781221815E+02 -0.57921190358E+02  0.10033316148E+03  0.79488246582E+02 0.  0.
         -6    2    1    2    0  502  0.48460605228E+02  0.75963445001E+02  0.41833394810E+03  0.46190698452E+03  0.17388471752E+03 0.  0.
        -24    2    5    5    0    0  0.76028679834E+02  0.76571908446E+01  0.19036243254E+03  0.22228468798E+03  0.85636639706E+02 0.  0.
          5    1    3    3  501    0 -0.34192613768E+02 -0.89744666816E+02  0.20018957577E+02  0.98214503616E+02  0.47000000000E+01 0. -1.
        -11    1    4    4    0    0 -0.14522349937E+02  0.11784645768E+02 -0.77970977757E+02  0.80182603449E+02  0.00000000000E+00 0.  1.
         12    1    4    4    0    0  0.25435847755E+00  0.19965760475E+01  0.20049787399E+02  0.20150558029E+02  0.00000000000E+00 0. -1.
         -5    1    5    5    0  502 -0.27568074606E+02  0.68306254156E+02  0.22797151556E+03  0.23962229654E+03  0.47000000000E+01 0.  1.
         13    1    6    6    0    0  0.12970581436E+02  0.40290281420E+02  0.54684046063E+02  0.69151194158E+02  0.00000000000E+00 0. -1.
        -14    1    6    6    0    0  0.63058098398E+02 -0.32633090575E+02  0.13567838647E+03  0.15313349382E+03  0.00000000000E+00 0.  1.
<mgrwt>
<rscale>  2 0.19560647E+03</rscale>
<asrwt>0</asrwt>
<pdfrwt beam="1">  1       21 0.80068181E-01 0.19584374E+03</pdfrwt>
<pdfrwt beam="2">  1       21 0.21540226E-01 0.19584374E+03</pdfrwt>
<totfact> 0.27523105E+04</totfact>
</mgrwt>
</event>
<event>
12    1  0.1019868E-001  0.2658906E+03  0.7546771E-02  0.1104113E+00
         21   -1    0    0  503  502  0.00000000000E+00  0.00000000000E+00  0.71975553768E+03  0.71975553768E+03  0.00000000000E+00 0. -1.
         21   -1    0    0  501  503 -0.00000000000E+00 -0.00000000000E+00 -0.16161833418E+03  0.16161833418E+03  0.00000000000E+00 0.  1.
          6    2    1    2  501    0  0.20077607082E+03  0.17361460259E+02 -0.40558680572E+00  0.26277234708E+03  0.16863182077E+03 0.  0.
         24    2    3    3    0    0  0.31544006900E+02  0.16344291941E+02  0.26363641812E+02  0.91368707421E+02  0.79943973105E+02 0.  0.
         -6    2    1    2    0  502 -0.20077607082E+03 -0.17361460259E+02  0.55854279031E+03  0.61860152477E+03  0.17345128113E+03 0.  0.
        -24    2    5    5    0    0 -0.18357203766E+03  0.38489117121E+02  0.47253591381E+03  0.51451243526E+03  0.79074338727E+02 0.  0.
          5    1    3    3  501    0  0.16923206392E+03  0.10171683178E+01 -0.26769228618E+02  0.17140363966E+03  0.47000000000E+01 0. -1.
        -13    1    4    4    0    0  0.84169195723E+01 -0.19408695780E+02 -0.19510272650E+02  0.28778338135E+02  0.00000000000E+00 0.  1.
         14    1    4    4    0    0  0.23127087328E+02  0.35752987721E+02  0.45873914462E+02  0.62590369286E+02  0.00000000000E+00 0. -1.
         -5    1    5    5    0  502 -0.17204033152E+02 -0.55850577380E+02  0.86006876495E+02  0.10408908951E+03  0.47000000000E+01 0.  1.
         13    1    6    6    0    0 -0.42519878318E+02  0.36972640335E+02  0.83867758358E+02  0.10103819613E+03  0.00000000000E+00 0. -1.
        -14    1    6    6    0    0 -0.14105215935E+03  0.15164767861E+01  0.38866815545E+03  0.41347423913E+03  0.00000000000E+00 0.  1.
<mgrwt>
<rscale>  2 0.26510749E+03</rscale>
<asrwt>0</asrwt>
<pdfrwt beam="1">  1       21 0.11073162E+00 0.26589057E+03</pdfrwt>
<pdfrwt beam="2">  1       21 0.24864360E-01 0.26589057E+03</pdfrwt>
<totfact> 0.93926945E+03</totfact>
</mgrwt>
</event>
<event>
12    1  0.1019868E-001  0.2069464E+03  0.7546771E-02  0.1144330E+00
         21   -1    0    0  503  502  0.00000000000E+00  0.00000000000E+00  0.13054481974E+02  0.13054481974E+02  0.00000000000E+00 0. -1.
         21   -1    0    0  501  503 -0.00000000000E+00 -0.00000000000E+00 -0.36195592797E+04  0.36195592797E+04  0.00000000000E+00 0.  1.
          6    2    1    2  501    0  0.98017298457E+02  0.52945817868E+02 -0.23730884105E+04  0.23819568213E+04  0.17250809838E+03 0.  0.
         24    2    3    3    0    0  0.14865276771E+02  0.32857914290E+02 -0.18433841410E+04  0.18453690039E+04  0.77595428318E+02 0.  0.
         -6    2    1    2    0  502 -0.98017298457E+02 -0.52945817868E+02 -0.12334163873E+04  0.12506569404E+04  0.17440225867E+03 0.  0.
        -24    2    5    5    0    0 -0.12930689360E+03 -0.71522012174E+02 -0.93581068336E+03  0.95079804235E+03  0.80247188616E+02 0.  0.
          5    1    3    3  501    0  0.83152021686E+02  0.20087903577E+02 -0.52970426950E+03  0.53658781733E+03  0.47000000000E+01 0. -1.
        -13    1    4    4    0    0 -0.19042470694E+02  0.43435250959E+02 -0.82158705522E+03  0.82295475333E+03  0.00000000000E+00 0.  1.
         14    1    4    4    0    0  0.33907747464E+02 -0.10577336669E+02 -0.10217970857E+04  0.10224142506E+04  0.00000000000E+00 0. -1.
         -5    1    5    5    0  502  0.31289595143E+02  0.18576194306E+02 -0.29760570390E+03  0.29985889807E+03  0.47000000000E+01 0.  1.
         13    1    6    6    0    0 -0.89728050799E+02 -0.39641146021E+02 -0.79628958941E+03  0.80230895156E+03  0.00000000000E+00 0. -1.
        -14    1    6    6    0    0 -0.39578842801E+02 -0.31880866153E+02 -0.13952109395E+03  0.14848909078E+03  0.00000000000E+00 0.  1.
<mgrwt>
<rscale>  2 0.20654677E+03</rscale>
<asrwt>0</asrwt>
<pdfrwt beam="1">  1       21 0.20083809E-02 0.20694637E+03</pdfrwt>
<pdfrwt beam="2">  1       21 0.55685554E+00 0.20694637E+03</pdfrwt>
<totfact> 0.87344997E+02</totfact>
</mgrwt>
</event>
<event>
12    1  0.1019868E-001  0.1837272E+03  0.7546771E-02  0.1164342E+00
         21   -1    0    0  503  502  0.00000000000E+00  0.00000000000E+00  0.99668114407E+02  0.99668114407E+02  0.00000000000E+00 0. -1.
         21   -1    0    0  501  503 -0.00000000000E+00 -0.00000000000E+00 -0.35461193488E+03  0.35461193488E+03  0.00000000000E+00 0.  1.
          6    2    1    2  501    0  0.29439422732E+02  0.48081980279E+02 -0.17662165178E+03  0.25455509530E+03  0.17442629454E+03 0.  0.
         24    2    3    3    0    0  0.73199910986E+02  0.46069499826E+02 -0.51504641338E+02  0.12190749181E+03  0.68761055088E+02 0.  0.
         -6    2    1    2    0  502 -0.29439422732E+02 -0.48081980279E+02 -0.78322168693E+02  0.19972495399E+03  0.17486319996E+03 0.  0.
        -24    2    5    5    0    0 -0.80711533191E+02 -0.10095486965E+02 -0.74554049594E+02  0.13563055715E+03  0.78873767970E+02 0.  0.
          5    1    3    3  501    0 -0.43760488254E+02  0.20124804535E+01 -0.12511701044E+03  0.13264760349E+03  0.47000000000E+01 0. -1.
        -11    1    4    4    0    0  0.48982650400E+01  0.34811202341E+01 -0.40175692255E+02  0.40622622351E+02  0.00000000000E+00 0.  1.
         12    1    4    4    0    0  0.68301645946E+02  0.42588379592E+02 -0.11328949083E+02  0.81284869456E+02  0.00000000000E+00 0. -1.
         -5    1    5    5    0  502  0.51272110458E+02 -0.37986493315E+02 -0.37681190987E+01  0.64094396844E+02  0.47000000000E+01 0.  1.
         11    1    6    6    0    0 -0.12525936444E+02  0.60027728310E+01  0.15967862772E+02  0.21163766370E+02  0.00000000000E+00 0. -1.
        -12    1    6    6    0    0 -0.68185596746E+02 -0.16098259796E+02 -0.90521912366E+02  0.11446679078E+03  0.00000000000E+00 0.  1.
<mgrwt>
<rscale>  2 0.18362320E+03</rscale>
<asrwt>0</asrwt>
<pdfrwt beam="1">  1       21 0.15333556E-01 0.18372723E+03</pdfrwt>
<pdfrwt beam="2">  1       21 0.54555682E-01 0.18372723E+03</pdfrwt>
<totfact> 0.11996566E+05</totfact>
</mgrwt>
</event>
<event>
12    1  0.1019868E-001  0.2307986E+03  0.7546771E-02  0.1126250E+00
         21   -1    0    0  501  502  0.00000000000E+00  0.00000000000E+00  0.50357878701E+03  0.50357878701E+03  0.00000000000E+00 0. -1.
         21   -1    0    0  502  503 -0.00000000000E+00 -0.00000000000E+00 -0.11813153339E+03  0.11813153339E+03  0.00000000000E+00 0.  1.
         -6    2    1    2    0  503 -0.58273022100E+02 -0.13874952477E+03  0.29467799769E+03  0.37370418710E+03  0.17370239322E+03 0.  0.
        -24    2    3    3    0    0 -0.99879319156E+02 -0.13717011310E+03  0.24178159471E+03  0.30622309387E+03  0.80763391178E+02 0.  0.
          6    2    1    2  501    0  0.58273022100E+02  0.13874952477E+03  0.90769255933E+02  0.24800613329E+03  0.17498802416E+03 0.  0.
         24    2    5    5    0    0 -0.31490735742E+01  0.74951500929E+02 -0.14156124697E+02  0.11062241088E+03  0.80057965044E+02 0.  0.
          5    1    5    5  501    0  0.61422095674E+02  0.63798023838E+02  0.10492538063E+03  0.13738372241E+03  0.47000000000E+01 0. -1.
        -13    1    6    6    0    0  0.55070812962E+01  0.87638702362E+02 -0.25602071123E+02  0.91467678126E+02  0.00000000000E+00 0.  1.
         14    1    6    6    0    0 -0.86561548703E+01 -0.12687201433E+02  0.11445946426E+02  0.19154732755E+02  0.00000000000E+00 0. -1.
         -5    1    3    3    0  503  0.41606297057E+02 -0.15794116646E+01  0.52896402978E+02  0.67481093233E+02  0.47000000000E+01 0.  1.
         13    1    4    4    0    0 -0.13094404969E+02 -0.20393912872E+02  0.10064427527E+03  0.10352123100E+03  0.00000000000E+00 0. -1.
        -14    1    4    4    0    0 -0.86784914187E+02 -0.11677620023E+03  0.14113731944E+03  0.20270186287E+03  0.00000000000E+00 0.  1.
<mgrwt>
<rscale>  2 0.23055489E+03</rscale>
<asrwt>0</asrwt>
<pdfrwt beam="1">  1       21 0.77473658E-01 0.23079858E+03</pdfrwt>
<pdfrwt beam="2">  1       21 0.18174082E-01 0.23079858E+03</pdfrwt>
<totfact> 0.40009304E+04</totfact>
</mgrwt>
</event>
<event>
12    1  0.1019868E-001  0.1845539E+03  0.7546771E-02  0.1163620E+00
         21   -1    0    0  503  502  0.00000000000E+00  0.00000000000E+00  0.10674141079E+04  0.10674141079E+04  0.00000000000E+00 0.  1.
         21   -1    0    0  501  503 -0.00000000000E+00 -0.00000000000E+00 -0.63597731247E+02  0.63597731247E+02  0.00000000000E+00 0.  1.
          6    2    1    2  501    0  0.29133691969E+02  0.54243660104E+02  0.10157357354E+03  0.21008718746E+03  0.17328672431E+03 0.  0.
         24    2    3    3    0    0  0.50571570761E+01  0.97266652185E+02  0.99800460073E+02  0.16053023728E+03  0.79520115594E+02 0.  0.
         -6    2    1    2    0  502 -0.29133691969E+02 -0.54243660104E+02  0.90224280316E+03  0.92092465173E+03  0.17397985989E+03 0.  0.
        -24    2    5    5    0    0  0.81319679477E+01 -0.97610565255E+02  0.60723480720E+03  0.62038975268E+03  0.80965318492E+02 0.  0.
          5    1    3    3  501    0  0.24076534893E+02 -0.43022992080E+02  0.17731134659E+01  0.49556950182E+02  0.47000000000E+01 0. -1.
        -13    1    4    4    0    0 -0.11995517287E+02  0.93272989789E+02  0.47462481761E+02  0.10533959481E+03  0.00000000000E+00 0.  1.
         14    1    4    4    0    0  0.17052674363E+02  0.39936623956E+01  0.52337978312E+02  0.55190642469E+02  0.00000000000E+00 0. -1.
         -5    1    5    5    0  502 -0.37265659917E+02  0.43366905150E+02  0.29500799596E+03  0.30053489905E+03  0.47000000000E+01 0.  1.
         13    1    6    6    0    0 -0.22011621566E+02  0.11021112954E+01  0.72130825330E+02  0.75422689531E+02  0.00000000000E+00 0. -1.
        -14    1    6    6    0    0  0.30143589513E+02 -0.98712676550E+02  0.53510398187E+03  0.54496706315E+03  0.00000000000E+00 0.  1.
<mgrwt>
<rscale>  2 0.18439035E+03</rscale>
<asrwt>0</asrwt>
<pdfrwt beam="1">  1       21 0.16421754E+00 0.18455389E+03</pdfrwt>
<pdfrwt beam="2">  1       21 0.97842671E-02 0.18455389E+03</pdfrwt>
<totfact> 0.19893042E+04</totfact>
</mgrwt>
</event>
<event>
12    1  0.1019868E-001  0.1999748E+03  0.7546771E-02  0.1150633E+00
         21   -1    0    0  503  502  0.00000000000E+00  0.00000000000E+00  0.84217114282E+03  0.84217114282E+03  0.00000000000E+00 0.  1.
         21   -1    0    0  501  503 -0.00000000000E+00 -0.00000000000E+00 -0.54249553373E+02  0.54249553373E+02  0.00000000000E+00 0. -1.
          6    2    1    2  501    0 -0.75910697419E+02 -0.64761453606E+02  0.22825291035E+03  0.30346223155E+03  0.17330163022E+03 0.  0.
         24    2    3    3    0    0 -0.96023579653E+02  0.41333171404E+01  0.16572460755E+03  0.20815800226E+03  0.81409435574E+02 0.  0.
         -6    2    1    2    0  502  0.75910697419E+02  0.64761453606E+02  0.55966867910E+03  0.59295846464E+03  0.16856521164E+03 0.  0.
        -24    2    5    5    0    0  0.22646167124E+02  0.26635181538E+02  0.48909683812E+03  0.49655723256E+03  0.78301253896E+02 0.  0.
          5    1    3    3  501    0  0.20112882233E+02 -0.68894770746E+02  0.62528302803E+02  0.95304229283E+02  0.47000000000E+01 0. -1.
        -13    1    4    4    0    0  0.68560563367E+01 -0.67981088128E+01  0.58000827590E+02  0.58798943808E+02  0.00000000000E+00 0.  1.
         14    1    4    4    0    0 -0.10287963599E+03  0.10931425953E+02  0.10772377996E+03  0.14935905846E+03  0.00000000000E+00 0. -1.
         -5    1    5    5    0  502  0.53264530295E+02  0.38126272067E+02  0.70571840974E+02  0.96401232086E+02  0.47000000000E+01 0.  1.
         13    1    6    6    0    0  0.20274159916E+02 -0.16201471411E+02  0.60670750321E+02  0.65988401865E+02  0.00000000000E+00 0. -1.
        -14    1    6    6    0    0  0.23720072085E+01  0.42836652950E+02  0.42842608780E+03  0.43056883069E+03  0.00000000000E+00 0.  1.
<mgrwt>
<rscale>  2 0.19894430E+03</rscale>
<asrwt>0</asrwt>
<pdfrwt beam="1">  1       21 0.12956478E+00 0.19997484E+03</pdfrwt>
<pdfrwt beam="2">  1       21 0.83460857E-02 0.19997484E+03</pdfrwt>
<totfact> 0.48395234E+04</totfact>
</mgrwt>
</event>
<event>
12    1  0.1019868E-001  0.2191021E+03  0.7546771E-02  0.1135012E+00
         21   -1    0    0  501  502  0.00000000000E+00  0.00000000000E+00  0.41858883739E+03  0.41858883739E+03  0.00000000000E+00 0.  1.
         21   -1    0    0  502  503 -0.00000000000E+00 -0.00000000000E+00 -0.13552447670E+03  0.13552447670E+03  0.00000000000E+00 0. -1.
         -6    2    1    2    0  503 -0.30309157929E+02 -0.12686910025E+03  0.28973131963E+02  0.21860166510E+03  0.17301107467E+03 0.  0.
        -24    2    3    3    0    0 -0.38335859792E+02 -0.52566381571E+02 -0.45690661072E+02  0.11285624470E+03  0.80100142577E+02 0.  0.
          6    2    1    2  501    0  0.30309157929E+02  0.12686910025E+03  0.25409122873E+03  0.33551164898E+03  0.17604346177E+03 0.  0.
         24    2    5    5    0    0  0.33449813037E+02  0.94478465288E+01  0.16927995129E+03  0.19055421619E+03  0.80293558910E+02 0.  0.
          5    1    5    5  501    0 -0.31406551086E+01  0.11742125372E+03  0.84811277438E+02  0.14495743279E+03  0.47000000000E+01 0. -1.
        -11    1    6    6    0    0  0.13041761094E+02  0.44726871809E+02  0.95799753796E+02  0.10652780586E+03  0.00000000000E+00 0.  1.
         12    1    6    6    0    0  0.20408051943E+02 -0.35279025280E+02  0.73480197497E+02  0.84026410331E+02  0.00000000000E+00 0. -1.
         -5    1    3    3    0  503  0.80267018629E+01 -0.74302718680E+02  0.74663793036E+02  0.10574542040E+03  0.47000000000E+01 0.  1.
         13    1    4    4    0    0 -0.59661946306E+01 -0.28541791497E+02 -0.62665308944E+02  0.69117076654E+02  0.00000000000E+00 0. -1.
        -14    1    4    4    0    0 -0.32369665161E+02 -0.24024590074E+02  0.16974647872E+02  0.43739168045E+02  0.00000000000E+00 0.  1.
<mgrwt>
<rscale>  2 0.21849229E+03</rscale>
<asrwt>0</asrwt>
<pdfrwt beam="1">  1       21 0.64398282E-01 0.21910206E+03</pdfrwt>
<pdfrwt beam="2">  1       21 0.20849920E-01 0.21910206E+03</pdfrwt>
<totfact> 0.46882907E+04</totfact>
</mgrwt>
</event>
<event>
12    1  0.1019868E-001  0.2276247E+03  0.7546771E-02  0.1128727E+00
         21   -1    0    0  503  502  0.00000000000E+00  0.00000000000E+00  0.56243830241E+03  0.56243830241E+03  0.00000000000E+00 0. -1.
         21   -1    0    0  501  503 -0.00000000000E+00 -0.00000000000E+00 -0.10801740261E+03  0.10801740261E+03  0.00000000000E+00 0.  1.
          6    2    1    2  501    0 -0.91035631851E+02  0.11277047416E+03  0.36039219804E+03  0.42625760449E+03  0.17552305510E+03 0.  0.
         24    2    3    3    0    0  0.26400956944E+01  0.74572641229E+02  0.26754721540E+03  0.28886583919E+03  0.79334177113E+02 0.  0.
         -6    2    1    2    0  502  0.91035631851E+02 -0.11277047416E+03  0.94028701760E+02  0.24419810053E+03  0.17258809182E+03 0.  0.
        -24    2    5    5    0    0  0.84928920862E+02 -0.14696002144E+03  0.74189415706E+02  0.20392522711E+03  0.85271679638E+02 0.  0.
          5    1    3    3  501    0 -0.93675727545E+02  0.38197832930E+02  0.92844982637E+02  0.13739176530E+03  0.47000000000E+01 0. -1.
        -11    1    4    4    0    0  0.29566812465E+02  0.22290854212E+01  0.10170239283E+03  0.10593649951E+03  0.00000000000E+00 0.  1.
         12    1    4    4    0    0 -0.26926716770E+02  0.72343555807E+02  0.16584482257E+03  0.18292933968E+03  0.00000000000E+00 0. -1.
         -5    1    5    5    0  502  0.61067109889E+01  0.34189547281E+02  0.19839286054E+02  0.40272873420E+02  0.47000000000E+01 0.  1.
         13    1    6    6    0    0 -0.16752159873E+02 -0.32071480346E+02  0.94034328480E+01  0.37385013860E+02  0.00000000000E+00 0. -1.
        -14    1    6    6    0    0  0.10168108073E+03 -0.11488854109E+03  0.64785982858E+02  0.16654021325E+03  0.00000000000E+00 0.  1.
<mgrwt>
<rscale>  2 0.22705875E+03</rscale>
<asrwt>0</asrwt>
<pdfrwt beam="1">  1       21 0.86528968E-01 0.22762471E+03</pdfrwt>
<pdfrwt beam="2">  1       21 0.16618062E-01 0.22762471E+03</pdfrwt>
<totfact> 0.36746898E+04</totfact>
</mgrwt>
</event>
<event>
12    1  0.1019868E-001  0.1799340E+03  0.7546771E-02  0.1168384E+00
         21   -1    0    0  503  502  0.00000000000E+00  0.00000000000E+00  0.19851577583E+02  0.19851577583E+02  0.00000000000E+00 0.  1.
         21   -1    0    0  501  503 -0.00000000000E+00 -0.00000000000E+00 -0.16825241908E+04  0.16825241908E+04  0.00000000000E+00 0.  1.
          6    2    1    2  501    0  0.23904915167E+02 -0.36456032239E+02 -0.10011920511E+04  0.10168593311E+04  0.17238587150E+03 0.  0.
         24    2    3    3    0    0 -0.51940960899E+02 -0.36239836070E+02 -0.56007567597E+03  0.56924522262E+03  0.79650307729E+02 0.  0.
         -6    2    1    2    0  502 -0.23904915167E+02  0.36456032239E+02 -0.66148056206E+03  0.68551643728E+03  0.17457309227E+03 0.  0.
        -24    2    5    5    0    0  0.29974377201E+02  0.16060854463E+02 -0.57779908149E+03  0.58381284042E+03  0.76349458042E+02 0.  0.
          5    1    3    3  501    0  0.75845876066E+02 -0.21619616939E+00 -0.44111637518E+03  0.44761410848E+03  0.47000000000E+01 0. -1.
        -13    1    4    4    0    0  0.14954870840E+02  0.84403189751E+01 -0.50040995712E+02  0.52905466618E+02  0.00000000000E+00 0.  1.
         14    1    4    4    0    0 -0.66895831739E+02 -0.44680155045E+02 -0.51003468026E+03  0.51633975600E+03  0.00000000000E+00 0. -1.
         -5    1    5    5    0  502 -0.53879292367E+02  0.20395177776E+02 -0.83681480571E+02  0.10170359685E+03  0.47000000000E+01 0.  1.
         13    1    6    6    0    0  0.47178769063E+02  0.13057728430E+02 -0.21123827110E+03  0.21683622321E+03  0.00000000000E+00 0. -1.
        -14    1    6    6    0    0 -0.17204391862E+02  0.30031260334E+01 -0.36656081039E+03  0.36697661721E+03  0.00000000000E+00 0.  1.
<mgrwt>
<rscale>  2 0.17940134E+03</rscale>
<asrwt>0</asrwt>
<pdfrwt beam="1">  1       21 0.30540889E-02 0.17993402E+03</pdfrwt>
<pdfrwt beam="2">  1       21 0.25884987E+00 0.17993402E+03</pdfrwt>
<totfact> 0.36643636E+04</totfact>
</mgrwt>
</event>
<event>
12    1  0.1019868E-001  0.1874089E+03  0.7546771E-02  0.1161017E+00
         21   -1    0    0  503  502  0.00000000000E+00  0.00000000000E+00  0.13566994845E+03  0.13566994845E+03  0.00000000000E+00 0. -1.
         21   -1    0    0  501  503 -0.00000000000E+00 -0.00000000000E+00 -0.26061066167E+03  0.26061066167E+03  0.00000000000E+00 0. -1.
          6    2    1    2  501    0  0.69902549332E+02  0.11242414114E+02 -0.83284637997E+02  0.20429795970E+03  0.17259364742E+03 0.  0.
         24    2    3    3    0    0  0.76175352048E+02  0.40632302164E+02 -0.24749069876E+01  0.11795320769E+03  0.80331599015E+02 0.  0.
         -6    2    1    2    0  502 -0.69902549332E+02 -0.11242414114E+02 -0.41656075222E+02  0.19198265043E+03  0.17352046331E+03 0.  0.
        -24    2    5    5    0    0  0.36923084104E+01 -0.47529866348E+02 -0.54708073669E+02  0.10876350036E+03  0.81017308947E+02 0.  0.
          5    1    3    3  501    0 -0.62728027160E+01 -0.29389888050E+02 -0.80809731010E+02  0.86344752008E+02  0.47000000000E+01 0. -1.
        -11    1    4    4    0    0  0.14959261919E+02  0.46229137814E+02  0.19941435410E+02  0.52522124352E+02  0.00000000000E+00 0.  1.
         12    1    4    4    0    0  0.61216090129E+02 -0.55968356497E+01 -0.22416342398E+02  0.65431083335E+02  0.00000000000E+00 0. -1.
         -5    1    5    5    0  502 -0.73594857742E+02  0.36287452234E+02  0.13051998447E+02  0.83219150075E+02  0.47000000000E+01 0.  1.
         13    1    6    6    0    0 -0.34749787187E+02 -0.26382298326E+01 -0.22030157938E+02  0.41229065293E+02  0.00000000000E+00 0. -1.
        -14    1    6    6    0    0  0.38442095597E+02 -0.44891636515E+02 -0.32677915731E+02  0.67534435065E+02  0.00000000000E+00 0.  1.
<mgrwt>
<rscale>  2 0.18719412E+03</rscale>
<asrwt>0</asrwt>
<pdfrwt beam="1">  1       21 0.20872300E-01 0.18740894E+03</pdfrwt>
<pdfrwt beam="2">  1       21 0.40093948E-01 0.18740894E+03</pdfrwt>
<totfact> 0.12798737E+05</totfact>
</mgrwt>
</event>
<event>
12    1  0.1019868E-001  0.2148354E+03  0.7546771E-02  0.1137965E+00
         21   -1    0    0  503  502  0.00000000000E+00  0.00000000000E+00  0.25911658271E+03  0.25911658271E+03  0.00000000000E+00 0. -1.
         21   -1    0    0  501  503 -0.00000000000E+00 -0.00000000000E+00 -0.24784522297E+03  0.24784522297E+03  0.00000000000E+00 0. -1.
          6    2    1    2  501    0  0.12690488806E+03  0.12925723187E+00 -0.12951075891E+03  0.25085314658E+03  0.17334761941E+03 0.  0.
         24    2    3    3    0    0  0.31829842727E+02 -0.30833927725E+02 -0.62158541074E+01  0.92039713212E+02  0.80428862847E+02 0.  0.
         -6    2    1    2    0  502 -0.12690488806E+03 -0.12925723187E+00  0.14078211865E+03  0.25610865910E+03  0.17224161232E+03 0.  0.
        -24    2    5    5    0    0 -0.24249702223E+02  0.31562892188E+02  0.11143703866E+03  0.14463802066E+03  0.83172586915E+02 0.  0.
          5    1    3    3  501    0  0.95075045334E+02  0.30963184957E+02 -0.12329490480E+03  0.15881343337E+03  0.47000000000E+01 0. -1.
        -11    1    4    4    0    0  0.25947514427E+02  0.20171353051E+02  0.15445269903E+02  0.36314093012E+02  0.00000000000E+00 0.  1.
         12    1    4    4    0    0  0.58823282992E+01 -0.51005280776E+02 -0.21661124011E+02  0.55725620200E+02  0.00000000000E+00 0. -1.
         -5    1    5    5    0  502 -0.10265518584E+03 -0.31692149420E+02  0.29345079987E+02  0.11147063844E+03  0.47000000000E+01 0.  1.
         13    1    6    6    0    0 -0.51591817536E+02  0.21621352357E+02  0.97433583969E+02  0.11234990787E+03  0.00000000000E+00 0. -1.
        -14    1    6    6    0    0  0.27342115313E+02  0.99415398311E+01  0.14003454691E+02  0.32288112786E+02  0.00000000000E+00 0.  1.
<mgrwt>
<rscale>  2 0.21461223E+03</rscale>
<asrwt>0</asrwt>
<pdfrwt beam="1">  1       21 0.39864090E-01 0.21483544E+03</pdfrwt>
<pdfrwt beam="2">  1       21 0.38130034E-01 0.21483544E+03</pdfrwt>
<totfact> 0.39781226E+04</totfact>
</mgrwt>
</event>
<event>
12    1  0.1019868E-001  0.2116147E+03  0.7546771E-02  0.1140517E+00
         21   -1    0    0  503  502  0.00000000000E+00  0.00000000000E+00  0.75442875544E+03  0.75442875544E+03  0.00000000000E+00 0. -1.
         21   -1    0    0  501  503 -0.00000000000E+00 -0.00000000000E+00 -0.73936154040E+02  0.73936154040E+02  0.00000000000E+00 0. -1.
          6    2    1    2  501    0  0.10675484021E+03 -0.51616667577E+02  0.15506168086E+03  0.26234498412E+03  0.17527090329E+03 0.  0.
         24    2    3    3    0    0  0.87394105651E+02 -0.98906257652E+02  0.14260128766E+03  0.20953878400E+03  0.78429568737E+02 0.  0.
         -6    2    1    2    0  502 -0.10675484021E+03  0.51616667577E+02  0.52543092054E+03  0.56601992536E+03  0.17389659965E+03 0.  0.
        -24    2    5    5    0    0 -0.13817881007E+03  0.27558222078E+02  0.34373604734E+03  0.38000543230E+03  0.79980117411E+02 0.  0.
          5    1    3    3  501    0  0.19360734559E+02  0.47289590075E+02  0.12460393201E+02  0.52806200118E+02  0.47000000000E+01 0. -1.
        -13    1    4    4    0    0  0.37030009751E+02 -0.19258887874E+02  0.95426049124E+02  0.10415496741E+03  0.00000000000E+00 0.  1.
         14    1    4    4    0    0  0.50364095900E+02 -0.79647369778E+02  0.47175238535E+02  0.10538381659E+03  0.00000000000E+00 0. -1.
         -5    1    5    5    0  502  0.31423969861E+02  0.24058445499E+02  0.18169487320E+03  0.18601449306E+03  0.47000000000E+01 0.  1.
         11    1    6    6    0    0 -0.72438122360E+02  0.50051169469E+02  0.14690031190E+03  0.17126617521E+03  0.00000000000E+00 0. -1.
        -12    1    6    6    0    0 -0.65740687711E+02 -0.22492947391E+02  0.19683573544E+03  0.20873925709E+03  0.00000000000E+00 0.  1.
<mgrwt>
<rscale>  2 0.21132987E+03</rscale>
<asrwt>0</asrwt>
<pdfrwt beam="1">  1       21 0.11606596E+00 0.21161466E+03</pdfrwt>
<pdfrwt beam="2">  1       21 0.11374793E-01 0.21161466E+03</pdfrwt>
<totfact> 0.36621250E+04</totfact>
</mgrwt>
</event>
<event>
12    1  0.1019868E-001  0.1912112E+03  0.7546771E-02  0.1157572E+00
         21   -1    0    0  503  502  0.00000000000E+00  0.00000000000E+00  0.10629842624E+04  0.10629842624E+04  0.00000000000E+00 0. -1.
         21   -1    0    0  501  503 -0.00000000000E+00 -0.00000000000E+00 -0.41451788354E+02  0.41451788354E+02  0.00000000000E+00 0.  1.
          6    2    1    2  501    0 -0.25004742531E+02  0.76786476961E+02  0.74017908707E+03  0.76425747601E+03  0.17234560772E+03 0.  0.
         24    2    3    3    0    0 -0.30521190819E+02 -0.15314024782E+01  0.19473875760E+03  0.21317548169E+03  0.81158573183E+02 0.  0.
         -6    2    1    2    0  502  0.25004742531E+02 -0.76786476961E+02  0.28135338694E+03  0.34017857472E+03  0.17332147634E+03 0.  0.
        -24    2    5    5    0    0  0.64041480531E+02 -0.99952104902E+02  0.19002125404E+03  0.23807979053E+03  0.80511956689E+02 0.  0.
          5    1    3    3  501    0  0.55164482883E+01  0.78317879439E+02  0.54544032948E+03  0.55108199432E+03  0.47000000000E+01 0. -1.
        -11    1    4    4    0    0 -0.43895692101E+02 -0.13070010409E+02  0.18919835593E+03  0.19466297759E+03  0.00000000000E+00 0.  1.
         12    1    4    4    0    0  0.13374501282E+02  0.11538607931E+02  0.55404016681E+01  0.18512504103E+02  0.00000000000E+00 0. -1.
         -5    1    5    5    0  502 -0.39036738000E+02  0.23165627941E+02  0.91332132907E+02  0.10209878419E+03  0.47000000000E+01 0.  1.
         13    1    6    6    0    0  0.57011154870E+02 -0.38276874915E+02  0.14789884662E+03  0.16306274794E+03  0.00000000000E+00 0. -1.
        -14    1    6    6    0    0  0.70303256610E+01 -0.61675229986E+02  0.42122407416E+02  0.75017042592E+02  0.00000000000E+00 0.  1.
<mgrwt>
<rscale>  2 0.19098982E+03</rscale>
<asrwt>0</asrwt>
<pdfrwt beam="1">  1       21 0.16353602E+00 0.19121123E+03</pdfrwt>
<pdfrwt beam="2">  1       21 0.63771990E-02 0.19121123E+03</pdfrwt>
<totfact> 0.42171091E+04</totfact>
</mgrwt>
</event>
<event>
12    1  0.1019868E-001  0.1859898E+03  0.7546771E-02  0.1162249E+00
         21   -1    0    0  501  502  0.00000000000E+00  0.00000000000E+00  0.49884127323E+03  0.49884127323E+03  0.00000000000E+00 0. -1.
         21   -1    0    0  502  503 -0.00000000000E+00 -0.00000000000E+00 -0.73911309431E+02  0.73911309431E+02  0.00000000000E+00 0. -1.
         -6    2    1    2    0  503  0.23204581182E+02  0.65796220824E+02  0.14006947937E+03  0.23283401621E+03  0.17240830835E+03 0.  0.
        -24    2    3    3    0    0 -0.19524765999E+02  0.94009853651E+02  0.95891826156E+02  0.16504344731E+03  0.93941620730E+02 0.  0.
          6    2    1    2  501    0 -0.23204581182E+02 -0.65796220824E+02  0.28486048443E+03  0.33991856645E+03  0.17184743515E+03 0.  0.
         24    2    5    5    0    0  0.55016664009E+01  0.25811223776E+02  0.17755160374E+03  0.19585865381E+03  0.78355297689E+02 0.  0.
          5    1    5    5  501    0 -0.28706247583E+02 -0.91607444599E+02  0.10730888069E+03  0.14405991264E+03  0.47000000000E+01 0. -1.
        -13    1    6    6    0    0  0.22810436846E+02 -0.13359466630E+02  0.12645906698E+03  0.12919244172E+03  0.00000000000E+00 0.  1.
         14    1    6    6    0    0 -0.17308770445E+02  0.39170690406E+02  0.51092536763E+02  0.66666212087E+02  0.00000000000E+00 0. -1.
         -5    1    3    3    0  503  0.42729347181E+02 -0.28213632828E+02  0.44177653216E+02  0.67790568898E+02  0.47000000000E+01 0.  1.
         13    1    4    4    0    0  0.33325787593E+02  0.66808491425E+02  0.58158156822E+02  0.94638014825E+02  0.00000000000E+00 0. -1.
        -14    1    4    4    0    0 -0.52850553591E+02  0.27201362226E+02  0.37733669334E+02  0.70405432484E+02  0.00000000000E+00 0.  1.
<mgrwt>
<rscale>  2 0.18585975E+03</rscale>
<asrwt>0</asrwt>
<pdfrwt beam="1">  1       21 0.76744809E-01 0.18598984E+03</pdfrwt>
<pdfrwt beam="2">  1       21 0.11370971E-01 0.18598984E+03</pdfrwt>
<totfact> 0.97819361E+04</totfact>
</mgrwt>
</event>
<event>
12    1  0.1019868E-001  0.2045008E+03  0.7546771E-02  0.1146103E+00
         21   -1    0    0  503  502  0.00000000000E+00  0.00000000000E+00  0.31002646878E+03  0.31002646878E+03  0.00000000000E+00 0.  1.
         21   -1    0    0  501  503 -0.00000000000E+00 -0.00000000000E+00 -0.21014056626E+03  0.21014056626E+03  0.00000000000E+00 0.  1.
          6    2    1    2  501    0  0.10685439823E+03  0.23974353301E+02 -0.10600293845E+03  0.23034146317E+03  0.17270765663E+03 0.  0.
         24    2    3    3    0    0  0.12333023459E+03  0.44035642547E+02 -0.12547740738E+03  0.19755040570E+03  0.78307716404E+02 0.  0.
         -6    2    1    2    0  502 -0.10685439823E+03 -0.23974353301E+02  0.20588884097E+03  0.28982557187E+03  0.17209304238E+03 0.  0.
        -24    2    5    5    0    0 -0.90222290749E+02 -0.69842098346E+02  0.19423089066E+03  0.23944229249E+03  0.81172606837E+02 0.  0.
          5    1    3    3  501    0 -0.16475836361E+02 -0.20061289246E+02  0.19474468932E+02  0.32791057473E+02  0.47000000000E+01 0. -1.
        -13    1    4    4    0    0  0.12526622348E+03  0.18385070241E+02 -0.99900572053E+02  0.16127542233E+03  0.00000000000E+00 0.  1.
         14    1    4    4    0    0 -0.19359888853E+01  0.25650572306E+02 -0.25576835327E+02  0.36274983362E+02  0.00000000000E+00 0. -1.
         -5    1    5    5    0  502 -0.16632107483E+02  0.45867745045E+02  0.11657950315E+02  0.50383279373E+02  0.47000000000E+01 0.  1.
         13    1    6    6    0    0 -0.16920029045E+02  0.17992647528E+02  0.24773726991E+02  0.34982285474E+02  0.00000000000E+00 0. -1.
        -14    1    6    6    0    0 -0.73302261705E+02 -0.87834745873E+02  0.16945716366E+03  0.20446000702E+03  0.00000000000E+00 0.  1.
<mgrwt>
<rscale>  2 0.20437095E+03</rscale>
<asrwt>0</asrwt>
<pdfrwt beam="1">  1       21 0.47696380E-01 0.20450077E+03</pdfrwt>
<pdfrwt beam="2">  1       21 0.32329318E-01 0.20450077E+03</pdfrwt>
<totfact> 0.38450245E+04</totfact>
</mgrwt>
</event>
<event>
12    1  0.1019868E-001  0.2181445E+03  0.7546771E-02  0.1135320E+00
         21   -1    0    0  503  502  0.00000000000E+00  0.00000000000E+00  0.14428964360E+03  0.14428964360E+03  0.00000000000E+00 0.  1.
         21   -1    0    0  501  503 -0.00000000000E+00 -0.00000000000E+00 -0.42420143248E+03  0.42420143248E+03  0.00000000000E+00 0.  1.
          6    2    1    2  501    0  0.31784479776E+02  0.12879333135E+03 -0.27424377078E+03  0.35027300041E+03  0.17286860226E+03 0.  0.
         24    2    3    3    0    0  0.47071016402E+02  0.12702329624E+03 -0.12706362084E+03  0.20221592438E+03  0.79971982326E+02 0.  0.
         -6    2    1    2    0  502 -0.31784479776E+02 -0.12879333135E+03 -0.56680181038E+01  0.21821807568E+03  0.17317340087E+03 0.  0.
        -24    2    5    5    0    0 -0.37657450881E+02 -0.13928095031E+03  0.39898830157E+02  0.17085870911E+03  0.82362097507E+02 0.  0.
          5    1    3    3  501    0 -0.15286536626E+02  0.17700351120E+01 -0.14718014994E+03  0.14805707603E+03  0.47000000000E+01 0. -1.
        -13    1    4    4    0    0  0.20843933404E+02 -0.10430210325E+01 -0.40106265236E+02  0.45211391970E+02  0.00000000000E+00 0.  1.
         14    1    4    4    0    0  0.26227082998E+02  0.12806631727E+03 -0.86957355604E+02  0.15700453241E+03  0.00000000000E+00 0. -1.
         -5    1    5    5    0  502  0.58729711055E+01  0.10487618957E+02 -0.45566848261E+02  0.47359366565E+02  0.47000000000E+01 0.  1.
         13    1    6    6    0    0 -0.31134752606E+02 -0.14648884067E+02  0.30023660118E+02  0.45665991625E+02  0.00000000000E+00 0. -1.
        -14    1    6    6    0    0 -0.65226982755E+01 -0.12463206624E+03  0.98751700390E+01  0.12519271749E+03  0.00000000000E+00 0.  1.
<mgrwt>
<rscale>  2 0.21808396E+03</rscale>
<asrwt>0</asrwt>
<pdfrwt beam="1">  1       21 0.22198407E-01 0.21814445E+03</pdfrwt>
<pdfrwt beam="2">  1       21 0.65261758E-01 0.21814445E+03</pdfrwt>
<totfact> 0.40479896E+04</totfact>
</mgrwt>
</event>
<event>
12    1  0.1019868E-001  0.1967138E+03  0.7546771E-02  0.1152933E+00
         21   -1    0    0  503  502  0.00000000000E+00  0.00000000000E+00  0.10263840420E+03  0.10263840420E+03  0.00000000000E+00 0.  1.
         21   -1    0    0  501  503 -0.00000000000E+00 -0.00000000000E+00 -0.51316485970E+03  0.51316485970E+03  0.00000000000E+00 0.  1.
          6    2    1    2  501    0  0.86341928623E+02 -0.22909660429E+02 -0.36516730551E+03  0.41392762115E+03  0.17323144450E+03 0.  0.
         24    2    3    3    0    0  0.49632505972E+02  0.45767815512E+02 -0.27621668499E+03  0.29561244756E+03  0.80826873617E+02 0.  0.
         -6    2    1    2    0  502 -0.86341928623E+02  0.22909660429E+02 -0.45359149993E+02  0.20187564275E+03  0.17526135189E+03 0.  0.
        -24    2    5    5    0    0 -0.20062579375E+02 -0.49222370106E+02  0.82631656490E+00  0.93472832421E+02  0.76883930647E+02 0.  0.
          5    1    3    3  501    0  0.36709422650E+02 -0.68677475941E+02 -0.88950620516E+02  0.11831517360E+03  0.47000000000E+01 0. -1.
        -11    1    4    4    0    0  0.43806548010E+02  0.75240329791E+01 -0.23467690218E+03  0.23884905932E+03  0.00000000000E+00 0.  1.
         12    1    4    4    0    0  0.58259579621E+01  0.38243782533E+02 -0.41539782814E+02  0.56763388243E+02  0.00000000000E+00 0. -1.
         -5    1    5    5    0  502 -0.66279349247E+02  0.72132030535E+02 -0.46185466558E+02  0.10840281033E+03  0.47000000000E+01 0.  1.
         13    1    6    6    0    0  0.28920151297E+02 -0.15363035004E+02 -0.67821246529E+01  0.33442416336E+02  0.00000000000E+00 0. -1.
        -14    1    6    6    0    0 -0.48982730672E+02 -0.33859335102E+02  0.76084412178E+01  0.60030416086E+02  0.00000000000E+00 0.  1.
<mgrwt>
<rscale>  2 0.19626066E+03</rscale>
<asrwt>0</asrwt>
<pdfrwt beam="1">  1       21 0.15790524E-01 0.19671381E+03</pdfrwt>
<pdfrwt beam="2">  1       21 0.78948440E-01 0.19671381E+03</pdfrwt>
<totfact> 0.50514486E+04</totfact>
</mgrwt>
</event>
<event>
12    1  0.1019868E-001  0.2276187E+03  0.7546771E-02  0.1128450E+00
         21   -1    0    0  503  502  0.00000000000E+00  0.00000000000E+00  0.27995004873E+03  0.27995004873E+03  0.00000000000E+00 0. -1.
         21   -1    0    0  501  503 -0.00000000000E+00 -0.00000000000E+00 -0.33314976699E+03  0.33314976699E+03  0.00000000000E+00 0. -1.
          6    2    1    2  501    0 -0.11253185895E+03 -0.95719199711E+02 -0.23133797481E+03  0.32406089287E+03  0.17225742140E+03 0.  0.
         24    2    3    3    0    0 -0.95928783568E+01 -0.54181835307E+02 -0.17349948321E+03  0.19880448594E+03  0.79959104320E+02 0.  0.
         -6    2    1    2    0  502  0.11253185895E+03  0.95719199711E+02  0.17813825655E+03  0.28903892285E+03  0.17316083854E+03 0.  0.
        -24    2    5    5    0    0  0.85525519868E+02  0.12850924264E+03  0.17415261463E+03  0.24611451711E+03  0.80087342063E+02 0.  0.
          5    1    3    3  501    0 -0.10293898059E+03 -0.41537364404E+02 -0.57838491604E+02  0.12525640694E+03  0.47000000000E+01 0. -1.
        -11    1    4    4    0    0  0.21920429215E+02 -0.11218723656E+02 -0.95451289726E+01  0.26409741850E+02  0.00000000000E+00 0.  1.
         12    1    4    4    0    0 -0.31513307572E+02 -0.42963111650E+02 -0.16395435424E+03  0.17239474409E+03  0.00000000000E+00 0. -1.
         -5    1    5    5    0  502  0.27006339083E+02 -0.32790042930E+02  0.39856419183E+01  0.42924405733E+02  0.47000000000E+01 0.  1.
         13    1    6    6    0    0  0.40908715512E+02  0.58085239462E+02  0.25132133825E+02  0.75359420106E+02  0.00000000000E+00 0. -1.
        -14    1    6    6    0    0  0.44616804356E+02  0.70424003180E+02  0.14902048080E+03  0.17075509701E+03  0.00000000000E+00 0.  1.
<mgrwt>
<rscale>  2 0.22744685E+03</rscale>
<asrwt>0</asrwt>
<pdfrwt beam="1">  1       21 0.43069238E-01 0.22761867E+03</pdfrwt>
<pdfrwt beam="2">  1       21 0.51253810E-01 0.22761867E+03</pdfrwt>
<totfact> 0.18377936E+04</totfact>
</mgrwt>
</event>
<event>
12    1  0.1019868E-001  0.2163779E+03  0.7546771E-02  0.1138634E+00
         21   -1    0    0  503  502  0.00000000000E+00  0.00000000000E+00  0.23502170379E+03  0.23502170379E+03  0.00000000000E+00 0. -1.
         21   -1    0    0  501  503 -0.00000000000E+00 -0.00000000000E+00 -0.19205944660E+03  0.19205944660E+03  0.00000000000E+00 0.  1.
          6    2    1    2  501    0  0.34117854810E+02 -0.11830993565E+03  0.45107036634E+02  0.22102945910E+03  0.17792725520E+03 0.  0.
         24    2    3    3    0    0  0.12322145869E+02 -0.16436558967E+01 -0.21299984280E+02  0.84948394336E+02  0.81289627176E+02 0.  0.
         -6    2    1    2    0  502 -0.34117854810E+02  0.11830993565E+03 -0.21447794495E+01  0.20605169129E+03  0.16520118195E+03 0.  0.
        -24    2    5    5    0    0 -0.12590545439E+02  0.14785067826E+03 -0.68843465051E+01  0.16889480743E+03  0.80372363754E+02 0.  0.
          5    1    3    3  501    0  0.21795708940E+02 -0.11666627975E+03  0.66407020914E+02  0.13608106476E+03  0.47000000000E+01 0. -1.
        -13    1    4    4    0    0 -0.16446852175E+02 -0.11266957308E+02 -0.43170077081E+02  0.47551012908E+02  0.00000000000E+00 0.  1.
         14    1    4    4    0    0  0.28768998044E+02  0.96233014114E+01  0.21870092801E+02  0.37397381427E+02  0.00000000000E+00 0. -1.
         -5    1    5    5    0  502 -0.21527309370E+02 -0.29540742607E+02  0.47395670557E+01  0.37156883862E+02  0.47000000000E+01 0.  1.
         11    1    6    6    0    0 -0.16695348129E+01  0.16749463752E+02  0.28110311688E+02  0.32764638036E+02  0.00000000000E+00 0. -1.
        -12    1    6    6    0    0 -0.10921010626E+02  0.13110121450E+03 -0.34994658193E+02  0.13613016939E+03  0.00000000000E+00 0.  1.
<mgrwt>
<rscale>  2 0.21374589E+03</rscale>
<asrwt>0</asrwt>
<pdfrwt beam="1">  1       21 0.36157185E-01 0.21637786E+03</pdfrwt>
<pdfrwt beam="2">  1       21 0.29547607E-01 0.21637786E+03</pdfrwt>
<totfact> 0.80161202E+04</totfact>
</mgrwt>
</event>
<event>
11    1  0.1019868E-001  0.2852166E+03  0.7546771E-02  0.1092890E+00
         21   -1    0    0  501  502  0.00000000000E+00  0.00000000000E+00  0.93036976249E+02  0.93036976249E+02  0.00000000000E+00 0. -1.
         21   -1    0    0  502  503 -0.00000000000E+00 -0.00000000000E+00 -0.10348216456E+04  0.10348216456E+04  0.00000000000E+00 0. -1.
         -6    2    1    2    0  503 -0.18221479602E+03 -0.13479995455E+03 -0.24848353451E+03  0.37818204889E+03  0.17292870076E+03 0.  0.
          6    2    1    2  501    0  0.18221479602E+03  0.13479995455E+03 -0.69330113486E+03  0.74967657298E+03  0.17313359248E+03 0.  0.
         24    2    4    4    0    0  0.94991064076E+02  0.12760781371E+01 -0.30360759894E+03  0.32858305971E+03  0.82245500549E+02 0.  0.
          5    1    4    4  501    0  0.87223731940E+02  0.13352387641E+03 -0.38969353591E+03  0.42109351327E+03  0.47000000000E+01 0. -1.
        -13    1    5    5    0    0  0.36181240572E+01 -0.12599511193E+02 -0.14050930176E+03  0.14111946140E+03  0.00000000000E+00 0.  1.
         14    1    5    5    0    0  0.91372940019E+02  0.13875589330E+02 -0.16309829718E+03  0.18746359831E+03  0.00000000000E+00 0. -1.
         -5    1    3    3    0  503 -0.99383372270E+02  0.21361308155E+02 -0.93540262843E+02  0.13822167320E+03  0.47000000000E+01 0.  1.
         13    1    3    3    0    0 -0.82891222574E+02 -0.11513184087E+03 -0.12607718273E+03  0.18979397137E+03  0.00000000000E+00 0. -1.
        -14    1    3    3    0    0  0.59798828926E-01 -0.41029421837E+02 -0.28866088941E+02  0.50166404325E+02  0.00000000000E+00 0.  1.
<mgrwt>
<rscale>  2 0.28518550E+03</rscale>
<asrwt>0</asrwt>
<pdfrwt beam="1">  1       21 0.14313381E-01 0.28521659E+03</pdfrwt>
<pdfrwt beam="2">  1       21 0.15920333E+00 0.28521659E+03</pdfrwt>
<totfact> 0.10266078E+04</totfact>
</mgrwt>
</event>
<event>
12    1  0.1019868E-001  0.1929619E+03  0.7546771E-02  0.1156275E+00
         21   -1    0    0  501  502  0.00000000000E+00  0.00000000000E+00  0.35113664400E+02  0.35113664400E+02  0.00000000000E+00 0. -1.
         21   -1    0    0  502  503 -0.00000000000E+00 -0.00000000000E+00 -0.11160842626E+04  0.11160842626E+04  0.00000000000E+00 0.  1.
         -6    2    1    2    0  503 -0.78813843492E+02 -0.33084676311E+02 -0.67878364682E+03  0.70511648885E+03  0.17069213786E+03 0.  0.
        -24    2    3    3    0    0 -0.76349950845E+01 -0.73016765810E+02 -0.38622623276E+03  0.40135189125E+03  0.80764450728E+02 0.  0.
          6    2    1    2  501    0  0.78813843492E+02  0.33084676311E+02 -0.40218695135E+03  0.44608143812E+03  0.17299736375E+03 0.  0.
         24    2    5    5    0    0  0.76551571062E+02 -0.36514754423E+02 -0.19485559524E+03  0.22731768459E+03  0.80691736906E+02 0.  0.
          5    1    5    5  501    0  0.22622724302E+01  0.69599430734E+02 -0.20733135610E+03  0.21876375353E+03  0.47000000000E+01 0. -1.
        -13    1    6    6    0    0  0.63285099216E+02  0.19368194244E+01 -0.16537804183E+03  0.17708374226E+03  0.00000000000E+00 0.  1.
         14    1    6    6    0    0  0.13266471846E+02 -0.38451573847E+02 -0.29477553413E+02  0.50233942328E+02  0.00000000000E+00 0. -1.
         -5    1    3    3    0  503 -0.71178848408E+02  0.39932089499E+02 -0.29255741406E+03  0.30376459760E+03  0.47000000000E+01 0.  1.
         13    1    4    4    0    0  0.21756526323E+01  0.11707534594E+02 -0.99125232167E+01  0.15493803509E+02  0.00000000000E+00 0. -1.
        -14    1    4    4    0    0 -0.98106477167E+01 -0.84724300404E+02 -0.37631370954E+03  0.38585808774E+03  0.00000000000E+00 0.  1.
<mgrwt>
<rscale>  2 0.19244385E+03</rscale>
<asrwt>0</asrwt>
<pdfrwt beam="1">  1       21 0.54021020E-02 0.19296193E+03</pdfrwt>
<pdfrwt beam="2">  1       21 0.17170528E+00 0.19296193E+03</pdfrwt>
<totfact> 0.48956899E+04</totfact>
</mgrwt>
</event>
<event>
12    1  0.1019868E-001  0.1820643E+03  0.7546771E-02  0.1166005E+00
         21   -1    0    0  501  502  0.00000000000E+00  0.00000000000E+00  0.10805653542E+03  0.10805653542E+03  0.00000000000E+00 0. -1.
         21   -1    0    0  502  503 -0.00000000000E+00 -0.00000000000E+00 -0.86041363115E+03  0.86041363115E+03  0.00000000000E+00 0.  1.
         -6    2    1    2    0  503  0.33913958871E+02 -0.49602543851E+02 -0.76535881400E+03  0.78671565608E+03  0.17186285343E+03 0.  0.
        -24    2    3    3    0    0 -0.38996543433E+01  0.20071680643E+02 -0.56700557565E+03  0.57305596389E+03  0.80496802804E+02 0.  0.
          6    2    1    2  501    0 -0.33913958871E+02  0.49602543851E+02  0.13001718269E+02  0.18175451049E+03  0.17104118932E+03 0.  0.
         24    2    5    5    0    0  0.33664149556E+02  0.25835994504E+01 -0.25885361768E+02  0.90585015235E+02  0.79972764613E+02 0.  0.
          5    1    5    5  501    0 -0.67578108427E+02  0.47018944401E+02  0.38887080037E+02  0.91169495255E+02  0.47000000000E+01 0. -1.
        -13    1    6    6    0    0 -0.36002107338E+00 -0.35538684605E+02 -0.13413432361E+02  0.37987470123E+02  0.00000000000E+00 0.  1.
         14    1    6    6    0    0  0.34024170630E+02  0.38122284056E+02 -0.12471929408E+02  0.52597545112E+02  0.00000000000E+00 0. -1.
         -5    1    3    3    0  503  0.37813613214E+02 -0.69674224495E+02 -0.19835323835E+03  0.21365969219E+03  0.47000000000E+01 0.  1.
         11    1    4    4    0    0  0.20008176563E+02  0.12615522499E+02 -0.48645222115E+02  0.54090998992E+02  0.00000000000E+00 0. -1.
        -12    1    4    4    0    0 -0.23907830906E+02  0.74561581442E+01 -0.51836035354E+03  0.51896496490E+03  0.00000000000E+00 0.  1.
<mgrwt>
<rscale>  2 0.18187013E+03</rscale>
<asrwt>0</asrwt>
<pdfrwt beam="1">  1       21 0.16624083E-01 0.18206430E+03</pdfrwt>
<pdfrwt beam="2">  1       21 0.13237132E+00 0.18206430E+03</pdfrwt>
<totfact> 0.13523141E+04</totfact>
</mgrwt>
</event>
<event>
12    1  0.1019868E-001  0.5311858E+03  0.7546771E-02  0.1005977E+00
         21   -1    0    0  501  502  0.00000000000E+00  0.00000000000E+00  0.71390933307E+03  0.71390933307E+03  0.00000000000E+00 0. -1.
         21   -1    0    0  502  503 -0.00000000000E+00 -0.00000000000E+00 -0.39570696402E+03  0.39570696402E+03  0.00000000000E+00 0.  1.
         -6    2    1    2    0  503  0.46231188693E+03  0.19624821395E+03  0.18529608166E+03  0.56257710322E+03  0.17295293268E+03 0.  0.
        -24    2    3    3    0    0  0.39009051452E+03  0.21902769566E+03  0.17408956965E+03  0.48587959786E+03  0.75020426295E+02 0.  0.
          6    2    1    2  501    0 -0.46231188693E+03 -0.19624821395E+03  0.13290628738E+03  0.54703919387E+03  0.17129552279E+03 0.  0.
         24    2    5    5    0    0 -0.45927729849E+03 -0.18227841676E+03  0.15153782051E+03  0.52308949685E+03  0.80609258448E+02 0.  0.
          5    1    5    5  501    0 -0.30345884375E+01 -0.13969797195E+02 -0.18631533124E+02  0.23949697017E+02  0.47000000000E+01 0. -1.
        -13    1    6    6    0    0 -0.24533886076E+03 -0.13693199863E+03  0.68766732190E+02  0.28925834871E+03  0.00000000000E+00 0.  1.
         14    1    6    6    0    0 -0.21393843773E+03 -0.45346418130E+02  0.82771088316E+02  0.23383114813E+03  0.00000000000E+00 0. -1.
         -5    1    3    3    0  503  0.72221372402E+02 -0.22779481710E+02  0.11206512004E+02  0.76697505370E+02  0.47000000000E+01 0.  1.
         11    1    4    4    0    0  0.31015791312E+03  0.14468630908E+03  0.15212555025E+03  0.37453203087E+03  0.00000000000E+00 0. -1.
        -12    1    4    4    0    0  0.79932601404E+02  0.74341386581E+02  0.21964019404E+02  0.11134756699E+03  0.00000000000E+00 0.  1.
<mgrwt>
<rscale>  2 0.53105142E+03</rscale>
<asrwt>0</asrwt>
<pdfrwt beam="1">  1       21 0.10983221E+00 0.53118580E+03</pdfrwt>
<pdfrwt beam="2">  1       21 0.60877994E-01 0.53118580E+03</pdfrwt>
<totfact> 0.13675918E+03</totfact>
</mgrwt>
</event>
<event>
12    1  0.1019868E-001  0.2045119E+03  0.7546771E-02  0.1146926E+00
         21   -1    0    0  503  502  0.00000000000E+00  0.00000000000E+00  0.16198694057E+03  0.16198694057E+03  0.00000000000E+00 0.  1.
         21   -1    0    0  501  503 -0.00000000000E+00 -0.00000000000E+00 -0.31072381439E+03  0.31072381439E+03  0.00000000000E+00 0.  1.
          6    2    1    2  501    0 -0.55526085301E+02  0.94197377931E+02 -0.17733984264E+03  0.27069270634E+03  0.17282600881E+03 0.  0.
         24    2    3    3    0    0 -0.93651971112E+02  0.27238515680E+02 -0.94026587309E+02  0.15711339081E+03  0.79567518630E+02 0.  0.
         -6    2    1    2    0  502  0.55526085301E+02 -0.94197377931E+02  0.28602968818E+02  0.20201804863E+03  0.16744213922E+03 0.  0.
        -24    2    5    5    0    0  0.11970256637E+02 -0.12319344276E+03  0.17645465970E+02  0.14835205516E+03  0.79856486385E+02 0.  0.
          5    1    3    3  501    0  0.38125885811E+02  0.66958862250E+02 -0.83313255330E+02  0.11357931553E+03  0.47000000000E+01 0. -1.
        -13    1    4    4    0    0 -0.59642058320E+02  0.31614166771E+02 -0.12474852611E+02  0.68645849174E+02  0.00000000000E+00 0.  1.
         14    1    4    4    0    0 -0.34009912793E+02 -0.43756510902E+01 -0.81551734699E+02  0.88467541635E+02  0.00000000000E+00 0. -1.
         -5    1    5    5    0  502  0.43555828664E+02  0.28996064828E+02  0.10957502848E+02  0.53665993467E+02  0.47000000000E+01 0.  1.
         11    1    6    6    0    0 -0.76057502821E+01 -0.19312586040E+02 -0.26614202293E+02  0.33751135990E+02  0.00000000000E+00 0. -1.
        -12    1    6    6    0    0  0.19576006919E+02 -0.10388085672E+03  0.44259668263E+02  0.11460091917E+03  0.00000000000E+00 0.  1.
<mgrwt>
<rscale>  2 0.20337013E+03</rscale>
<asrwt>0</asrwt>
<pdfrwt beam="1">  1       21 0.24921068E-01 0.20451191E+03</pdfrwt>
<pdfrwt beam="2">  1       21 0.47803663E-01 0.20451191E+03</pdfrwt>
<totfact> 0.63400710E+04</totfact>
</mgrwt>
</event>
<event>
12    1  0.1019868E-001  0.2519010E+03  0.7546771E-02  0.1112166E+00
         21   -1    0    0  503  502  0.00000000000E+00  0.00000000000E+00  0.39837730165E+03  0.39837730165E+03  0.00000000000E+00 0.  1.
         21   -1    0    0  501  503 -0.00000000000E+00 -0.00000000000E+00 -0.40273235533E+03  0.40273235533E+03  0.00000000000E+00 0.  1.
          6    2    1    2  501    0 -0.72303483802E+02 -0.16871731571E+03 -0.31375267221E+03  0.40236161579E+03  0.17251319993E+03 0.  0.
         24    2    3    3    0    0 -0.11233472558E+03 -0.11406847612E+03 -0.26140895098E+03  0.31662392781E+03  0.79280288828E+02 0.  0.
         -6    2    1    2    0  502  0.72303483802E+02  0.16871731571E+03  0.30939761852E+03  0.39874804119E+03  0.17198775425E+03 0.  0.
        -24    2    5    5    0    0  0.39584473644E+01  0.10601619418E+03  0.26220056628E+03  0.29457450142E+03  0.82279385010E+02 0.  0.
          5    1    3    3  501    0  0.40031241779E+02 -0.54648839590E+02 -0.52343721230E+02  0.85737687974E+02  0.47000000000E+01 0. -1.
        -11    1    4    4    0    0 -0.26287147615E+02 -0.32413307336E+02 -0.17219122025E+02  0.45145706169E+02  0.00000000000E+00 0.  1.
         12    1    4    4    0    0 -0.86047577967E+02 -0.81655168784E+02 -0.24418982895E+03  0.27147822165E+03  0.00000000000E+00 0. -1.
         -5    1    5    5    0  502  0.68345036438E+02  0.62701121526E+02  0.47197052250E+02  0.10417353977E+03  0.47000000000E+01 0.  1.
         13    1    6    6    0    0 -0.33210061846E+02  0.78394935605E+02  0.19692023246E+03  0.21453729766E+03  0.00000000000E+00 0. -1.
        -14    1    6    6    0    0  0.37168509210E+02  0.27621258579E+02  0.65280333814E+02  0.80037203757E+02  0.00000000000E+00 0.  1.
<mgrwt>
<rscale>  2 0.25181110E+03</rscale>
<asrwt>0</asrwt>
<pdfrwt beam="1">  1       21 0.61288816E-01 0.25190103E+03</pdfrwt>
<pdfrwt beam="2">  1       21 0.61958824E-01 0.25190103E+03</pdfrwt>
<totfact> 0.57483178E+03</totfact>
</mgrwt>
</event>
<event>
12    1  0.1019868E-001  0.1954844E+03  0.7546771E-02  0.1153710E+00
         21   -1    0    0  501  502  0.00000000000E+00  0.00000000000E+00  0.11466419137E+04  0.11466419137E+04  0.00000000000E+00 0.  1.
         21   -1    0    0  502  503 -0.00000000000E+00 -0.00000000000E+00 -0.36809990022E+02  0.36809990022E+02  0.00000000000E+00 0.  1.
         -6    2    1    2    0  503 -0.84489909639E+02  0.33457006716E+02  0.37138797686E+03  0.41969414027E+03  0.17307866965E+03 0.  0.
        -24    2    3    3    0    0 -0.54997974430E+02 -0.19234700545E+02  0.11095838046E+03  0.15231453196E+03  0.86563292198E+02 0.  0.
          6    2    1    2  501    0  0.84489909639E+02 -0.33457006716E+02  0.73844394680E+03  0.76375776343E+03  0.17253562680E+03 0.  0.
         24    2    5    5    0    0  0.88424460921E+02 -0.59780875237E+02  0.36083886868E+03  0.38518661851E+03  0.82288538670E+02 0.  0.
          5    1    5    5  501    0 -0.39345512813E+01  0.26323868521E+02  0.37760507812E+03  0.37857114492E+03  0.47000000000E+01 0. -1.
        -11    1    6    6    0    0  0.22610480602E+01 -0.17859013222E+02  0.17664283193E+03  0.17755772797E+03  0.00000000000E+00 0.  1.
         12    1    6    6    0    0  0.86163412860E+02 -0.41921862015E+02  0.18419603675E+03  0.20762889053E+03  0.00000000000E+00 0. -1.
         -5    1    3    3    0  503 -0.29491935209E+02  0.52691707261E+02  0.26042959640E+03  0.26737960830E+03  0.47000000000E+01 0.  1.
         11    1    4    4    0    0  0.19293646972E+02 -0.21828651729E+02  0.22773922663E+02  0.36978188210E+02  0.00000000000E+00 0. -1.
        -12    1    4    4    0    0 -0.74291621402E+02  0.25939511842E+01  0.88184457797E+02  0.11533634375E+03  0.00000000000E+00 0.  1.
<mgrwt>
<rscale>  2 0.19536411E+03</rscale>
<asrwt>0</asrwt>
<pdfrwt beam="1">  1       21 0.17640642E+00 0.19548438E+03</pdfrwt>
<pdfrwt beam="2">  1       21 0.56630763E-02 0.19548438E+03</pdfrwt>
<totfact> 0.41837334E+04</totfact>
</mgrwt>
</event>
<event>
12    1  0.1019868E-001  0.1820051E+03  0.7546771E-02  0.1166074E+00
         21   -1    0    0  501  502  0.00000000000E+00  0.00000000000E+00  0.81027403367E+03  0.81027403367E+03  0.00000000000E+00 0.  1.
         21   -1    0    0  502  503 -0.00000000000E+00 -0.00000000000E+00 -0.72645059735E+02  0.72645059735E+02  0.00000000000E+00 0.  1.
         -6    2    1    2    0  503  0.36194036871E+02 -0.43892937793E+02  0.75585556668E+02  0.19631342604E+03  0.17201507659E+03 0.  0.
        -24    2    3    3    0    0  0.36154374486E+02 -0.94051110786E+02  0.44647274353E+02  0.13719396052E+03  0.81707120019E+02 0.  0.
          6    2    1    2  501    0 -0.36194036871E+02  0.43892937793E+02  0.66204341727E+03  0.68660566736E+03  0.17288510003E+03 0.  0.
         24    2    5    5    0    0 -0.74859189333E+02  0.45982045681E+02  0.60881350328E+03  0.62061421238E+03  0.82400680128E+02 0.  0.
          5    1    5    5  501    0  0.38665152462E+02 -0.20891078881E+01  0.53229913990E+02  0.65991454978E+02  0.47000000000E+01 0. -1.
        -13    1    6    6    0    0 -0.35526797918E+02  0.44652600395E+02  0.52419616023E+03  0.52729272941E+03  0.00000000000E+00 0.  1.
         14    1    6    6    0    0 -0.39332391414E+02  0.13294452855E+01  0.84617343049E+02  0.93321482970E+02  0.00000000000E+00 0. -1.
         -5    1    3    3    0  503  0.39662384280E-01  0.50158172993E+02  0.30938282315E+02  0.59119465523E+02  0.47000000000E+01 0.  1.
         13    1    4    4    0    0 -0.22503420833E+01 -0.20300450797E+02  0.49858473587E+02  0.53879863868E+02  0.00000000000E+00 0. -1.
        -14    1    4    4    0    0  0.38404716570E+02 -0.73750659990E+02 -0.52111992340E+01  0.83314096653E+02  0.00000000000E+00 0.  1.
<mgrwt>
<rscale>  2 0.18179819E+03</rscale>
<asrwt>0</asrwt>
<pdfrwt beam="1">  1       21 0.12465754E+00 0.18200510E+03</pdfrwt>
<pdfrwt beam="2">  1       21 0.11176164E-01 0.18200510E+03</pdfrwt>
<totfact> 0.32197964E+04</totfact>
</mgrwt>
</event>
<event>
12    1  0.1019868E-001  0.2602963E+03  0.7546771E-02  0.1107148E+00
         21   -1    0    0  503  502  0.00000000000E+00  0.00000000000E+00  0.28203834720E+03  0.28203834720E+03  0.00000000000E+00 0.  1.
         21   -1    0    0  501  503 -0.00000000000E+00 -0.00000000000E+00 -0.42504873874E+03  0.42504873874E+03  0.00000000000E+00 0.  1.
          6    2    1    2  501    0 -0.18263680179E+03 -0.66806824462E+02 -0.30524510682E+03  0.40037183547E+03  0.17118317160E+03 0.  0.
         24    2    3    3    0    0 -0.17315293553E+03 -0.87327569919E+02 -0.19100162084E+03  0.28381837648E+03  0.80394080105E+02 0.  0.
         -6    2    1    2    0  502  0.18263680179E+03  0.66806824462E+02  0.16223471528E+03  0.30671525047E+03  0.17301673002E+03 0.  0.
        -24    2    5    5    0    0  0.19048026491E+03  0.70183119481E+02  0.93893792722E+02  0.23768271482E+03  0.80427775269E+02 0.  0.
          5    1    3    3  501    0 -0.94838662612E+01  0.20520745457E+02 -0.11424348598E+03  0.11655345899E+03  0.47000000000E+01 0. -1.
        -11    1    4    4    0    0 -0.16319390511E+03 -0.65028147675E+02 -0.13131173656E+03  0.21932551793E+03  0.00000000000E+00 0.  1.
         12    1    4    4    0    0 -0.99590304143E+01 -0.22299422244E+02 -0.59689884279E+02  0.64492858554E+02  0.00000000000E+00 0. -1.
         -5    1    5    5    0  502 -0.78434631189E+01 -0.33762950189E+01  0.68340922559E+02  0.69032535647E+02  0.47000000000E+01 0.  1.
         13    1    6    6    0    0  0.42987546014E+01  0.14510121229E+02  0.29167068723E+02  0.32859409719E+02  0.00000000000E+00 0. -1.
        -14    1    6    6    0    0  0.18618151031E+03  0.55672998251E+02  0.64726724000E+02  0.20482330510E+03  0.00000000000E+00 0.  1.
<mgrwt>
<rscale>  2 0.25999194E+03</rscale>
<asrwt>0</asrwt>
<pdfrwt beam="1">  1       21 0.43390515E-01 0.26029626E+03</pdfrwt>
<pdfrwt beam="2">  1       21 0.65392113E-01 0.26029626E+03</pdfrwt>
<totfact> 0.10543294E+04</totfact>
</mgrwt>
</event>
<event>
12    1  0.1019868E-001  0.1926379E+03  0.7546771E-02  0.1156871E+00
         21   -1    0    0  503  502  0.00000000000E+00  0.00000000000E+00  0.25595817374E+03  0.25595817374E+03  0.00000000000E+00 0. -1.
         21   -1    0    0  501  503 -0.00000000000E+00 -0.00000000000E+00 -0.56445064160E+03  0.56445064160E+03  0.00000000000E+00 0. -1.
          6    2    1    2  501    0 -0.18107298601E+02  0.78220940260E+02 -0.50859493077E+03  0.54264931791E+03  0.17132743175E+03 0.  0.
         24    2    3    3    0    0  0.35983299208E+02 -0.81402051036E+01 -0.23561238175E+03  0.25122934215E+03  0.79005867920E+02 0.  0.
         -6    2    1    2    0  502  0.18107298601E+02 -0.78220940260E+02  0.20010246291E+03  0.27775949743E+03  0.17510840354E+03 0.  0.
        -24    2    5    5    0    0  0.32052000491E+02 -0.29520636563E+01  0.17819653126E+03  0.19799848980E+03  0.80083411494E+02 0.  0.
          5    1    3    3  501    0 -0.54090597809E+02  0.86361145364E+02 -0.27298254902E+03  0.29141997576E+03  0.47000000000E+01 0. -1.
        -11    1    4    4    0    0 -0.74020357647E+00  0.25791458302E+02 -0.14902851626E+03  0.15124564748E+03  0.00000000000E+00 0.  1.
         12    1    4    4    0    0  0.36723502785E+02 -0.33931663406E+02 -0.86583865487E+02  0.99983694675E+02  0.00000000000E+00 0. -1.
         -5    1    5    5    0  502 -0.13944701889E+02 -0.75268876604E+02  0.21905931657E+02  0.79761007627E+02  0.47000000000E+01 0.  1.
         13    1    6    6    0    0  0.17719779162E+02 -0.41530221975E+02  0.92407613214E+02  0.10284900044E+03  0.00000000000E+00 0. -1.
        -14    1    6    6    0    0  0.14332221329E+02  0.38578158319E+02  0.85788918041E+02  0.95149489364E+02  0.00000000000E+00 0.  1.
<mgrwt>
<rscale>  2 0.19177448E+03</rscale>
<asrwt>0</asrwt>
<pdfrwt beam="1">  1       21 0.39378181E-01 0.19263785E+03</pdfrwt>
<pdfrwt beam="2">  1       21 0.86838560E-01 0.19263785E+03</pdfrwt>
<totfact> 0.70934722E+03</totfact>
</mgrwt>
</event>
<event>
12    1  0.1019868E-001  0.2044177E+03  0.7546771E-02  0.1146229E+00
         21   -1    0    0  501  502  0.00000000000E+00  0.00000000000E+00  0.44630410324E+03  0.44630410324E+03  0.00000000000E+00 0. -1.
         21   -1    0    0  502  503 -0.00000000000E+00 -0.00000000000E+00 -0.12624160354E+03  0.12624160354E+03  0.00000000000E+00 0.  1.
         -6    2    1    2    0  503 -0.70288973859E+01  0.10728000226E+03  0.13944342942E+02  0.20489277049E+03  0.17386258486E+03 0.  0.
        -24    2    3    3    0    0  0.59716320731E+02  0.60866502426E+02  0.31815873608E+02  0.12152239975E+03  0.80527472016E+02 0.  0.
          6    2    1    2  501    0  0.70288973859E+01 -0.10728000226E+03  0.30611815676E+03  0.36765293629E+03  0.17292180714E+03 0.  0.
         24    2    5    5    0    0  0.16010434902E+01 -0.36435417292E+02  0.45919586115E+02  0.97886735700E+02  0.78377941180E+02 0.  0.
          5    1    5    5  501    0  0.54278538957E+01 -0.70844584965E+02  0.26019857064E+03  0.26976620059E+03  0.47000000000E+01 0. -1.
        -13    1    6    6    0    0 -0.38393296193E+02 -0.17356357091E+02  0.22095201494E+02  0.47576110108E+02  0.00000000000E+00 0.  1.
         14    1    6    6    0    0  0.39994339683E+02 -0.19079060202E+02  0.23824384621E+02  0.50310625592E+02  0.00000000000E+00 0. -1.
         -5    1    3    3    0  503 -0.66745218117E+02  0.46413499832E+02 -0.17871530665E+02  0.83370370735E+02  0.47000000000E+01 0.  1.
         11    1    4    4    0    0 -0.11773045373E+02 -0.14303520483E+01  0.23513978677E+02  0.26335483621E+02  0.00000000000E+00 0. -1.
        -12    1    4    4    0    0  0.71489366104E+02  0.62296854474E+02  0.83018949305E+01  0.95186916132E+02  0.00000000000E+00 0.  1.
<mgrwt>
<rscale>  2 0.20421753E+03</rscale>
<asrwt>0</asrwt>
<pdfrwt beam="1">  1       21 0.68662169E-01 0.20441772E+03</pdfrwt>
<pdfrwt beam="2">  1       21 0.19421785E-01 0.20441772E+03</pdfrwt>
<totfact> 0.46859529E+04</totfact>
</mgrwt>
</event>
<event>
12    1  0.1019868E-001  0.2299633E+03  0.7546771E-02  0.1128432E+00
         21   -1    0    0  501  502  0.00000000000E+00  0.00000000000E+00  0.16362324081E+04  0.16362324081E+04  0.00000000000E+00 0.  1.
         21   -1    0    0  502  503 -0.00000000000E+00 -0.00000000000E+00 -0.31031986439E+02  0.31031986439E+02  0.00000000000E+00 0.  1.
         -6    2    1    2    0  503  0.14618244335E+03  0.19510270564E+02  0.77891299506E+03  0.81215059012E+03  0.17644594002E+03 0.  0.
        -24    2    3    3    0    0  0.12219912124E+03  0.39545296024E+02  0.76076903448E+03  0.77571029251E+03  0.80377101208E+02 0.  0.
          6    2    1    2  501    0 -0.14618244335E+03 -0.19510270564E+02  0.82628742655E+03  0.85511380437E+03  0.16345870962E+03 0.  0.
         24    2    5    5    0    0 -0.15516352939E+03 -0.49323880998E+02  0.76252884588E+03  0.78400291995E+03  0.81864348838E+02 0.  0.
          5    1    5    5  501    0  0.89810860369E+01  0.29813610435E+02  0.63758580675E+02  0.71110884422E+02  0.47000000000E+01 0. -1.
        -11    1    6    6    0    0 -0.10486370576E+03  0.12916566850E+01  0.54718307329E+03  0.55714215498E+03  0.00000000000E+00 0.  1.
         12    1    6    6    0    0 -0.50299823630E+02 -0.50615537683E+02  0.21534577259E+03  0.22686076497E+03  0.00000000000E+00 0. -1.
         -5    1    3    3    0  503  0.23983322111E+02 -0.20035025461E+02  0.18143960580E+02  0.36440297615E+02  0.47000000000E+01 0.  1.
         11    1    4    4    0    0  0.12860453067E+02 -0.13131006897E+02  0.25184984544E+03  0.25251962150E+03  0.00000000000E+00 0. -1.
        -12    1    4    4    0    0  0.10933866818E+03  0.52676302921E+02  0.50891918904E+03  0.52319067100E+03  0.00000000000E+00 0.  1.
<mgrwt>
<rscale>  2 0.22747130E+03</rscale>
<asrwt>0</asrwt>
<pdfrwt beam="1">  1       21 0.25172799E+00 0.22996332E+03</pdfrwt>
<pdfrwt beam="2">  1       21 0.47741531E-02 0.22996332E+03</pdfrwt>
<totfact> 0.18315760E+04</totfact>
</mgrwt>
</event>
<event>
12    1  0.1019868E-001  0.2189648E+03  0.7546771E-02  0.1134759E+00
         21   -1    0    0  503  502  0.00000000000E+00  0.00000000000E+00  0.20300032701E+03  0.20300032701E+03  0.00000000000E+00 0.  1.
         21   -1    0    0  501  503 -0.00000000000E+00 -0.00000000000E+00 -0.23641331594E+03  0.23641331594E+03  0.00000000000E+00 0. -1.
          6    2    1    2  501    0 -0.10675479054E+02  0.13379330665E+03 -0.29632616564E+02  0.22096082195E+03  0.17300571700E+03 0.  0.
         24    2    3    3    0    0 -0.72011736762E+02  0.72355437176E+02 -0.33808515544E+02  0.13391901333E+03  0.79814077008E+02 0.  0.
         -6    2    1    2    0  502  0.10675479054E+02 -0.13379330665E+03 -0.37803723651E+01  0.21845282100E+03  0.17231578288E+03 0.  0.
        -24    2    5    5    0    0 -0.60915698354E+02 -0.57512337572E+02  0.25244778105E+01  0.11354369813E+03  0.76599002062E+02 0.  0.
          5    1    3    3  501    0  0.61336257708E+02  0.61437869473E+02  0.41758989806E+01  0.87041808617E+02  0.47000000000E+01 0. -1.
        -11    1    4    4    0    0 -0.13150809379E+02  0.47308128023E+02  0.17279331988E+02  0.52053607736E+02  0.00000000000E+00 0.  1.
         12    1    4    4    0    0 -0.58860927383E+02  0.25047309152E+02 -0.51087847532E+02  0.81865405597E+02  0.00000000000E+00 0. -1.
         -5    1    5    5    0  502  0.71591177408E+02 -0.76280969077E+02 -0.63048501756E+01  0.10490912287E+03  0.47000000000E+01 0.  1.
         13    1    6    6    0    0 -0.98876301372E+01 -0.30628542501E+02 -0.32764275078E+02  0.45927884415E+02  0.00000000000E+00 0. -1.
        -14    1    6    6    0    0 -0.51028068217E+02 -0.26883795071E+02  0.35288752888E+02  0.67615813711E+02  0.00000000000E+00 0.  1.
<mgrwt>
<rscale>  2 0.21882852E+03</rscale>
<asrwt>0</asrwt>
<pdfrwt beam="1">  1       21 0.31230820E-01 0.21896482E+03</pdfrwt>
<pdfrwt beam="2">  1       21 0.36371279E-01 0.21896482E+03</pdfrwt>
<totfact> 0.71003541E+04</totfact>
</mgrwt>
</event>
<event>
12    1  0.1019868E-001  0.1754976E+03  0.7546771E-02  0.1174632E+00
         21   -1    0    0  501  502  0.00000000000E+00  0.00000000000E+00  0.31753243737E+02  0.31753243737E+02  0.00000000000E+00 0. -1.
         21   -1    0    0  502  503 -0.00000000000E+00 -0.00000000000E+00 -0.14175734243E+04  0.14175734243E+04  0.00000000000E+00 0. -1.
         -6    2    1    2    0  503 -0.27090961183E+02 -0.16936178154E+02 -0.11102538679E+04  0.11226216280E+04  0.16307947190E+03 0.  0.
        -24    2    3    3    0    0  0.58504261496E+01  0.47874749422E+02 -0.59521081429E+03  0.60245143623E+03  0.79659277235E+02 0.  0.
          6    2    1    2  501    0  0.27090961183E+02  0.16936178154E+02 -0.27556631267E+03  0.32670504005E+03  0.17256487535E+03 0.  0.
         24    2    5    5    0    0 -0.81433075095E+01  0.49517997138E+02 -0.26035821802E+03  0.27614413854E+03  0.77141675239E+02 0.  0.
          5    1    5    5  501    0  0.35234268692E+02 -0.32581818984E+02 -0.15208094649E+02  0.50560901509E+02  0.47000000000E+01 0. -1.
        -13    1    6    6    0    0 -0.14369329001E+02  0.45770538708E+02 -0.65701089137E+02  0.81351416357E+02  0.00000000000E+00 0.  1.
         14    1    6    6    0    0  0.62260214912E+01  0.37474584306E+01 -0.19465712889E+03  0.19479272218E+03  0.00000000000E+00 0. -1.
         -5    1    3    3    0  503 -0.32941387332E+02 -0.64810927576E+02 -0.51504305356E+03  0.52017019172E+03  0.47000000000E+01 0.  1.
         11    1    4    4    0    0 -0.24481567987E+01  0.67419163382E+02 -0.35867521333E+03  0.36496471846E+03  0.00000000000E+00 0. -1.
        -12    1    4    4    0    0  0.82985829483E+01 -0.19544413960E+02 -0.23653560096E+03  0.23748671777E+03  0.00000000000E+00 0.  1.
<mgrwt>
<rscale>  2 0.17312020E+03</rscale>
<asrwt>0</asrwt>
<pdfrwt beam="1">  1       21 0.48851146E-02 0.17549755E+03</pdfrwt>
<pdfrwt beam="2">  1       21 0.21808821E+00 0.17549755E+03</pdfrwt>
<totfact> 0.29305731E+04</totfact>
</mgrwt>
</event>
<event>
12    1  0.1019868E-001  0.2025911E+03  0.7546771E-02  0.1147605E+00
         21   -1    0    0  501  502  0.00000000000E+00  0.00000000000E+00  0.14118544996E+03  0.14118544996E+03  0.00000000000E+00 0. -1.
         21   -1    0    0  502  503 -0.00000000000E+00 -0.00000000000E+00 -0.37806762367E+03  0.37806762367E+03  0.00000000000E+00 0. -1.
         -6    2    1    2    0  503 -0.61931369303E+02  0.84605051857E+02 -0.24337507353E+03  0.31655794092E+03  0.17315886994E+03 0.  0.
        -24    2    3    3    0    0 -0.10502926861E+03  0.82545508782E+02 -0.16542253416E+03  0.22733709674E+03  0.80452672172E+02 0.  0.
          6    2    1    2  501    0  0.61931369303E+02 -0.84605051857E+02  0.64928998236E+01  0.20269513270E+03  0.17334834804E+03 0.  0.
         24    2    5    5    0    0  0.73368811702E+02 -0.37302849819E+02 -0.52518450551E+02  0.12606130936E+03  0.79741964702E+02 0.  0.
          5    1    5    5  501    0 -0.11437442399E+02 -0.47302202038E+02  0.59011350375E+02  0.76633823338E+02  0.47000000000E+01 0. -1.
        -13    1    6    6    0    0  0.41594430624E+02 -0.58575212747E+02 -0.50415042981E+02  0.87765760784E+02  0.00000000000E+00 0.  1.
         14    1    6    6    0    0  0.31774381079E+02  0.21272362928E+02 -0.21034075707E+01  0.38295548578E+02  0.00000000000E+00 0. -1.
         -5    1    3    3    0  503  0.43097899308E+02  0.20595430753E+01 -0.77952539369E+02  0.89220844182E+02  0.47000000000E+01 0.  1.
         13    1    4    4    0    0 -0.83060334011E+02  0.37525517706E+02 -0.14891435963E+03  0.17459286947E+03  0.00000000000E+00 0. -1.
        -14    1    4    4    0    0 -0.21968934601E+02  0.45019991076E+02 -0.16508174534E+02  0.52744227271E+02  0.00000000000E+00 0.  1.
<mgrwt>
<rscale>  2 0.20255057E+03</rscale>
<asrwt>0</asrwt>
<pdfrwt beam="1">  1       21 0.21720839E-01 0.20259111E+03</pdfrwt>
<pdfrwt beam="2">  1       21 0.58164249E-01 0.20259111E+03</pdfrwt>
<totfact> 0.54501071E+04</totfact>
</mgrwt>
</event>
<event>
12    1  0.1019868E-001  0.1982040E+03  0.7546771E-02  0.1151267E+00
         21   -1    0    0  503  502  0.00000000000E+00  0.00000000000E+00  0.63728780362E+02  0.63728780362E+02  0.00000000000E+00 0. -1.
         21   -1    0    0  501  503 -0.00000000000E+00 -0.00000000000E+00 -0.62066382086E+03  0.62066382086E+03  0.00000000000E+00 0. -1.
          6    2    1    2  501    0 -0.94304669640E+02  0.21505177567E+02 -0.30686596138E+03  0.36530114807E+03  0.17298082885E+03 0.  0.
         24    2    3    3    0    0 -0.51878252437E+02  0.48774093444E+02 -0.29400613977E+03  0.31304160673E+03  0.80530565946E+02 0.  0.
         -6    2    1    2    0  502  0.94304669640E+02 -0.21505177567E+02 -0.25006907912E+03  0.31909145315E+03  0.17299990683E+03 0.  0.
        -24    2    5    5    0    0  0.78507754832E+02  0.11209645416E+02 -0.62250567918E+02  0.12773397274E+03  0.78432843031E+02 0.  0.
          5    1    3    3  501    0 -0.42426417203E+02 -0.27268915877E+02 -0.12859821609E+02  0.52259541345E+02  0.47000000000E+01 0. -1.
        -11    1    4    4    0    0 -0.70123584529E+02  0.28187302040E+02 -0.17034623782E+03  0.18635901332E+03  0.00000000000E+00 0.  1.
         12    1    4    4    0    0  0.18245332092E+02  0.20586791404E+02 -0.12365990195E+03  0.12668259341E+03  0.00000000000E+00 0. -1.
         -5    1    5    5    0  502  0.15796914808E+02 -0.32714822983E+02 -0.18781851120E+03  0.19135748041E+03  0.47000000000E+01 0.  1.
         13    1    6    6    0    0  0.14937258584E+02  0.14910051701E+02 -0.60452220527E+02  0.64030479480E+02  0.00000000000E+00 0. -1.
        -14    1    6    6    0    0  0.63570496247E+02 -0.37004062850E+01 -0.17983473906E+01  0.63703493257E+02  0.00000000000E+00 0.  1.
<mgrwt>
<rscale>  2 0.19819980E+03</rscale>
<asrwt>0</asrwt>
<pdfrwt beam="1">  1       21 0.98044274E-02 0.19820396E+03</pdfrwt>
<pdfrwt beam="2">  1       21 0.95486745E-01 0.19820396E+03</pdfrwt>
<totfact> 0.76713932E+04</totfact>
</mgrwt>
</event>
<event>
12    1  0.1019868E-001  0.2233687E+03  0.7546771E-02  0.1132260E+00
         21   -1    0    0  503  502  0.00000000000E+00  0.00000000000E+00  0.15940541883E+03  0.15940541883E+03  0.00000000000E+00 0.  1.
         21   -1    0    0  501  503 -0.00000000000E+00 -0.00000000000E+00 -0.31675804460E+03  0.31675804460E+03  0.00000000000E+00 0. -1.
          6    2    1    2  501    0 -0.12877727813E+03 -0.34753500762E+02 -0.12075324537E+03  0.24981622053E+03  0.17330725489E+03 0.  0.
         24    2    3    3    0    0 -0.41967807971E+02  0.43904748012E+02 -0.30444119554E+02  0.10182692222E+03  0.75848229177E+02 0.  0.
         -6    2    1    2    0  502  0.12877727813E+03  0.34753500762E+02 -0.36599380397E+02  0.22634724290E+03  0.17917077481E+03 0.  0.
        -24    2    5    5    0    0  0.10593450149E+03  0.51090168069E+02 -0.87937877032E+02  0.16764110710E+03  0.80858807159E+02 0.  0.
          5    1    3    3  501    0 -0.86809470161E+02 -0.78658248774E+02 -0.90309125818E+02  0.14798929832E+03  0.47000000000E+01 0. -1.
        -11    1    4    4    0    0 -0.58986383235E+02  0.40542929861E+02 -0.59648340646E+01  0.71824103296E+02  0.00000000000E+00 0.  1.
         12    1    4    4    0    0  0.17018575264E+02  0.33618181505E+01 -0.24479285489E+02  0.30002818923E+02  0.00000000000E+00 0. -1.
         -5    1    5    5    0  502  0.22842776645E+02 -0.16336667307E+02  0.51338496635E+02  0.58706135798E+02  0.47000000000E+01 0.  1.
         13    1    6    6    0    0  0.98155576396E+02  0.98288531270E+01 -0.74287044062E+02  0.12348962890E+03  0.00000000000E+00 0. -1.
        -14    1    6    6    0    0  0.77789250901E+01  0.41261314942E+02 -0.13650832970E+02  0.44151478198E+02  0.00000000000E+00 0.  1.
<mgrwt>
<rscale>  2 0.22219056E+03</rscale>
<asrwt>0</asrwt>
<pdfrwt beam="1">  1       21 0.24523911E-01 0.22336866E+03</pdfrwt>
<pdfrwt beam="2">  1       21 0.48732007E-01 0.22336866E+03</pdfrwt>
<totfact> 0.62300557E+04</totfact>
</mgrwt>
</event>
<event>
12    1  0.1019868E-001  0.1775591E+03  0.7546771E-02  0.1170914E+00
         21   -1    0    0  501  502  0.00000000000E+00  0.00000000000E+00  0.13606929082E+04  0.13606929082E+04  0.00000000000E+00 0.  1.
         21   -1    0    0  502  503 -0.00000000000E+00 -0.00000000000E+00 -0.36693535476E+02  0.36693535476E+02  0.00000000000E+00 0.  1.
         -6    2    1    2    0  503  0.83441037636E+01  0.83233330850E+01  0.23533590315E+03  0.29480540039E+03  0.17716753328E+03 0.  0.
        -24    2    3    3    0    0  0.15567352306E+02  0.97279752709E+01  0.25784709831E+03  0.27066016801E+03  0.80217357700E+02 0.  0.
          6    2    1    2  501    0 -0.83441037636E+01 -0.83233330850E+01  0.10886634696E+04  0.11025810433E+04  0.17423520047E+03 0.  0.
         24    2    5    5    0    0 -0.34084525836E+02 -0.42798303007E+02  0.99347434219E+03  0.99801454362E+03  0.77770888161E+02 0.  0.
          5    1    5    5  501    0  0.25740422072E+02  0.34474969922E+02  0.95189127373E+02  0.10456649965E+03  0.47000000000E+01 0. -1.
        -11    1    6    6    0    0 -0.56689341254E+02 -0.31545054030E+02  0.54830788384E+03  0.55213250885E+03  0.00000000000E+00 0.  1.
         12    1    6    6    0    0  0.22604815418E+02 -0.11253248977E+02  0.44516645834E+03  0.44588203476E+03  0.00000000000E+00 0. -1.
         -5    1    3    3    0  503 -0.72232485423E+01 -0.14046421859E+01 -0.22511195164E+02  0.24145232384E+02  0.47000000000E+01 0.  1.
         13    1    4    4    0    0  0.46793798936E+02  0.85305373298E+01  0.19155221856E+03  0.19736940523E+03  0.00000000000E+00 0. -1.
        -14    1    4    4    0    0 -0.31226446631E+02  0.11974379411E+01  0.66294879754E+02  0.73290762776E+02  0.00000000000E+00 0.  1.
<mgrwt>
<rscale>  2 0.17682310E+03</rscale>
<asrwt>0</asrwt>
<pdfrwt beam="1">  1       21 0.20933733E+00 0.17755911E+03</pdfrwt>
<pdfrwt beam="2">  1       21 0.56451604E-02 0.17755911E+03</pdfrwt>
<totfact> 0.25934443E+04</totfact>
</mgrwt>
</event>
<event>
12    1  0.1019868E-001  0.1801137E+03  0.7546771E-02  0.1167927E+00
         21   -1    0    0  503  502  0.00000000000E+00  0.00000000000E+00  0.63031469623E+02  0.63031469623E+02  0.00000000000E+00 0.  1.
         21   -1    0    0  501  503 -0.00000000000E+00 -0.00000000000E+00 -0.85245439637E+03  0.85245439637E+03  0.00000000000E+00 0.  1.
          6    2    1    2  501    0  0.35287704198E+02  0.30866232090E+02 -0.68465937697E+03  0.70795437551E+03  0.17390511488E+03 0.  0.
         24    2    3    3    0    0  0.40109565531E+02  0.78498097802E+02 -0.59040645315E+03  0.60213496034E+03  0.78841625679E+02 0.  0.
         -6    2    1    2    0  502 -0.35287704198E+02 -0.30866232090E+02 -0.10476354978E+03  0.20753149049E+03  0.17290451651E+03 0.  0.
        -24    2    5    5    0    0 -0.62283142297E+02 -0.60195766305E+02 -0.11602668867E+03  0.16584308019E+03  0.80864174184E+02 0.  0.
          5    1    3    3  501    0 -0.48218613337E+01 -0.47631865712E+02 -0.94252923821E+02  0.10581941517E+03  0.47000000000E+01 0. -1.
        -13    1    4    4    0    0  0.35300478447E+02  0.88579962483E+02 -0.39262273331E+03  0.40403606800E+03  0.00000000000E+00 0.  1.
         14    1    4    4    0    0  0.48090870846E+01 -0.10081864681E+02 -0.19778371984E+03  0.19809889234E+03  0.00000000000E+00 0. -1.
         -5    1    5    5    0  502  0.26995438099E+02  0.29329534215E+02  0.11263138893E+02  0.41688410298E+02  0.47000000000E+01 0.  1.
         11    1    6    6    0    0  0.11544977167E+02 -0.27446039256E+02 -0.61691431366E+02  0.68501126068E+02  0.00000000000E+00 0. -1.
        -12    1    6    6    0    0 -0.73828119464E+02 -0.32749727049E+02 -0.54335257309E+02  0.97341954121E+02  0.00000000000E+00 0.  1.
<mgrwt>
<rscale>  2 0.17987171E+03</rscale>
<asrwt>0</asrwt>
<pdfrwt beam="1">  1       21 0.96971492E-02 0.18011367E+03</pdfrwt>
<pdfrwt beam="2">  1       21 0.13114683E+00 0.18011367E+03</pdfrwt>
<totfact> 0.36480556E+04</totfact>
</mgrwt>
</event>
<event>
12    1  0.1019868E-001  0.3815036E+03  0.7546771E-02  0.1050416E+00
         21   -1    0    0  503  502  0.00000000000E+00  0.00000000000E+00  0.49549867596E+03  0.49549867596E+03  0.00000000000E+00 0.  1.
         21   -1    0    0  501  503 -0.00000000000E+00 -0.00000000000E+00 -0.29777859129E+03  0.29777859129E+03  0.00000000000E+00 0. -1.
          6    2    1    2  501    0 -0.33694417782E+03 -0.43069494589E+02  0.14685054459E+03  0.40879095499E+03  0.17366232207E+03 0.  0.
         24    2    3    3    0    0 -0.12260575114E+03 -0.46774149732E+02  0.11152075482E+03  0.19147788666E+03  0.83707293771E+02 0.  0.
         -6    2    1    2    0  502  0.33694417782E+03  0.43069494589E+02  0.50869540084E+02  0.38448631226E+03  0.17278788695E+03 0.  0.
        -24    2    5    5    0    0  0.12852395534E+03  0.73880057841E+02  0.26101267891E+02  0.17229810040E+03  0.83837277939E+02 0.  0.
          5    1    3    3  501    0 -0.21433842668E+03  0.37046551431E+01  0.35329789778E+02  0.21731306833E+03  0.47000000000E+01 0. -1.
        -11    1    4    4    0    0 -0.13380678460E+03 -0.42340441381E+02  0.89729114360E+02  0.16657815746E+03  0.00000000000E+00 0.  1.
         12    1    4    4    0    0  0.11201033460E+02 -0.44337083507E+01  0.21791640455E+02  0.24899729196E+02  0.00000000000E+00 0. -1.
         -5    1    5    5    0  502  0.20842022247E+03 -0.30810563252E+02  0.24768272194E+02  0.21218821186E+03  0.47000000000E+01 0.  1.
         13    1    6    6    0    0  0.64655312015E+02 -0.25070607219E+01 -0.11776351606E+02  0.65766839534E+02  0.00000000000E+00 0. -1.
        -14    1    6    6    0    0  0.63868643330E+02  0.76387118562E+02  0.37877619497E+02  0.10653126087E+03  0.00000000000E+00 0.  1.
<mgrwt>
<rscale>  2 0.38140420E+03</rscale>
<asrwt>0</asrwt>
<pdfrwt beam="1">  1       21 0.76230566E-01 0.38150355E+03</pdfrwt>
<pdfrwt beam="2">  1       21 0.45812091E-01 0.38150355E+03</pdfrwt>
<totfact> 0.63357676E+03</totfact>
</mgrwt>
</event>
<event>
12    1  0.1019868E-001  0.1938789E+03  0.7546771E-02  0.1156429E+00
         21   -1    0    0  503  502  0.00000000000E+00  0.00000000000E+00  0.17362660167E+03  0.17362660167E+03  0.00000000000E+00 0.  1.
         21   -1    0    0  501  503 -0.00000000000E+00 -0.00000000000E+00 -0.25027671816E+03  0.25027671816E+03  0.00000000000E+00 0.  1.
          6    2    1    2  501    0 -0.67250474764E+01  0.75593056182E+02 -0.12444845494E+03  0.23038322078E+03  0.17840816707E+03 0.  0.
         24    2    3    3    0    0 -0.47594858965E+02  0.79811671997E+02 -0.14030944612E+03  0.18609101773E+03  0.79422620350E+02 0.  0.
         -6    2    1    2    0  502  0.67250474764E+01 -0.75593056182E+02  0.47798338449E+02  0.19352009905E+03  0.17148122688E+03 0.  0.
        -24    2    5    5    0    0 -0.40238759575E+02 -0.16196278801E+02  0.28389751360E+02  0.11521071527E+03  0.10288854995E+03 0.  0.
          5    1    3    3  501    0  0.40869811489E+02 -0.42186158149E+01  0.15860991175E+02  0.44292203057E+02  0.47000000000E+01 0. -1.
        -11    1    4    4    0    0 -0.46193822588E+02  0.47929464365E+01 -0.63977826522E+02  0.79056965963E+02  0.00000000000E+00 0.  1.
         12    1    4    4    0    0 -0.14010363778E+01  0.75018725560E+02 -0.76331619593E+02  0.10703405177E+03  0.00000000000E+00 0. -1.
         -5    1    5    5    0  502  0.46963807051E+02 -0.59396777381E+02  0.19408587089E+02  0.78309383785E+02  0.47000000000E+01 0.  1.
         11    1    6    6    0    0  0.24248565970E+01  0.37158792233E+02  0.28505041035E+02  0.46895555590E+02  0.00000000000E+00 0. -1.
        -12    1    6    6    0    0 -0.42663616172E+02 -0.53355071034E+02 -0.11528967538E+00  0.68315159676E+02  0.00000000000E+00 0.  1.
<mgrwt>
<rscale>  2 0.19227030E+03</rscale>
<asrwt>0</asrwt>
<pdfrwt beam="1">  1       21 0.26711785E-01 0.19387886E+03</pdfrwt>
<pdfrwt beam="2">  1       21 0.38504110E-01 0.19387886E+03</pdfrwt>
<totfact> 0.86740142E+04</totfact>
</mgrwt>
</event>
<event>
12    1  0.1019868E-001  0.2129933E+03  0.7546771E-02  0.1139580E+00
         21   -1    0    0  503  502  0.00000000000E+00  0.00000000000E+00  0.79446517669E+02  0.79446517669E+02  0.00000000000E+00 0. -1.
         21   -1    0    0  501  503 -0.00000000000E+00 -0.00000000000E+00 -0.76330668521E+03  0.76330668521E+03  0.00000000000E+00 0. -1.
          6    2    1    2  501    0  0.17177964269E+02  0.11862808508E+03 -0.12883759231E+03  0.24892826085E+03  0.17606376353E+03 0.  0.
         24    2    3    3    0    0 -0.51577159576E+02  0.97301552151E+02 -0.10873547714E+03  0.17403985656E+03  0.79615778854E+02 0.  0.
         -6    2    1    2    0  502 -0.17177964269E+02 -0.11862808508E+03 -0.55502257523E+03  0.59382494204E+03  0.17381109787E+03 0.  0.
        -24    2    5    5    0    0 -0.70373446067E+02 -0.42538411052E+02 -0.25329775235E+03  0.27810456494E+03  0.80127768993E+02 0.  0.
          5    1    3    3  501    0  0.68755123845E+02  0.21326532926E+02 -0.20102115174E+02  0.74888404283E+02  0.47000000000E+01 0. -1.
        -11    1    4    4    0    0  0.96487855164E+01 -0.63851008312E+01 -0.24476841010E+02  0.27073683170E+02  0.00000000000E+00 0.  1.
         12    1    4    4    0    0 -0.61225945093E+02  0.10368665298E+03 -0.84258636129E+02  0.14696617339E+03  0.00000000000E+00 0. -1.
         -5    1    5    5    0  502  0.53195481798E+02 -0.76089674025E+02 -0.30172482288E+03  0.31572037710E+03  0.47000000000E+01 0.  1.
         13    1    6    6    0    0  0.37794417369E+01 -0.37100045810E+02 -0.56182972883E+02  0.67433107751E+02  0.00000000000E+00 0. -1.
        -14    1    6    6    0    0 -0.74152887803E+02 -0.54383652423E+01 -0.19711477947E+03  0.21067145718E+03  0.00000000000E+00 0.  1.
<mgrwt>
<rscale>  2 0.21252722E+03</rscale>
<asrwt>0</asrwt>
<pdfrwt beam="1">  1       21 0.12222541E-01 0.21299332E+03</pdfrwt>
<pdfrwt beam="2">  1       21 0.11743180E+00 0.21299332E+03</pdfrwt>
<totfact> 0.31263767E+04</totfact>
</mgrwt>
</event>
<event>
12    1  0.1019868E-001  0.2110987E+03  0.7546771E-02  0.1143135E+00
         21   -1    0    0  503  502  0.00000000000E+00  0.00000000000E+00  0.36395415297E+02  0.36395415297E+02  0.00000000000E+00 0.  1.
         21   -1    0    0  501  503 -0.00000000000E+00 -0.00000000000E+00 -0.13700148501E+04  0.13700148501E+04  0.00000000000E+00 0. -1.
          6    2    1    2  501    0  0.16641406107E+02  0.93971801288E+02 -0.92833335777E+03  0.94944257615E+03  0.17473049656E+03 0.  0.
         24    2    3    3    0    0 -0.15781742763E+01  0.23245119788E+02 -0.19215389391E+03  0.20963414852E+03  0.80501745653E+02 0.  0.
         -6    2    1    2    0  502 -0.16641406107E+02 -0.93971801288E+02 -0.40528607701E+03  0.45696768922E+03  0.18829505819E+03 0.  0.
        -24    2    5    5    0    0  0.47495110464E+02 -0.69178161091E+02 -0.13649720502E+03  0.17948297782E+03  0.80877987496E+02 0.  0.
          5    1    3    3  501    0  0.18219580383E+02  0.70726681500E+02 -0.73617946386E+03  0.73980842763E+03  0.47000000000E+01 0. -1.
        -11    1    4    4    0    0 -0.10140308267E+02  0.52365003692E+02 -0.12767332896E+03  0.13836689774E+03  0.00000000000E+00 0.  1.
         12    1    4    4    0    0  0.85621339911E+01 -0.29119883904E+02 -0.64480564948E+02  0.71267250775E+02  0.00000000000E+00 0. -1.
         -5    1    5    5    0  502 -0.64136516570E+02 -0.24793640197E+02 -0.26878887199E+03  0.27748471140E+03  0.47000000000E+01 0.  1.
         11    1    6    6    0    0 -0.96090114850E+01 -0.10597954130E+02 -0.77024903720E+02  0.78342105707E+02  0.00000000000E+00 0. -1.
        -12    1    6    6    0    0  0.57104121949E+02 -0.58580206961E+02 -0.59472301296E+02  0.10114087212E+03  0.00000000000E+00 0.  1.
<mgrwt>
<rscale>  2 0.20803130E+03</rscale>
<asrwt>0</asrwt>
<pdfrwt beam="1">  1       21 0.55992952E-02 0.21109871E+03</pdfrwt>
<pdfrwt beam="2">  1       21 0.21077149E+00 0.21109871E+03</pdfrwt>
<totfact> 0.25117961E+04</totfact>
</mgrwt>
</event>
<event>
12    1  0.1019868E-001  0.2060690E+03  0.7546771E-02  0.1144979E+00
         21   -1    0    0  501  502  0.00000000000E+00  0.00000000000E+00  0.22012345950E+03  0.22012345950E+03  0.00000000000E+00 0.  1.
         21   -1    0    0  502  503 -0.00000000000E+00 -0.00000000000E+00 -0.20466450785E+03  0.20466450785E+03  0.00000000000E+00 0.  1.
         -6    2    1    2    0  503  0.68994712170E+02  0.85464894668E+02 -0.45725712691E+02  0.20982748175E+03  0.17283579713E+03 0.  0.
        -24    2    3    3    0    0  0.27679522789E+02  0.15573427190E+02  0.37442540772E+02  0.93505469719E+02  0.79577895119E+02 0.  0.
          6    2    1    2  501    0 -0.68994712170E+02 -0.85464894668E+02  0.61184664337E+02  0.21496048560E+03  0.17435575325E+03 0.  0.
         24    2    5    5    0    0 -0.11012443407E+03 -0.38743756267E+02  0.55355865204E+02  0.15226611826E+03  0.80574371408E+02 0.  0.
          5    1    5    5  501    0  0.41129721898E+02 -0.46721138401E+02  0.58287991325E+01  0.62694367340E+02  0.47000000000E+01 0. -1.
        -13    1    6    6    0    0 -0.38217431739E+02 -0.57725840749E+01 -0.19557951818E+02  0.43317528726E+02  0.00000000000E+00 0.  1.
         14    1    6    6    0    0 -0.71907002329E+02 -0.32971172193E+02  0.74913817022E+02  0.10894858953E+03  0.00000000000E+00 0. -1.
         -5    1    3    3    0  503  0.41315189380E+02  0.69891467478E+02 -0.83168253464E+02  0.11632201204E+03  0.47000000000E+01 0.  1.
         13    1    4    4    0    0  0.53443711059E+02 -0.20579479957E+01  0.16726027322E+02  0.56037714012E+02  0.00000000000E+00 0. -1.
        -14    1    4    4    0    0 -0.25764188270E+02  0.17631375186E+02  0.20716513451E+02  0.37467755707E+02  0.00000000000E+00 0.  1.
<mgrwt>
<rscale>  2 0.20574717E+03</rscale>
<asrwt>0</asrwt>
<pdfrwt beam="1">  1       21 0.33865148E-01 0.20606904E+03</pdfrwt>
<pdfrwt beam="2">  1       21 0.31486847E-01 0.20606904E+03</pdfrwt>
<totfact> 0.80975473E+04</totfact>
</mgrwt>
</event>
<event>
12    1  0.1019868E-001  0.3826128E+03  0.7546771E-02  0.1050101E+00
         21   -1    0    0  503  502  0.00000000000E+00  0.00000000000E+00  0.13506240971E+03  0.13506240971E+03  0.00000000000E+00 0. -1.
         21   -1    0    0  501  503 -0.00000000000E+00 -0.00000000000E+00 -0.11074317476E+04  0.11074317476E+04  0.00000000000E+00 0. -1.
          6    2    1    2  501    0  0.32804246713E+03 -0.92687994294E+02 -0.58322442451E+03  0.69675949158E+03  0.17064622827E+03 0.  0.
         24    2    3    3    0    0  0.45974879537E+02 -0.16299414298E+02 -0.93907802405E+02  0.12680318992E+03  0.69864248127E+02 0.  0.
         -6    2    1    2    0  502 -0.32804246713E+03  0.92687994294E+02 -0.38914491339E+03  0.54573466574E+03  0.17375165393E+03 0.  0.
        -24    2    5    5    0    0 -0.15061240012E+03 -0.70875587540E+01 -0.12196406676E+03  0.20981163219E+03  0.80070961402E+02 0.  0.
          5    1    3    3  501    0  0.28206758760E+03 -0.76388579996E+02 -0.48931662211E+03  0.56995630166E+03  0.47000000000E+01 0. -1.
        -11    1    4    4    0    0  0.55374566550E+02  0.78114189552E+01 -0.46239597180E+02  0.72563497945E+02  0.00000000000E+00 0.  1.
         12    1    4    4    0    0 -0.93996870132E+01 -0.24110833253E+02 -0.47668205225E+02  0.54239691974E+02  0.00000000000E+00 0. -1.
         -5    1    5    5    0  502 -0.17743006701E+03  0.99775553048E+02 -0.26718084663E+03  0.33592303356E+03  0.47000000000E+01 0.  1.
         11    1    6    6    0    0 -0.12093205028E+03  0.15752321397E+02 -0.12180041355E+03  0.17236019597E+03  0.00000000000E+00 0. -1.
        -12    1    6    6    0    0 -0.29680349842E+02 -0.22839880151E+02 -0.16365320905E+00  0.37451436213E+02  0.00000000000E+00 0.  1.
<mgrwt>
<rscale>  2 0.38226228E+03</rscale>
<asrwt>0</asrwt>
<pdfrwt beam="1">  1       21 0.20778833E-01 0.38261281E+03</pdfrwt>
<pdfrwt beam="2">  1       21 0.17037410E+00 0.38261281E+03</pdfrwt>
<totfact> 0.40447444E+03</totfact>
</mgrwt>
</event>
<event>
12    1  0.1019868E-001  0.1937135E+03  0.7546771E-02  0.1156559E+00
         21   -1    0    0  501  502  0.00000000000E+00  0.00000000000E+00  0.45198840407E+03  0.45198840407E+03  0.00000000000E+00 0.  1.
         21   -1    0    0  502  503 -0.00000000000E+00 -0.00000000000E+00 -0.81790730277E+02  0.81790730277E+02  0.00000000000E+00 0. -1.
         -6    2    1    2    0  503 -0.76040244616E+02 -0.71602416598E+01  0.22346741389E+03  0.29574076112E+03  0.17802113598E+03 0.  0.
        -24    2    3    3    0    0 -0.21992539801E+02 -0.69081499015E+02  0.10824775977E+03  0.15413195065E+03  0.82359913807E+02 0.  0.
          6    2    1    2  501    0  0.76040244616E+02  0.71602416598E+01  0.14673025990E+03  0.23803837322E+03  0.17116982822E+03 0.  0.
         24    2    5    5    0    0  0.63474826096E+02 -0.47586879551E+02  0.14424586174E+03  0.18161675274E+03  0.76708614872E+02 0.  0.
          5    1    5    5  501    0  0.12565418520E+02  0.54747121211E+02  0.24843981654E+01  0.56421620481E+02  0.47000000000E+01 0. -1.
        -13    1    6    6    0    0 -0.16448987716E+02 -0.19711095964E+02  0.31673297028E+02  0.40771242876E+02  0.00000000000E+00 0.  1.
         14    1    6    6    0    0  0.79923813812E+02 -0.27875783587E+02  0.11257256471E+03  0.14084550987E+03  0.00000000000E+00 0. -1.
         -5    1    3    3    0  503 -0.54047704814E+02  0.61921257355E+02  0.11521965412E+03  0.14160881047E+03  0.47000000000E+01 0.  1.
         11    1    4    4    0    0 -0.47008555329E+02 -0.62717408302E+02  0.57540428987E+02  0.97232600224E+02  0.00000000000E+00 0. -1.
        -12    1    4    4    0    0  0.25016015528E+02 -0.63640907129E+01  0.50707330788E+02  0.56899350428E+02  0.00000000000E+00 0.  1.
<mgrwt>
<rscale>  2 0.19212484E+03</rscale>
<asrwt>0</asrwt>
<pdfrwt beam="1">  1       21 0.69536676E-01 0.19371348E+03</pdfrwt>
<pdfrwt beam="2">  1       21 0.12583190E-01 0.19371348E+03</pdfrwt>
<totfact> 0.10130218E+05</totfact>
</mgrwt>
</event>
<event>
12    1  0.1019868E-001  0.1813221E+03  0.7546771E-02  0.1167557E+00
         21   -1    0    0  501  502  0.00000000000E+00  0.00000000000E+00  0.87775405437E+03  0.87775405437E+03  0.00000000000E+00 0.  1.
         21   -1    0    0  502  503 -0.00000000000E+00 -0.00000000000E+00 -0.46338700684E+02  0.46338700684E+02  0.00000000000E+00 0.  1.
         -6    2    1    2    0  503 -0.29336300079E+02 -0.44757047985E+02  0.19988178675E+03  0.26704454907E+03  0.16880832522E+03 0.  0.
        -24    2    3    3    0    0 -0.36347864420E+02  0.38205798493E+02  0.11028280697E+03  0.14464331089E+03  0.77321016445E+02 0.  0.
          6    2    1    2  501    0  0.29336300079E+02  0.44757047985E+02  0.63153356693E+03  0.65704820599E+03  0.17324516438E+03 0.  0.
         24    2    5    5    0    0 -0.26383833635E+02  0.76841873026E+02  0.45856911515E+03  0.47245957990E+03  0.79571610173E+02 0.  0.
          5    1    5    5  501    0  0.55720133714E+02 -0.32084825042E+02  0.17296445178E+03  0.18458862608E+03  0.47000000000E+01 0. -1.
        -11    1    6    6    0    0 -0.38218990141E+02  0.83536578575E+02  0.31150639158E+03  0.32476958473E+03  0.00000000000E+00 0.  1.
         12    1    6    6    0    0  0.11835156506E+02 -0.66947055484E+01  0.14706272357E+03  0.14768999518E+03  0.00000000000E+00 0. -1.
         -5    1    3    3    0  503  0.70115643419E+01 -0.82962846478E+02  0.89598979779E+02  0.12240123818E+03  0.47000000000E+01 0.  1.
         11    1    4    4    0    0 -0.46296776629E+02  0.42989549494E+02  0.42911010310E+02  0.76373082285E+02  0.00000000000E+00 0. -1.
        -12    1    4    4    0    0  0.99489122081E+01 -0.47837510003E+01  0.67371796665E+02  0.68270228603E+02  0.00000000000E+00 0.  1.
<mgrwt>
<rscale>  2 0.18025410E+03</rscale>
<asrwt>0</asrwt>
<pdfrwt beam="1">  1       21 0.13503907E+00 0.18132209E+03</pdfrwt>
<pdfrwt beam="2">  1       21 0.71290315E-02 0.18132209E+03</pdfrwt>
<totfact> 0.57874006E+04</totfact>
</mgrwt>
</event>
<event>
12    1  0.1019868E-001  0.2572518E+03  0.7546771E-02  0.1108879E+00
         21   -1    0    0  501  502  0.00000000000E+00  0.00000000000E+00  0.10989409445E+03  0.10989409445E+03  0.00000000000E+00 0.  1.
         21   -1    0    0  502  503 -0.00000000000E+00 -0.00000000000E+00 -0.76031398360E+03  0.76031398360E+03  0.00000000000E+00 0. -1.
         -6    2    1    2    0  503  0.18641017128E+03  0.32662856256E+02 -0.52457131917E+03  0.58425470317E+03  0.17424946239E+03 0.  0.
        -24    2    3    3    0    0  0.16437874384E+03 -0.15588964445E+02 -0.28562666198E+03  0.33944812402E+03  0.79868965348E+02 0.  0.
          6    2    1    2  501    0 -0.18641017128E+03 -0.32662856256E+02 -0.12584856998E+03  0.28595337489E+03  0.17353920569E+03 0.  0.
         24    2    5    5    0    0 -0.64796922009E+02  0.27059773525E+02 -0.92627285356E+01  0.10714922692E+03  0.80400785102E+02 0.  0.
          5    1    5    5  501    0 -0.12161324927E+03 -0.59722629780E+02 -0.11658584144E+03  0.17880414797E+03  0.47000000000E+01 0. -1.
        -13    1    6    6    0    0 -0.12378389330E+02  0.14672214400E+02  0.33342387558E+02  0.38473539035E+02  0.00000000000E+00 0.  1.
         14    1    6    6    0    0 -0.52418532679E+02  0.12387559125E+02 -0.42605116094E+02  0.68675687886E+02  0.00000000000E+00 0. -1.
         -5    1    3    3    0  503  0.22031427436E+02  0.48251820700E+02 -0.23894465719E+03  0.24480657915E+03  0.47000000000E+01 0.  1.
         11    1    4    4    0    0  0.86252289868E+02  0.31499017402E+02 -0.15413227442E+03  0.17941126950E+03  0.00000000000E+00 0. -1.
        -12    1    4    4    0    0  0.78126453972E+02 -0.47087981847E+02 -0.13149438756E+03  0.16003685452E+03  0.00000000000E+00 0.  1.
<mgrwt>
<rscale>  2 0.25713158E+03</rscale>
<asrwt>0</asrwt>
<pdfrwt beam="1">  1       21 0.16906784E-01 0.25725180E+03</pdfrwt>
<pdfrwt beam="2">  1       21 0.11697138E+00 0.25725180E+03</pdfrwt>
<totfact> 0.17068124E+04</totfact>
</mgrwt>
</event>
<event>
12    1  0.1019868E-001  0.2558421E+03  0.7546771E-02  0.1109681E+00
         21   -1    0    0  501  502  0.00000000000E+00  0.00000000000E+00  0.86495110225E+03  0.86495110225E+03  0.00000000000E+00 0.  1.
         21   -1    0    0  502  503 -0.00000000000E+00 -0.00000000000E+00 -0.90503829898E+02  0.90503829898E+02  0.00000000000E+00 0. -1.
         -6    2    1    2    0  503  0.18530249859E+03 -0.33245379959E+02  0.19361901422E+03  0.32077656138E+03  0.17310981600E+03 0.  0.
        -24    2    3    3    0    0  0.46912367835E+02  0.34050457289E+02  0.97926392698E+02  0.13950404330E+03  0.80694459608E+02 0.  0.
          6    2    1    2  501    0 -0.18530249859E+03  0.33245379959E+02  0.58082825813E+03  0.63467837076E+03  0.17324230891E+03 0.  0.
         24    2    5    5    0    0 -0.19725388220E+03  0.14464105658E+02  0.41976082863E+03  0.47201190624E+03  0.86474169449E+02 0.  0.
          5    1    5    5  501    0  0.11951383615E+02  0.18781274302E+02  0.16106742950E+03  0.16266646452E+03  0.47000000000E+01 0. -1.
        -13    1    6    6    0    0 -0.12152685537E+03  0.68912474472E+01  0.34283116898E+03  0.36379867549E+03  0.00000000000E+00 0.  1.
         14    1    6    6    0    0 -0.75727026832E+02  0.75728582104E+01  0.76929659656E+02  0.10821323075E+03  0.00000000000E+00 0. -1.
         -5    1    3    3    0  503  0.13839013075E+03 -0.67295837248E+02  0.95692621519E+02  0.18127251809E+03  0.47000000000E+01 0.  1.
         13    1    4    4    0    0  0.55046923748E+02  0.27171981269E+02  0.25790033982E+02  0.66585330464E+02  0.00000000000E+00 0. -1.
        -14    1    4    4    0    0 -0.81345559125E+01  0.68784760200E+01  0.72136358715E+02  0.72918712831E+02  0.00000000000E+00 0.  1.
<mgrwt>
<rscale>  2 0.25581965E+03</rscale>
<asrwt>0</asrwt>
<pdfrwt beam="1">  1       21 0.13306939E+00 0.25584208E+03</pdfrwt>
<pdfrwt beam="2">  1       21 0.13923667E-01 0.25584208E+03</pdfrwt>
<totfact> 0.17620451E+04</totfact>
</mgrwt>
</event>
<event>
12    1  0.1019868E-001  0.3654097E+03  0.7546771E-02  0.1056678E+00
         21   -1    0    0  501  502  0.00000000000E+00  0.00000000000E+00  0.17779528897E+04  0.17779528897E+04  0.00000000000E+00 0. -1.
         21   -1    0    0  502  503 -0.00000000000E+00 -0.00000000000E+00 -0.24508686787E+03  0.24508686787E+03  0.00000000000E+00 0.  1.
         -6    2    1    2    0  503 -0.31245971012E+03 -0.76592261919E+02 -0.77807507189E+02  0.37143644658E+03  0.16856328377E+03 0.  0.
        -24    2    3    3    0    0 -0.10880825575E+03 -0.55390406413E+02  0.13998669292E+02  0.14699514560E+03  0.80649094509E+02 0.  0.
          6    2    1    2  501    0  0.31245971012E+03  0.76592261919E+02  0.16106735290E+04  0.16516033110E+04  0.17328252877E+03 0.  0.
         24    2    5    5    0    0  0.17959380007E+03  0.97636192930E+02  0.11851517881E+04  0.12052995589E+04  0.79846770760E+02 0.  0.
          5    1    5    5  501    0  0.13286591006E+03 -0.21043931011E+02  0.42552174094E+03  0.44630375206E+03  0.47000000000E+01 0. -1.
        -13    1    6    6    0    0  0.29741213330E+02  0.16082881029E+02  0.41997502559E+03  0.42133385925E+03  0.00000000000E+00 0.  1.
         14    1    6    6    0    0  0.14985258674E+03  0.81553311901E+02  0.76517676246E+03  0.78396569966E+03  0.00000000000E+00 0. -1.
         -5    1    3    3    0  503 -0.20365145438E+03 -0.21201855505E+02 -0.91806176481E+02  0.22444130098E+03  0.47000000000E+01 0.  1.
         11    1    4    4    0    0 -0.20322989899E+02 -0.49383656961E+02 -0.11678427592E+02  0.54664020748E+02  0.00000000000E+00 0. -1.
        -12    1    4    4    0    0 -0.88485265848E+02 -0.60067494523E+01  0.25677096884E+02  0.92331124847E+02  0.00000000000E+00 0.  1.
<mgrwt>
<rscale>  2 0.36485494E+03</rscale>
<asrwt>0</asrwt>
<pdfrwt beam="1">  1       21 0.27353121E+00 0.36540974E+03</pdfrwt>
<pdfrwt beam="2">  1       21 0.37705673E-01 0.36540974E+03</pdfrwt>
<totfact> 0.27606206E+02</totfact>
</mgrwt>
</event>
<event>
12    1  0.1019868E-001  0.2086658E+03  0.7546771E-02  0.1142835E+00
         21   -1    0    0  501  502  0.00000000000E+00  0.00000000000E+00  0.69040900596E+02  0.69040900596E+02  0.00000000000E+00 0. -1.
         21   -1    0    0  502  503 -0.00000000000E+00 -0.00000000000E+00 -0.62875975557E+03  0.62875975557E+03  0.00000000000E+00 0.  1.
         -6    2    1    2    0  503  0.11549640456E+03  0.97731942032E+01 -0.26512242097E+03  0.33738898003E+03  0.17351222134E+03 0.  0.
        -24    2    3    3    0    0  0.64111663085E+02  0.60418266743E+02 -0.10280435469E+03  0.15969666261E+03  0.84697204244E+02 0.  0.
          6    2    1    2  501    0 -0.11549640456E+03 -0.97731942032E+01 -0.29459643400E+03  0.36041167613E+03  0.17226312018E+03 0.  0.
         24    2    5    5    0    0 -0.24916530551E+02  0.14621619185E+02 -0.23290821810E+03  0.24804020966E+03  0.80268812807E+02 0.  0.
          5    1    5    5  501    0 -0.90579874005E+02 -0.24394813388E+02 -0.61688215904E+02  0.11237146647E+03  0.47000000000E+01 0. -1.
        -11    1    6    6    0    0 -0.15220402075E+02  0.18543732735E+02 -0.11890713903E+02  0.26775356957E+02  0.00000000000E+00 0.  1.
         12    1    6    6    0    0 -0.96961284766E+01 -0.39221135500E+01 -0.22101750420E+03  0.22126485271E+03  0.00000000000E+00 0. -1.
         -5    1    3    3    0  503  0.51384741471E+02 -0.50645072540E+02 -0.16231806628E+03  0.17769231742E+03  0.47000000000E+01 0.  1.
         11    1    4    4    0    0  0.66362500604E+02  0.11471458046E+02 -0.34595684454E+02  0.75712860327E+02  0.00000000000E+00 0. -1.
        -12    1    4    4    0    0 -0.22508375182E+01  0.48946808697E+02 -0.68208670234E+02  0.83983802285E+02  0.00000000000E+00 0.  1.
<mgrwt>
<rscale>  2 0.20840596E+03</rscale>
<asrwt>0</asrwt>
<pdfrwt beam="1">  1       21 0.10621677E-01 0.20866582E+03</pdfrwt>
<pdfrwt beam="2">  1       21 0.96732267E-01 0.20866582E+03</pdfrwt>
<totfact> 0.64259256E+04</totfact>
</mgrwt>
</event>
<event>
12    1  0.1019868E-001  0.1775474E+03  0.7546771E-02  0.1170430E+00
         21   -1    0    0  501  502  0.00000000000E+00  0.00000000000E+00  0.20818972283E+03  0.20818972283E+03  0.00000000000E+00 0.  1.
         21   -1    0    0  502  503 -0.00000000000E+00 -0.00000000000E+00 -0.15245166786E+03  0.15245166786E+03  0.00000000000E+00 0.  1.
         -6    2    1    2    0  503  0.18609595648E+02  0.34160984413E+02  0.47741011177E+02  0.18385393217E+03  0.17323329449E+03 0.  0.
        -24    2    3    3    0    0  0.40410125478E+02 -0.36059522349E+02  0.22472885700E+02  0.10596458222E+03  0.88262079626E+02 0.  0.
          6    2    1    2  501    0 -0.18609595648E+02 -0.34160984413E+02  0.79970437928E+01  0.17678745853E+03  0.17226886798E+03 0.  0.
         24    2    5    5    0    0  0.18605570316E+02  0.27121789648E+02 -0.31382366129E+02  0.94852271334E+02  0.83248674180E+02 0.  0.
          5    1    5    5  501    0 -0.37215165965E+02 -0.61282774061E+02  0.39379409922E+02  0.81935187192E+02  0.47000000000E+01 0. -1.
        -11    1    6    6    0    0 -0.11102349582E+01  0.93779725926E+01  0.28142711407E+02  0.29684864779E+02  0.00000000000E+00 0.  1.
         12    1    6    6    0    0  0.19715805275E+02  0.17743817055E+02 -0.59525077537E+02  0.65167406555E+02  0.00000000000E+00 0. -1.
         -5    1    3    3    0  503 -0.21800529829E+02  0.70220506762E+02  0.25268125477E+02  0.77889349951E+02  0.47000000000E+01 0.  1.
         11    1    4    4    0    0  0.43174094356E+02 -0.15590018281E+02 -0.26367041216E+02  0.52936489834E+02  0.00000000000E+00 0. -1.
        -12    1    4    4    0    0 -0.27639688783E+01 -0.20469504067E+02  0.48839926916E+02  0.53028092384E+02  0.00000000000E+00 0.  1.
<mgrwt>
<rscale>  2 0.17731167E+03</rscale>
<asrwt>0</asrwt>
<pdfrwt beam="1">  1       21 0.32029188E-01 0.17754736E+03</pdfrwt>
<pdfrwt beam="2">  1       21 0.23454103E-01 0.17754736E+03</pdfrwt>
<totfact> 0.16110688E+05</totfact>
</mgrwt>
</event>
<event>
12    1  0.1019868E-001  0.1810727E+03  0.7546771E-02  0.1167195E+00
         21   -1    0    0  503  502  0.00000000000E+00  0.00000000000E+00  0.98115578789E+02  0.98115578789E+02  0.00000000000E+00 0.  1.
         21   -1    0    0  501  503 -0.00000000000E+00 -0.00000000000E+00 -0.59607895265E+03  0.59607895265E+03  0.00000000000E+00 0.  1.
          6    2    1    2  501    0 -0.49356668099E+02 -0.14891473115E+02 -0.48115758547E+03  0.51410110198E+03  0.17357846739E+03 0.  0.
         24    2    3    3    0    0  0.88226384022E+01  0.31447351854E+02 -0.34611084660E+03  0.35985509689E+03  0.92931145157E+02 0.  0.
         -6    2    1    2    0  502  0.49356668099E+02  0.14891473115E+02 -0.16805788391E+02  0.18009342946E+03  0.17173634489E+03 0.  0.
        -24    2    5    5    0    0 -0.41097006518E+01  0.71957133450E+01  0.52976228262E+02  0.91722070110E+02  0.74416325188E+02 0.  0.
          5    1    3    3  501    0 -0.58179306501E+02 -0.46338824968E+02 -0.13504673887E+03  0.15424600509E+03  0.47000000000E+01 0. -1.
        -13    1    4    4    0    0 -0.36319671927E+02 -0.69854527649E+01 -0.17185696176E+03  0.17579172456E+03  0.00000000000E+00 0.  1.
         14    1    4    4    0    0  0.45142310329E+02  0.38432804619E+02 -0.17425388484E+03  0.18406337234E+03  0.00000000000E+00 0. -1.
         -5    1    5    5    0  502  0.53466368750E+02  0.76957597696E+01 -0.69782016652E+02  0.88371359353E+02  0.47000000000E+01 0.  1.
         11    1    6    6    0    0  0.15935005835E+02 -0.11720258948E+02 -0.10590496943E+02  0.22437635933E+02  0.00000000000E+00 0. -1.
        -12    1    6    6    0    0 -0.20044706487E+02  0.18915972293E+02  0.63566725205E+02  0.69284434177E+02  0.00000000000E+00 0.  1.
<mgrwt>
<rscale>  2 0.18062979E+03</rscale>
<asrwt>0</asrwt>
<pdfrwt beam="1">  1       21 0.15094704E-01 0.18107270E+03</pdfrwt>
<pdfrwt beam="2">  1       21 0.91704456E-01 0.18107270E+03</pdfrwt>
<totfact> 0.39245230E+04</totfact>
</mgrwt>
</event>
<event>
12    1  0.1019868E-001  0.2094283E+03  0.7546771E-02  0.1142270E+00
         21   -1    0    0  501  502  0.00000000000E+00  0.00000000000E+00  0.45352300330E+03  0.45352300330E+03  0.00000000000E+00 0.  1.
         21   -1    0    0  502  503 -0.00000000000E+00 -0.00000000000E+00 -0.99729783018E+02  0.99729783018E+02  0.00000000000E+00 0. -1.
         -6    2    1    2    0  503  0.11378430371E+03  0.31393273942E+02  0.12486173620E+03  0.24382511384E+03  0.17299661139E+03 0.  0.
        -24    2    3    3    0    0 -0.82331605855E+01 -0.73932704933E+01  0.38174549918E+02  0.89133756979E+02  0.79781482751E+02 0.  0.
          6    2    1    2  501    0 -0.11378430371E+03 -0.31393273942E+02  0.22893148408E+03  0.30942767248E+03  0.17147435572E+03 0.  0.
         24    2    5    5    0    0 -0.14770974539E+02 -0.39185719314E+02  0.17204095971E+03  0.19487208195E+03  0.81383869513E+02 0.  0.
          5    1    5    5  501    0 -0.99013329173E+02  0.77924453718E+01  0.56890524370E+02  0.11455559053E+03  0.47000000000E+01 0. -1.
        -13    1    6    6    0    0  0.14420931141E+02  0.18485891842E+02  0.25124593213E+02  0.34364758639E+02  0.00000000000E+00 0.  1.
         14    1    6    6    0    0 -0.29191905679E+02 -0.57671611156E+02  0.14691636650E+03  0.16050732331E+03  0.00000000000E+00 0. -1.
         -5    1    3    3    0  503  0.12201746430E+03  0.38786544435E+02  0.86687186284E+02  0.15469135686E+03  0.47000000000E+01 0.  1.
         13    1    4    4    0    0 -0.25839599354E+02  0.28830201567E+02  0.27436273357E+02  0.47451180311E+02  0.00000000000E+00 0. -1.
        -14    1    4    4    0    0  0.17606438769E+02 -0.36223472060E+02  0.10738276562E+02  0.41682576668E+02  0.00000000000E+00 0.  1.
<mgrwt>
<rscale>  2 0.20911372E+03</rscale>
<asrwt>0</asrwt>
<pdfrwt beam="1">  1       21 0.69772769E-01 0.20942835E+03</pdfrwt>
<pdfrwt beam="2">  1       21 0.15343044E-01 0.20942835E+03</pdfrwt>
<totfact> 0.69723250E+04</totfact>
</mgrwt>
</event>
<event>
12    1  0.1019868E-001  0.2221919E+03  0.7546771E-02  0.1132730E+00
         21   -1    0    0  501  502  0.00000000000E+00  0.00000000000E+00  0.51899959219E+03  0.51899959219E+03  0.00000000000E+00 0.  1.
         21   -1    0    0  502  503 -0.00000000000E+00 -0.00000000000E+00 -0.32116026993E+03  0.32116026993E+03  0.00000000000E+00 0.  1.
         -6    2    1    2    0  503  0.32106317719E+02 -0.13764700627E+03 -0.25417705963E+03  0.33760216905E+03  0.17144017304E+03 0.  0.
        -24    2    3    3    0    0 -0.12589966736E+02 -0.61681656497E+02 -0.47027614618E+02  0.11243228923E+03  0.80413239664E+02 0.  0.
          6    2    1    2  501    0 -0.32106317719E+02  0.13764700627E+03  0.45201638189E+03  0.50255769307E+03  0.16813063789E+03 0.  0.
         24    2    5    5    0    0 -0.44989550987E+02  0.12732427959E+03  0.45742852426E+03  0.48455998015E+03  0.85568613902E+02 0.  0.
          5    1    5    5  501    0  0.12883233268E+02  0.10322726678E+02 -0.54121423678E+01  0.17997712925E+02  0.47000000000E+01 0. -1.
        -11    1    6    6    0    0  0.11557098423E+01  0.41765907137E+02  0.47491104750E+02  0.63254499402E+02  0.00000000000E+00 0.  1.
         12    1    6    6    0    0 -0.46145260830E+02  0.85558372453E+02  0.40993741951E+03  0.42130548075E+03  0.00000000000E+00 0. -1.
         -5    1    3    3    0  503  0.44696284455E+02 -0.75965349771E+02 -0.20714944501E+03  0.22516987982E+03  0.47000000000E+01 0.  1.
         13    1    4    4    0    0  0.23528461041E+02 -0.30397481501E+02  0.83016611739E+01  0.39325728713E+02  0.00000000000E+00 0. -1.
        -14    1    4    4    0    0 -0.36118427777E+02 -0.31284174996E+02 -0.55329275792E+02  0.73106560513E+02  0.00000000000E+00 0.  1.
<mgrwt>
<rscale>  2 0.22155329E+03</rscale>
<asrwt>0</asrwt>
<pdfrwt beam="1">  1       21 0.79846091E-01 0.22219191E+03</pdfrwt>
<pdfrwt beam="2">  1       21 0.49409272E-01 0.22219191E+03</pdfrwt>
<totfact> 0.52781477E+03</totfact>
</mgrwt>
</event>
<event>
12    1  0.1019868E-001  0.2259298E+03  0.7546771E-02  0.1129704E+00
         21   -1    0    0  501  502  0.00000000000E+00  0.00000000000E+00  0.70083622298E+03  0.70083622298E+03  0.00000000000E+00 0.  1.
         21   -1    0    0  502  503 -0.00000000000E+00 -0.00000000000E+00 -0.97517558600E+02  0.97517558600E+02  0.00000000000E+00 0.  1.
         -6    2    1    2    0  503 -0.78746793645E+02 -0.12059961937E+03  0.99166891446E+02  0.24589268070E+03  0.17286935055E+03 0.  0.
        -24    2    3    3    0    0 -0.63154624892E+02 -0.12179250095E+03  0.14191506661E+02  0.15936265867E+03  0.79831937113E+02 0.  0.
          6    2    1    2  501    0  0.78746793645E+02  0.12059961937E+03  0.50415177293E+03  0.55246110088E+03  0.17406588447E+03 0.  0.
         24    2    5    5    0    0  0.34171789557E+02  0.65802867738E+02  0.11912739981E+03  0.16098252819E+03  0.78906960359E+02 0.  0.
          5    1    5    5  501    0  0.44575004089E+02  0.54796751631E+02  0.38502437312E+03  0.39147857269E+03  0.47000000000E+01 0. -1.
        -11    1    6    6    0    0  0.39088466554E+02  0.15251279399E+02  0.96798224931E+02  0.10550073976E+03  0.00000000000E+00 0.  1.
         12    1    6    6    0    0 -0.49166769973E+01  0.50551588339E+02  0.22329174879E+02  0.55481788427E+02  0.00000000000E+00 0. -1.
         -5    1    3    3    0  503 -0.15592168753E+02  0.11928815809E+01  0.84975384785E+02  0.86530022028E+02  0.47000000000E+01 0.  1.
         13    1    4    4    0    0 -0.14691769045E+02  0.83927708358E+01 -0.79524073921E+01  0.18695653594E+02  0.00000000000E+00 0. -1.
        -14    1    4    4    0    0 -0.48462855847E+02 -0.13018527179E+03  0.22143914053E+02  0.14066700507E+03  0.00000000000E+00 0.  1.
<mgrwt>
<rscale>  2 0.22569927E+03</rscale>
<asrwt>0</asrwt>
<pdfrwt beam="1">  1       21 0.10782095E+00 0.22592976E+03</pdfrwt>
<pdfrwt beam="2">  1       21 0.15002702E-01 0.22592976E+03</pdfrwt>
<totfact> 0.26375227E+04</totfact>
</mgrwt>
</event>
<event>
12    1  0.1019868E-001  0.1818542E+03  0.7546771E-02  0.1166022E+00
         21   -1    0    0  501  502  0.00000000000E+00  0.00000000000E+00  0.13135972454E+03  0.13135972454E+03  0.00000000000E+00 0.  1.
         21   -1    0    0  502  503 -0.00000000000E+00 -0.00000000000E+00 -0.27281895834E+03  0.27281895834E+03  0.00000000000E+00 0.  1.
         -6    2    1    2    0  503 -0.24676820314E+02 -0.51932296332E+02 -0.12688832266E+03  0.22174171459E+03  0.17251907923E+03 0.  0.
        -24    2    3    3    0    0  0.25101967228E+02 -0.72768006452E+02 -0.37464511280E+02  0.11719142742E+03  0.80030928607E+02 0.  0.
          6    2    1    2  501    0  0.24676820314E+02  0.51932296332E+02 -0.14570911138E+02  0.18243696829E+03  0.17252543895E+03 0.  0.
         24    2    5    5    0    0 -0.18402429271E+02  0.27516100377E+02  0.51071804078E+02  0.10007782532E+03  0.79444677396E+02 0.  0.
          5    1    5    5  501    0  0.43079249586E+02  0.24416195955E+02 -0.65642715216E+02  0.82359142970E+02  0.47000000000E+01 0. -1.
        -13    1    6    6    0    0  0.82659637209E+01  0.47517017212E+02  0.13997829700E+02  0.50220835490E+02  0.00000000000E+00 0.  1.
         14    1    6    6    0    0 -0.26668392992E+02 -0.20000916835E+02  0.37073974378E+02  0.49856989833E+02  0.00000000000E+00 0. -1.
         -5    1    3    3    0  503 -0.49778787542E+02  0.20835710120E+02 -0.89423811378E+02  0.10455028717E+03  0.47000000000E+01 0.  1.
         13    1    4    4    0    0  0.23506834360E+02  0.19875355216E+01  0.13045316864E+02  0.26957408094E+02  0.00000000000E+00 0. -1.
        -14    1    4    4    0    0  0.15951328679E+01 -0.74755541973E+02 -0.50509828144E+02  0.90234019326E+02  0.00000000000E+00 0.  1.
<mgrwt>
<rscale>  2 0.18185265E+03</rscale>
<asrwt>0</asrwt>
<pdfrwt beam="1">  1       21 0.20209189E-01 0.18185416E+03</pdfrwt>
<pdfrwt beam="2">  1       21 0.41972147E-01 0.18185416E+03</pdfrwt>
<totfact> 0.12415223E+05</totfact>
</mgrwt>
</event>
<event>
12    1  0.1019868E-001  0.2415010E+03  0.7546771E-02  0.1119116E+00
         21   -1    0    0  503  502  0.00000000000E+00  0.00000000000E+00  0.39359293674E+03  0.39359293674E+03  0.00000000000E+00 0.  1.
         21   -1    0    0  501  503 -0.00000000000E+00 -0.00000000000E+00 -0.14857263521E+03  0.14857263521E+03  0.00000000000E+00 0. -1.
          6    2    1    2  501    0 -0.46382612302E+02 -0.15912472937E+03  0.14987948704E+03  0.28259961615E+03  0.17299322586E+03 0.  0.
         24    2    3    3    0    0 -0.85533107926E+02 -0.15998661622E+03  0.11194230500E+03  0.22787463157E+03  0.80524146344E+02 0.  0.
         -6    2    1    2    0  502  0.46382612302E+02  0.15912472937E+03  0.95140814488E+02  0.25956595580E+03  0.17564362956E+03 0.  0.
        -24    2    5    5    0    0 -0.14473084901E+02  0.15327242454E+03  0.84828107735E+02  0.19738792692E+03  0.89801333642E+02 0.  0.
          5    1    3    3  501    0  0.39150495623E+02  0.86188684366E+00  0.37937182038E+02  0.54724984582E+02  0.47000000000E+01 0. -1.
        -11    1    4    4    0    0 -0.80634854120E+02 -0.16484135992E+03  0.11843175322E+03  0.21840497662E+03  0.00000000000E+00 0.  1.
         12    1    4    4    0    0 -0.48982538058E+01  0.48547437082E+01 -0.64894482150E+01  0.94696549543E+01  0.00000000000E+00 0. -1.
         -5    1    5    5    0  502  0.60855697204E+02  0.58523048364E+01  0.10312706753E+02  0.62178028874E+02  0.47000000000E+01 0.  1.
         13    1    6    6    0    0 -0.22177983586E+02  0.68442372078E+02 -0.68199821386E+01  0.72268481428E+02  0.00000000000E+00 0. -1.
        -14    1    6    6    0    0  0.77048986847E+01  0.84830052458E+02  0.91648089873E+02  0.12511944550E+03  0.00000000000E+00 0.  1.
<mgrwt>
<rscale>  2 0.24101933E+03</rscale>
<asrwt>0</asrwt>
<pdfrwt beam="1">  1       21 0.60552759E-01 0.24150095E+03</pdfrwt>
<pdfrwt beam="2">  1       21 0.22857329E-01 0.24150095E+03</pdfrwt>
<totfact> 0.44594750E+04</totfact>
</mgrwt>
</event>
<event>
12    1  0.1019868E-001  0.2673217E+03  0.7546771E-02  0.1102903E+00
         21   -1    0    0  503  502  0.00000000000E+00  0.00000000000E+00  0.15847415023E+04  0.15847415023E+04  0.00000000000E+00 0. -1.
         21   -1    0    0  501  503 -0.00000000000E+00 -0.00000000000E+00 -0.51196682092E+02  0.51196682092E+02  0.00000000000E+00 0.  1.
          6    2    1    2  501    0  0.14147474986E+02 -0.20419192665E+03  0.48289011439E+03  0.55194541246E+03  0.17194877667E+03 0.  0.
         24    2    3    3    0    0  0.40731933745E+02 -0.21738888230E+03  0.44342057895E+03  0.50233868596E+03  0.82494417988E+02 0.  0.
         -6    2    1    2    0  502 -0.14147474986E+02  0.20419192665E+03  0.10506547058E+04  0.10839927719E+04  0.17108630801E+03 0.  0.
        -24    2    5    5    0    0 -0.17078915022E+02  0.22750252176E+03  0.96167054193E+03  0.99183937478E+03  0.82982090803E+02 0.  0.
          5    1    3    3  501    0 -0.26584458760E+02  0.13196955648E+02  0.39469535441E+02  0.49606726498E+02  0.47000000000E+01 0. -1.
        -11    1    4    4    0    0  0.95097944780E+01 -0.28029451804E+01  0.14257549520E+01  0.10016260274E+02  0.00000000000E+00 0.  1.
         12    1    4    4    0    0  0.31222139268E+02 -0.21458593712E+03  0.44199482400E+03  0.49232242569E+03  0.00000000000E+00 0. -1.
         -5    1    5    5    0  502  0.29314400367E+01 -0.23310595107E+02  0.88984163831E+02  0.92153397103E+02  0.47000000000E+01 0.  1.
         13    1    6    6    0    0  0.21950774495E+02  0.32653385793E+02  0.24453770391E+03  0.24768279863E+03  0.00000000000E+00 0. -1.
        -14    1    6    6    0    0 -0.39029689518E+02  0.19484913597E+03  0.71713283802E+03  0.74415657615E+03  0.00000000000E+00 0.  1.
<mgrwt>
<rscale>  2 0.26718308E+03</rscale>
<asrwt>0</asrwt>
<pdfrwt beam="1">  1       21 0.24380635E+00 0.26732167E+03</pdfrwt>
<pdfrwt beam="2">  1       21 0.78764138E-02 0.26732167E+03</pdfrwt>
<totfact> 0.83850488E+03</totfact>
</mgrwt>
</event>
<event>
12    1  0.1019868E-001  0.1934279E+03  0.7546771E-02  0.1155708E+00
         21   -1    0    0  501  502  0.00000000000E+00  0.00000000000E+00  0.13596213351E+03  0.13596213351E+03  0.00000000000E+00 0.  1.
         21   -1    0    0  502  503 -0.00000000000E+00 -0.00000000000E+00 -0.33663176617E+03  0.33663176617E+03  0.00000000000E+00 0.  1.
         -6    2    1    2    0  503 -0.82465118799E+02 -0.22429467576E+02  0.24960544795E+01  0.19207537662E+03  0.17199750923E+03 0.  0.
        -24    2    3    3    0    0 -0.25869826081E+02 -0.51202965761E+02  0.44029133841E+02  0.11606203544E+03  0.90779071600E+02 0.  0.
          6    2    1    2  501    0  0.82465118799E+02  0.22429467576E+02 -0.20316568714E+03  0.28051852306E+03  0.17352454729E+03 0.  0.
         24    2    5    5    0    0  0.97089301610E+02 -0.23523162071E+02 -0.19201857756E+03  0.23080073000E+03  0.80113489511E+02 0.  0.
          5    1    5    5  501    0 -0.14624182811E+02  0.45952629647E+02 -0.11147109586E+02  0.49717793057E+02  0.47000000000E+01 0. -1.
        -11    1    6    6    0    0  0.19644971732E+02 -0.34045709755E+02 -0.11307968168E+03  0.11971653886E+03  0.00000000000E+00 0.  1.
         12    1    6    6    0    0  0.77444329878E+02  0.10522547684E+02 -0.78938895876E+02  0.11108419114E+03  0.00000000000E+00 0. -1.
         -5    1    3    3    0  503 -0.56595292718E+02  0.28773498185E+02 -0.41533079361E+02  0.76013341177E+02  0.47000000000E+01 0.  1.
         13    1    4    4    0    0 -0.42328731767E+02 -0.74140831565E+01 -0.10479050066E+02  0.44232348484E+02  0.00000000000E+00 0. -1.
        -14    1    4    4    0    0  0.16458905686E+02 -0.43788882604E+02  0.54508183907E+02  0.71829686961E+02  0.00000000000E+00 0.  1.
<mgrwt>
<rscale>  2 0.19308479E+03</rscale>
<asrwt>0</asrwt>
<pdfrwt beam="1">  1       21 0.20917251E-01 0.19342788E+03</pdfrwt>
<pdfrwt beam="2">  1       21 0.51789502E-01 0.19342788E+03</pdfrwt>
<totfact> 0.75122615E+04</totfact>
</mgrwt>
</event>
<event>
12    1  0.1019868E-001  0.2058425E+03  0.7546771E-02  0.1145078E+00
         21   -1    0    0  501  502  0.00000000000E+00  0.00000000000E+00  0.17613595002E+03  0.17613595002E+03  0.00000000000E+00 0.  1.
         21   -1    0    0  502  503 -0.00000000000E+00 -0.00000000000E+00 -0.25718372089E+03  0.25718372089E+03  0.00000000000E+00 0.  1.
         -6    2    1    2    0  503 -0.97520361991E+02 -0.56575801746E+02  0.16291096147E+02  0.20562252001E+03  0.17118463300E+03 0.  0.
        -24    2    3    3    0    0 -0.22608375764E+02 -0.59486809590E+02 -0.37117895079E+02  0.11345479252E+03  0.86281125637E+02 0.  0.
          6    2    1    2  501    0  0.97520361991E+02  0.56575801746E+02 -0.97338867014E+02  0.22769715089E+03  0.17222106476E+03 0.  0.
         24    2    5    5    0    0  0.43365010573E+02  0.39730752300E+01  0.12994563511E+02  0.93923443403E+02  0.82197597720E+02 0.  0.
          5    1    5    5  501    0  0.54155351418E+02  0.52602726516E+02 -0.11033343053E+03  0.13377370749E+03  0.47000000000E+01 0. -1.
        -13    1    6    6    0    0  0.46362196302E+02 -0.30836152841E+02  0.18244086695E+02  0.58593244212E+02  0.00000000000E+00 0.  1.
         14    1    6    6    0    0 -0.29971857286E+01  0.34809228071E+02 -0.52495231832E+01  0.35330199191E+02  0.00000000000E+00 0. -1.
         -5    1    3    3    0  503 -0.74911986227E+02  0.29110078437E+01  0.53408991226E+02  0.92167727491E+02  0.47000000000E+01 0.  1.
         11    1    4    4    0    0  0.26633654061E+02 -0.67939881713E+01  0.76982977009E+01  0.28544239198E+02  0.00000000000E+00 0. -1.
        -12    1    4    4    0    0 -0.49242029825E+02 -0.52692821419E+02 -0.44816192780E+02  0.84910553323E+02  0.00000000000E+00 0.  1.
<mgrwt>
<rscale>  2 0.20562557E+03</rscale>
<asrwt>0</asrwt>
<pdfrwt beam="1">  1       21 0.27097839E-01 0.20584251E+03</pdfrwt>
<pdfrwt beam="2">  1       21 0.39566726E-01 0.20584251E+03</pdfrwt>
<totfact> 0.79463415E+04</totfact>
</mgrwt>
</event>
<event>
12    1  0.1019868E-001  0.2200829E+03  0.7546771E-02  0.1136568E+00
         21   -1    0    0  501  502  0.00000000000E+00  0.00000000000E+00  0.75625228065E+02  0.75625228065E+02  0.00000000000E+00 0.  1.
         21   -1    0    0  502  503 -0.00000000000E+00 -0.00000000000E+00 -0.11224150603E+04  0.11224150603E+04  0.00000000000E+00 0. -1.
         -6    2    1    2    0  503 -0.11487315272E+03  0.24436864027E+02 -0.94137998678E+03  0.96676406861E+03  0.18612759953E+03 0.  0.
        -24    2    3    3    0    0 -0.57564537903E+02 -0.31823396289E+02 -0.77542052730E+03  0.78233487782E+03  0.80277408569E+02 0.  0.
          6    2    1    2  501    0  0.11487315272E+03 -0.24436864027E+02 -0.10540984549E+03  0.23127621979E+03  0.16906937267E+03 0.  0.
         24    2    5    5    0    0  0.12901299177E+02  0.71848041070E+01 -0.95069365359E+02  0.12391140088E+03  0.78088322487E+02 0.  0.
          5    1    5    5  501    0  0.10197185354E+03 -0.31621668134E+02 -0.10340480135E+02  0.10736481891E+03  0.47000000000E+01 0. -1.
        -13    1    6    6    0    0  0.30376231370E+02 -0.25338155707E+02 -0.32212668124E+02  0.51013660470E+02  0.00000000000E+00 0.  1.
         14    1    6    6    0    0 -0.17474932192E+02  0.32522959814E+02 -0.62856697235E+02  0.72897740414E+02  0.00000000000E+00 0. -1.
         -5    1    3    3    0  503 -0.57308614815E+02  0.56260260315E+02 -0.16595945948E+03  0.18442919078E+03  0.47000000000E+01 0.  1.
         13    1    4    4    0    0 -0.22385569048E+01  0.17948450905E+02 -0.34906190255E+03  0.34953021306E+03  0.00000000000E+00 0. -1.
        -14    1    4    4    0    0 -0.55325980999E+02 -0.49771847194E+02 -0.42635862475E+03  0.43280466476E+03  0.00000000000E+00 0.  1.
<mgrwt>
<rscale>  2 0.21643704E+03</rscale>
<asrwt>0</asrwt>
<pdfrwt beam="1">  1       21 0.11634651E-01 0.22008290E+03</pdfrwt>
<pdfrwt beam="2">  1       21 0.17267923E+00 0.22008290E+03</pdfrwt>
<totfact> 0.12419815E+04</totfact>
</mgrwt>
</event>
<event>
12    1  0.1019868E-001  0.1971195E+03  0.7546771E-02  0.1153064E+00
         21   -1    0    0  501  502  0.00000000000E+00  0.00000000000E+00  0.39682813019E+03  0.39682813019E+03  0.00000000000E+00 0. -1.
         21   -1    0    0  502  503 -0.00000000000E+00 -0.00000000000E+00 -0.27226201318E+03  0.27226201318E+03  0.00000000000E+00 0.  1.
         -6    2    1    2    0  503 -0.14347432078E+02 -0.92928509385E+02 -0.20671499362E+03  0.28563472603E+03  0.17324708212E+03 0.  0.
        -24    2    3    3    0    0 -0.73421874228E+02 -0.43873883019E+02 -0.15267877681E+03  0.19162329689E+03  0.78057605615E+02 0.  0.
          6    2    1    2  501    0  0.14347432078E+02  0.92928509385E+02  0.33128111063E+03  0.38345541734E+03  0.16866928042E+03 0.  0.
         24    2    5    5    0    0 -0.48767530633E+02  0.22385559693E+02  0.13788534590E+03  0.16808638965E+03  0.79757635655E+02 0.  0.
          5    1    5    5  501    0  0.63114962712E+02  0.70542949692E+02  0.19339576473E+03  0.21536902769E+03  0.47000000000E+01 0. -1.
        -11    1    6    6    0    0 -0.53571361171E+00  0.34227434289E+02  0.18787692221E+02  0.39048452288E+02  0.00000000000E+00 0.  1.
         12    1    6    6    0    0 -0.48231817021E+02 -0.11841874597E+02  0.11909765368E+03  0.12903793736E+03  0.00000000000E+00 0. -1.
         -5    1    3    3    0  503  0.59074442149E+02 -0.49054626366E+02 -0.54036216811E+02  0.94011429148E+02  0.47000000000E+01 0.  1.
         11    1    4    4    0    0 -0.24832249523E+02 -0.19646167383E+02 -0.23051651226E+01  0.31747854974E+02  0.00000000000E+00 0. -1.
        -12    1    4    4    0    0 -0.48589624705E+02 -0.24227715636E+02 -0.15037361169E+03  0.15987544191E+03  0.00000000000E+00 0.  1.
<mgrwt>
<rscale>  2 0.19610902E+03</rscale>
<asrwt>0</asrwt>
<pdfrwt beam="1">  1       21 0.61050482E-01 0.19711953E+03</pdfrwt>
<pdfrwt beam="2">  1       21 0.41886464E-01 0.19711953E+03</pdfrwt>
<totfact> 0.13655823E+04</totfact>
</mgrwt>
</event>
<event>
12    1  0.1019868E-001  0.2016764E+03  0.7546771E-02  0.1148598E+00
         21   -1    0    0  501  502  0.00000000000E+00  0.00000000000E+00  0.78107101285E+03  0.78107101285E+03  0.00000000000E+00 0. -1.
         21   -1    0    0  502  503 -0.00000000000E+00 -0.00000000000E+00 -0.54644679577E+02  0.54644679577E+02  0.00000000000E+00 0. -1.
         -6    2    1    2    0  503 -0.99217074677E+02 -0.20716902216E+02  0.26589568566E+03  0.33296144900E+03  0.17288606919E+03 0.  0.
        -24    2    3    3    0    0 -0.99314423728E+02 -0.62373553477E+02  0.25042347450E+03  0.28827626813E+03  0.81470701792E+02 0.  0.
          6    2    1    2  501    0  0.99217074677E+02  0.20716902216E+02  0.46053064761E+03  0.50275424343E+03  0.17435634188E+03 0.  0.
         24    2    5    5    0    0  0.85076318007E+02 -0.18286095241E+02  0.16082648790E+03  0.20015571707E+03  0.81392817246E+02 0.  0.
          5    1    5    5  501    0  0.14140756670E+02  0.39002997457E+02  0.29970415971E+03  0.30259852636E+03  0.47000000000E+01 0. -1.
        -13    1    6    6    0    0  0.15672132950E+02  0.16773304827E+02  0.16648888917E+01  0.23015893662E+02  0.00000000000E+00 0.  1.
         14    1    6    6    0    0  0.69404185057E+02 -0.35059400069E+02  0.15916159901E+03  0.17713982341E+03  0.00000000000E+00 0. -1.
         -5    1    3    3    0  503  0.97349051591E-01  0.41656651261E+02  0.15472211161E+02  0.44685180869E+02  0.47000000000E+01 0.  1.
         11    1    4    4    0    0 -0.72473652494E+02 -0.44469063355E+01  0.90148720458E+02  0.11575403700E+03  0.00000000000E+00 0. -1.
        -12    1    4    4    0    0 -0.26840771235E+02 -0.57926647141E+02  0.16027475404E+03  0.17252223113E+03  0.00000000000E+00 0.  1.
<mgrwt>
<rscale>  2 0.20135817E+03</rscale>
<asrwt>0</asrwt>
<pdfrwt beam="1">  1       21 0.12016476E+00 0.20167635E+03</pdfrwt>
<pdfrwt beam="2">  1       21 0.84068743E-02 0.20167635E+03</pdfrwt>
<totfact> 0.57656031E+04</totfact>
</mgrwt>
</event>
<event>
12    1  0.1019868E-001  0.1815205E+03  0.7546771E-02  0.1166816E+00
         21   -1    0    0  501  502  0.00000000000E+00  0.00000000000E+00  0.33825560739E+03  0.33825560739E+03  0.00000000000E+00 0.  1.
         21   -1    0    0  502  503 -0.00000000000E+00 -0.00000000000E+00 -0.14312875401E+03  0.14312875401E+03  0.00000000000E+00 0.  1.
         -6    2    1    2    0  503  0.43645267694E+02  0.22284408587E+02 -0.39673368233E+02  0.18580541984E+03  0.17478035827E+03 0.  0.
        -24    2    3    3    0    0  0.44846471120E+02 -0.11115800908E+02  0.37548798289E+02  0.10152986059E+03  0.82241311623E+02 0.  0.
          6    2    1    2  501    0 -0.43645267694E+02 -0.22284408587E+02  0.23480022162E+03  0.29557894156E+03  0.17272597478E+03 0.  0.
         24    2    5    5    0    0 -0.70676440536E+02  0.24308869760E+02  0.20638427355E+03  0.23449560507E+03  0.82508423989E+02 0.  0.
          5    1    5    5  501    0  0.27031172843E+02 -0.46593278347E+02  0.28415948060E+02  0.61083336488E+02  0.47000000000E+01 0. -1.
        -11    1    6    6    0    0 -0.29716641555E+02 -0.22076220827E+02  0.13518970826E+03  0.14016667054E+03  0.00000000000E+00 0.  1.
         12    1    6    6    0    0 -0.40959798981E+02  0.46385090586E+02  0.71194565298E+02  0.94328934528E+02  0.00000000000E+00 0. -1.
         -5    1    3    3    0  503 -0.12012034267E+01  0.33400209495E+02 -0.77222166522E+02  0.84275559247E+02  0.47000000000E+01 0.  1.
         11    1    4    4    0    0  0.64181724241E+01 -0.64009164456E+01  0.57337324113E+02  0.58049404864E+02  0.00000000000E+00 0. -1.
        -12    1    4    4    0    0  0.38428298696E+02 -0.47148844627E+01 -0.19788525824E+02  0.43480455730E+02  0.00000000000E+00 0.  1.
<mgrwt>
<rscale>  2 0.18102412E+03</rscale>
<asrwt>0</asrwt>
<pdfrwt beam="1">  1       21 0.52039324E-01 0.18152046E+03</pdfrwt>
<pdfrwt beam="2">  1       21 0.22019808E-01 0.18152046E+03</pdfrwt>
<totfact> 0.67863010E+04</totfact>
</mgrwt>
</event>
<event>
12    1  0.1019868E-001  0.1760053E+03  0.7546771E-02  0.1171897E+00
         21   -1    0    0  501  502  0.00000000000E+00  0.00000000000E+00  0.48420648197E+03  0.48420648197E+03  0.00000000000E+00 0. -1.
         21   -1    0    0  502  503 -0.00000000000E+00 -0.00000000000E+00 -0.10518909898E+03  0.10518909898E+03  0.00000000000E+00 0. -1.
         -6    2    1    2    0  503  0.42582576175E+01  0.29003546328E+02  0.42701434739E+01  0.17537459610E+03  0.17285449480E+03 0.  0.
        -24    2    3    3    0    0 -0.49499863948E+02 -0.63630767947E+01 -0.35362366590E+02  0.99654324574E+02  0.78675041520E+02 0.  0.
          6    2    1    2  501    0 -0.42582576175E+01 -0.29003546328E+02  0.37474723952E+03  0.41402098485E+03  0.17354695017E+03 0.  0.
         24    2    5    5    0    0  0.34161133050E+02  0.38939668072E+02  0.17159390434E+03  0.19633842341E+03  0.80131315596E+02 0.  0.
          5    1    5    5  501    0 -0.38419390668E+02 -0.67943214400E+02  0.20315333518E+03  0.21768256144E+03  0.47000000000E+01 0. -1.
        -11    1    6    6    0    0 -0.25957727573E+02  0.10361870412E+02  0.39090967162E+02  0.48054923711E+02  0.00000000000E+00 0.  1.
         12    1    6    6    0    0  0.60118860624E+02  0.28577797659E+02  0.13250293718E+03  0.14828349970E+03  0.00000000000E+00 0. -1.
         -5    1    3    3    0  503  0.53758121566E+02  0.35366623123E+02  0.39632510063E+02  0.75720271522E+02  0.47000000000E+01 0.  1.
         13    1    4    4    0    0 -0.50432852913E+02  0.12757207647E+02 -0.52537986100E+02  0.73935505566E+02  0.00000000000E+00 0. -1.
        -14    1    4    4    0    0  0.93298896425E+00 -0.19120284442E+02  0.17175619511E+02  0.25718819007E+02  0.00000000000E+00 0.  1.
<mgrwt>
<rscale>  2 0.17583441E+03</rscale>
<asrwt>0</asrwt>
<pdfrwt beam="1">  1       21 0.74493304E-01 0.17600535E+03</pdfrwt>
<pdfrwt beam="2">  1       21 0.16182939E-01 0.17600535E+03</pdfrwt>
<totfact> 0.55556712E+04</totfact>
</mgrwt>
</event>
<event>
12    1  0.1019868E-001  0.1781414E+03  0.7546771E-02  0.1169862E+00
         21   -1    0    0  503  502  0.00000000000E+00  0.00000000000E+00  0.46362306278E+03  0.46362306278E+03  0.00000000000E+00 0.  1.
         21   -1    0    0  501  503 -0.00000000000E+00 -0.00000000000E+00 -0.76140568230E+02  0.76140568230E+02  0.00000000000E+00 0.  1.
          6    2    1    2  501    0 -0.31634888697E+02  0.19898977485E+02  0.10632061008E+03  0.20745707267E+03  0.17417700590E+03 0.  0.
         24    2    3    3    0    0  0.31028518771E+02  0.41489965887E+02  0.11113106085E+03  0.14083797742E+03  0.69289515442E+02 0.  0.
         -6    2    1    2    0  502  0.31634888697E+02 -0.19898977485E+02  0.28116188446E+03  0.33230655833E+03  0.17314418255E+03 0.  0.
        -24    2    5    5    0    0  0.20498633340E+02 -0.88857106106E+01  0.55142128354E+02  0.10569603700E+03  0.87360449263E+02 0.  0.
          5    1    3    3  501    0 -0.62663407468E+02 -0.21590988402E+02 -0.48104507695E+01  0.66619095253E+02  0.47000000000E+01 0. -1.
        -11    1    4    4    0    0  0.28635615645E+02  0.14631994778E+01  0.73795442987E+01  0.29607382697E+02  0.00000000000E+00 0.  1.
         12    1    4    4    0    0  0.23929031259E+01  0.40026766409E+02  0.10375151656E+03  0.11123059472E+03  0.00000000000E+00 0. -1.
         -5    1    5    5    0  502  0.11136255357E+02 -0.11013266874E+02  0.22601975611E+03  0.22661052134E+03  0.47000000000E+01 0.  1.
         13    1    6    6    0    0 -0.20272532016E+02 -0.35720618078E+02  0.20994470961E+02  0.46127062784E+02  0.00000000000E+00 0. -1.
        -14    1    6    6    0    0  0.40771165356E+02  0.26834907467E+02  0.34147657393E+02  0.59568974212E+02  0.00000000000E+00 0.  1.
<mgrwt>
<rscale>  2 0.17788845E+03</rscale>
<asrwt>0</asrwt>
<pdfrwt beam="1">  1       21 0.71326623E-01 0.17814142E+03</pdfrwt>
<pdfrwt beam="2">  1       21 0.11713934E-01 0.17814142E+03</pdfrwt>
<totfact> 0.10951290E+05</totfact>
</mgrwt>
</event>
<event>
12    1  0.1019868E-001  0.3618079E+03  0.7546771E-02  0.1057924E+00
         21   -1    0    0  503  502  0.00000000000E+00  0.00000000000E+00  0.88188053341E+03  0.88188053341E+03  0.00000000000E+00 0. -1.
         21   -1    0    0  501  503 -0.00000000000E+00 -0.00000000000E+00 -0.20502107006E+03  0.20502107006E+03  0.00000000000E+00 0. -1.
          6    2    1    2  501    0  0.30148099236E+03 -0.10045304355E+03  0.52186059542E+02  0.36501392803E+03  0.17184347567E+03 0.  0.
         24    2    3    3    0    0  0.17079947546E+03 -0.11793718509E+03 -0.17127818231E+02  0.21598420711E+03  0.57220408215E+02 0.  0.
         -6    2    1    2    0  502 -0.30148099236E+03  0.10045304355E+03  0.62467340381E+03  0.72188767545E+03  0.17298367501E+03 0.  0.
        -24    2    5    5    0    0 -0.13055232271E+03  0.40909403558E+02  0.41667747201E+03  0.44612246223E+03  0.81778037177E+02 0.  0.
          5    1    3    3  501    0  0.13068151690E+03  0.17484141549E+02  0.69313877773E+02  0.14902972092E+03  0.47000000000E+01 0. -1.
        -13    1    4    4    0    0  0.11391284980E+03 -0.81939491097E+02 -0.38227060343E+02  0.14543564107E+03  0.00000000000E+00 0.  1.
         14    1    4    4    0    0  0.56886625657E+02 -0.35997693997E+02  0.21099242111E+02  0.70548566034E+02  0.00000000000E+00 0. -1.
         -5    1    5    5    0  502 -0.17092866966E+03  0.59543639988E+02  0.20799593180E+03  0.27576521321E+03  0.47000000000E+01 0.  1.
         11    1    6    6    0    0 -0.52121019901E+02  0.36863515489E+02  0.91329043325E+02  0.11142941104E+03  0.00000000000E+00 0. -1.
        -12    1    6    6    0    0 -0.78431302806E+02  0.40458880694E+01  0.32534842869E+03  0.33469305120E+03  0.00000000000E+00 0.  1.
<mgrwt>
<rscale>  2 0.36167188E+03</rscale>
<asrwt>0</asrwt>
<pdfrwt beam="1">  1       21 0.13567393E+00 0.36180790E+03</pdfrwt>
<pdfrwt beam="2">  1       21 0.31541704E-01 0.36180790E+03</pdfrwt>
<totfact> 0.33674065E+03</totfact>
</mgrwt>
</event>
<event>
12    1  0.1019868E-001  0.2463465E+03  0.7546771E-02  0.1115835E+00
         21   -1    0    0  503  502  0.00000000000E+00  0.00000000000E+00  0.37136936326E+03  0.37136936326E+03  0.00000000000E+00 0.  1.
         21   -1    0    0  501  503 -0.00000000000E+00 -0.00000000000E+00 -0.17558042762E+03  0.17558042762E+03  0.00000000000E+00 0. -1.
          6    2    1    2  501    0  0.39888539724E+02 -0.16998073103E+03  0.23749210732E+02  0.24748864894E+03  0.17378740410E+03 0.  0.
         24    2    3    3    0    0  0.54433525438E+02 -0.30677396673E+02  0.30302108365E+02  0.10719607594E+03  0.81661922385E+02 0.  0.
         -6    2    1    2    0  502 -0.39888539724E+02  0.16998073103E+03  0.17203972491E+03  0.29946114194E+03  0.17203128803E+03 0.  0.
        -24    2    5    5    0    0  0.42526455717E+02  0.11233144799E+03  0.10733466355E+03  0.17977611250E+03  0.79823974969E+02 0.  0.
          5    1    3    3  501    0 -0.14544985714E+02 -0.13930333436E+03 -0.65528976329E+01  0.14029257300E+03  0.47000000000E+01 0. -1.
        -13    1    4    4    0    0  0.56353153084E+02 -0.35420643367E+02 -0.93510286056E+01  0.67214147134E+02  0.00000000000E+00 0.  1.
         14    1    4    4    0    0 -0.19196276453E+01  0.47432466944E+01  0.39653136971E+02  0.39981928807E+02  0.00000000000E+00 0. -1.
         -5    1    5    5    0  502 -0.82414995441E+02  0.57649283036E+02  0.64705061355E+02  0.11968502944E+03  0.47000000000E+01 0.  1.
         11    1    6    6    0    0  0.21729135754E+02  0.11243388306E+03  0.62751396472E+02  0.13058051600E+03  0.00000000000E+00 0. -1.
        -12    1    6    6    0    0  0.20797319963E+02 -0.10243506660E+00  0.44583267082E+02  0.49195596493E+02  0.00000000000E+00 0.  1.
<mgrwt>
<rscale>  2 0.24603701E+03</rscale>
<asrwt>0</asrwt>
<pdfrwt beam="1">  1       21 0.57133748E-01 0.24634652E+03</pdfrwt>
<pdfrwt beam="2">  1       21 0.27012374E-01 0.24634652E+03</pdfrwt>
<totfact> 0.36606001E+04</totfact>
</mgrwt>
</event>
<event>
12    1  0.1019868E-001  0.4187972E+03  0.7546771E-02  0.1037483E+00
         21   -1    0    0  503  502  0.00000000000E+00  0.00000000000E+00  0.60428678679E+03  0.60428678679E+03  0.00000000000E+00 0. -1.
         21   -1    0    0  501  503 -0.00000000000E+00 -0.00000000000E+00 -0.30453939065E+03  0.30453939065E+03  0.00000000000E+00 0. -1.
          6    2    1    2  501    0 -0.38116142187E+03  0.88537299762E+01  0.24909050972E+03  0.48727525605E+03  0.17328783878E+03 0.  0.
         24    2    3    3    0    0 -0.15546975320E+03  0.56555585717E+02  0.88544581983E+02  0.20618935946E+03  0.85466546208E+02 0.  0.
         -6    2    1    2    0  502  0.38116142187E+03 -0.88537299762E+01  0.50656886429E+02  0.42155092139E+03  0.17255909457E+03 0.  0.
        -24    2    5    5    0    0  0.19899415794E+03 -0.49316152926E+02 -0.20354659544E+02  0.22183399827E+03  0.82251156753E+02 0.  0.
          5    1    3    3  501    0 -0.22569166867E+03 -0.47701855741E+02  0.16054592774E+03  0.28108589659E+03  0.47000000000E+01 0. -1.
        -11    1    4    4    0    0 -0.22279243328E+02  0.20853688636E+02 -0.14754435149E+02  0.33895934411E+02  0.00000000000E+00 0.  1.
         12    1    4    4    0    0 -0.13319050988E+03  0.35701897081E+02  0.10329901713E+03  0.17229342505E+03  0.00000000000E+00 0. -1.
         -5    1    5    5    0  502  0.18216726393E+03  0.40462422950E+02  0.71011545974E+02  0.19971692312E+03  0.47000000000E+01 0.  1.
         11    1    6    6    0    0  0.62466097011E+02 -0.44241561285E+02  0.20481986313E+02  0.79239136694E+02  0.00000000000E+00 0. -1.
        -12    1    6    6    0    0  0.13652806093E+03 -0.50745916415E+01 -0.40836645858E+02  0.14259486157E+03  0.00000000000E+00 0.  1.
<mgrwt>
<rscale>  2 0.41872193E+03</rscale>
<asrwt>0</asrwt>
<pdfrwt beam="1">  1       21 0.92967198E-01 0.41879720E+03</pdfrwt>
<pdfrwt beam="2">  1       21 0.46852214E-01 0.41879720E+03</pdfrwt>
<totfact> 0.37540496E+03</totfact>
</mgrwt>
</event>
<event>
12    1  0.1019868E-001  0.4327447E+03  0.7546771E-02  0.1033003E+00
         21   -1    0    0  503  502  0.00000000000E+00  0.00000000000E+00  0.97378330712E+03  0.97378330712E+03  0.00000000000E+00 0.  1.
         21   -1    0    0  501  503 -0.00000000000E+00 -0.00000000000E+00 -0.49524193193E+03  0.49524193193E+03  0.00000000000E+00 0. -1.
          6    2    1    2  501    0 -0.42494379134E+02  0.39443520530E+03 -0.33523697934E+03  0.54734025987E+03  0.17266332650E+03 0.  0.
         24    2    3    3    0    0  0.33115289155E+02  0.27822245850E+03 -0.19902557477E+03  0.35292353941E+03  0.80246410956E+02 0.  0.
         -6    2    1    2    0  502  0.42494379134E+02 -0.39443520530E+03  0.81377835453E+03  0.92168497918E+03  0.17286725279E+03 0.  0.
        -24    2    5    5    0    0  0.27575004019E+02 -0.32635865925E+03  0.76604070376E+03  0.83708014965E+03  0.81329341679E+02 0.  0.
          5    1    3    3  501    0 -0.75609668288E+02  0.11621274681E+03 -0.13621140457E+03  0.19441672046E+03  0.47000000000E+01 0. -1.
        -13    1    4    4    0    0  0.10748192818E+02  0.64720927454E+02 -0.89834620928E+01  0.66219518954E+02  0.00000000000E+00 0.  1.
         14    1    4    4    0    0  0.22367096337E+02  0.21350153104E+03 -0.19004211268E+03  0.28670402046E+03  0.00000000000E+00 0. -1.
         -5    1    5    5    0  502  0.14919375115E+02 -0.68076546056E+02  0.47737650777E+02  0.84604829522E+02  0.47000000000E+01 0.  1.
         13    1    6    6    0    0  0.18127422076E+02 -0.10149125211E+02  0.56984213023E+02  0.60653183820E+02  0.00000000000E+00 0. -1.
        -14    1    6    6    0    0  0.94475819433E+01 -0.31620953404E+03  0.70905649073E+03  0.77642696583E+03  0.00000000000E+00 0.  1.
<mgrwt>
<rscale>  2 0.43272436E+03</rscale>
<asrwt>0</asrwt>
<pdfrwt beam="1">  1       21 0.14981282E+00 0.43274472E+03</pdfrwt>
<pdfrwt beam="2">  1       21 0.76191067E-01 0.43274472E+03</pdfrwt>
<totfact> 0.38443018E+02</totfact>
</mgrwt>
</event>
<event>
12    1  0.1019868E-001  0.1991948E+03  0.7546771E-02  0.1151282E+00
         21   -1    0    0  503  502  0.00000000000E+00  0.00000000000E+00  0.10408910165E+04  0.10408910165E+04  0.00000000000E+00 0.  1.
         21   -1    0    0  501  503 -0.00000000000E+00 -0.00000000000E+00 -0.51968963604E+02  0.51968963604E+02  0.00000000000E+00 0.  1.
          6    2    1    2  501    0 -0.11015781257E+02  0.98313930437E+02  0.20832255292E+03  0.28823053106E+03  0.17289180613E+03 0.  0.
         24    2    3    3    0    0 -0.25050052650E+02  0.37906108056E+02  0.20624978966E+03  0.22600150146E+03  0.80456974582E+02 0.  0.
         -6    2    1    2    0  502  0.11015781257E+02 -0.98313930437E+02  0.78059949992E+03  0.80462944899E+03  0.16824385442E+03 0.  0.
        -24    2    5    5    0    0 -0.56715228457E+02 -0.74063350619E+02  0.49703227748E+03  0.51204093257E+03  0.80267270569E+02 0.  0.
          5    1    3    3  501    0  0.14034271393E+02  0.60407822381E+02  0.20727632610E+01  0.62229029607E+02  0.47000000000E+01 0. -1.
        -13    1    4    4    0    0 -0.36225460445E+02  0.52598502933E+02  0.10359106083E+03  0.12169632032E+03  0.00000000000E+00 0.  1.
         14    1    4    4    0    0  0.11175407795E+02 -0.14692394877E+02  0.10265872883E+03  0.10430518114E+03  0.00000000000E+00 0. -1.
         -5    1    5    5    0  502  0.67731009715E+02 -0.24250579818E+02  0.28356722244E+03  0.29258851642E+03  0.47000000000E+01 0.  1.
         13    1    6    6    0    0 -0.19639081730E+02  0.15989617809E+02  0.11910819012E+03  0.12177077795E+03  0.00000000000E+00 0. -1.
        -14    1    6    6    0    0 -0.37076146728E+02 -0.90052968428E+02  0.37792408736E+03  0.39027015462E+03  0.00000000000E+00 0.  1.
<mgrwt>
<rscale>  2 0.19818192E+03</rscale>
<asrwt>0</asrwt>
<pdfrwt beam="1">  1       21 0.16013706E+00 0.19919476E+03</pdfrwt>
<pdfrwt beam="2">  1       21 0.79952259E-02 0.19919476E+03</pdfrwt>
<totfact> 0.30038827E+04</totfact>
</mgrwt>
</event>
<event>
12    1  0.1019868E-001  0.1799952E+03  0.7546771E-02  0.1168563E+00
         21   -1    0    0  503  502  0.00000000000E+00  0.00000000000E+00  0.10791298611E+03  0.10791298611E+03  0.00000000000E+00 0. -1.
         21   -1    0    0  501  503 -0.00000000000E+00 -0.00000000000E+00 -0.55624023189E+03  0.55624023189E+03  0.00000000000E+00 0. -1.
          6    2    1    2  501    0 -0.45949918779E+02  0.68951379364E+01 -0.45272531535E+03  0.48719448899E+03  0.17389456858E+03 0.  0.
         24    2    3    3    0    0  0.21752963677E+02  0.48920622681E+02 -0.30170042300E+03  0.31637168673E+03  0.78749477316E+02 0.  0.
         -6    2    1    2    0  502  0.45949918779E+02 -0.68951379364E+01  0.43980695669E+01  0.17695872902E+03  0.17069303090E+03 0.  0.
        -24    2    5    5    0    0  0.56353718057E+02  0.55718354540E+02  0.24348296281E+00  0.11317754786E+03  0.80801123044E+02 0.  0.
          5    1    3    3  501    0 -0.67702882456E+02 -0.42025484744E+02 -0.15102489235E+03  0.17082280225E+03  0.47000000000E+01 0. -1.
        -13    1    4    4    0    0 -0.23708909813E+02  0.38303957637E+02 -0.10590938545E+03  0.11509171778E+03  0.00000000000E+00 0.  1.
         14    1    4    4    0    0  0.45461873490E+02  0.10616665043E+02 -0.19579103755E+03  0.20127996895E+03  0.00000000000E+00 0. -1.
         -5    1    5    5    0  502 -0.10403799278E+02 -0.62613492476E+02  0.41545866041E+01  0.63781181154E+02  0.47000000000E+01 0.  1.
         13    1    6    6    0    0 -0.10157210744E+01  0.57267574856E+01  0.30676359117E+02  0.31222851396E+02  0.00000000000E+00 0. -1.
        -14    1    6    6    0    0  0.57369439132E+02  0.49991597054E+02 -0.30432876154E+02  0.81954696469E+02  0.00000000000E+00 0.  1.
<mgrwt>
<rscale>  2 0.17921736E+03</rscale>
<asrwt>0</asrwt>
<pdfrwt beam="1">  1       21 0.16601998E-01 0.17999516E+03</pdfrwt>
<pdfrwt beam="2">  1       21 0.85575421E-01 0.17999516E+03</pdfrwt>
<totfact> 0.38701661E+04</totfact>
</mgrwt>
</event>
<event>
12    1  0.1019868E-001  0.2149899E+03  0.7546771E-02  0.1137685E+00
         21   -1    0    0  503  502  0.00000000000E+00  0.00000000000E+00  0.12864665706E+03  0.12864665706E+03  0.00000000000E+00 0. -1.
         21   -1    0    0  501  503 -0.00000000000E+00 -0.00000000000E+00 -0.36269520883E+03  0.36269520883E+03  0.00000000000E+00 0. -1.
          6    2    1    2  501    0  0.75048723833E+02 -0.10310741203E+03 -0.14119557907E+03  0.25720977076E+03  0.17308155668E+03 0.  0.
         24    2    3    3    0    0  0.92987716399E+02 -0.15034421393E+02 -0.10214620463E+03  0.15909961442E+03  0.77498973925E+02 0.  0.
         -6    2    1    2    0  502 -0.75048723833E+02  0.10310741203E+03 -0.92852972694E+02  0.23413209513E+03  0.17301073397E+03 0.  0.
        -24    2    5    5    0    0  0.13102258431E+02  0.92238444266E+02 -0.25995494091E+02  0.12286330985E+03  0.75762968638E+02 0.  0.
          5    1    3    3  501    0 -0.17938992566E+02 -0.88072990635E+02 -0.39049374439E+02  0.98110156343E+02  0.47000000000E+01 0. -1.
        -13    1    4    4    0    0  0.48880698452E+02 -0.68591975409E+00 -0.10156076676E+03  0.11271371927E+03  0.00000000000E+00 0.  1.
         14    1    4    4    0    0  0.44107017947E+02 -0.14348501639E+02 -0.58543787734E+00  0.46385895151E+02  0.00000000000E+00 0. -1.
         -5    1    5    5    0  502 -0.88150982264E+02  0.10868967762E+02 -0.66857478603E+02  0.11126878529E+03  0.47000000000E+01 0.  1.
         13    1    6    6    0    0 -0.11276778103E+02  0.77148140841E+02 -0.43488940628E+02  0.89276476838E+02  0.00000000000E+00 0. -1.
        -14    1    6    6    0    0  0.24379036534E+02  0.15090303424E+02  0.17493446537E+02  0.33586833008E+02  0.00000000000E+00 0.  1.
<mgrwt>
<rscale>  2 0.21497569E+03</rscale>
<asrwt>0</asrwt>
<pdfrwt beam="1">  1       21 0.19791794E-01 0.21498994E+03</pdfrwt>
<pdfrwt beam="2">  1       21 0.55799262E-01 0.21498994E+03</pdfrwt>
<totfact> 0.70513902E+04</totfact>
</mgrwt>
</event>
<event>
12    1  0.1019868E-001  0.3374877E+03  0.7546771E-02  0.1067934E+00
         21   -1    0    0  503  502  0.00000000000E+00  0.00000000000E+00  0.38762694833E+03  0.38762694833E+03  0.00000000000E+00 0.  1.
         21   -1    0    0  501  503 -0.00000000000E+00 -0.00000000000E+00 -0.35928443410E+03  0.35928443410E+03  0.00000000000E+00 0. -1.
          6    2    1    2  501    0 -0.28243753611E+03 -0.63267876054E+02 -0.14583239445E+03  0.36764796431E+03  0.17356310797E+03 0.  0.
         24    2    3    3    0    0 -0.43645120171E+02 -0.54176244380E+01 -0.35525863600E+02  0.98281874633E+02  0.80392740515E+02 0.  0.
         -6    2    1    2    0  502  0.28243753611E+03  0.63267876054E+02  0.17417490869E+03  0.37926341811E+03  0.17242405736E+03 0.  0.
        -24    2    5    5    0    0  0.23174459076E+03  0.10235872037E+03  0.14900544492E+03  0.31031807219E+03  0.99558125379E+02 0.  0.
          5    1    3    3  501    0 -0.23879241594E+03 -0.57850251616E+02 -0.11030653085E+03  0.26936608968E+03  0.47000000000E+01 0. -1.
        -11    1    4    4    0    0 -0.38795852629E+02  0.32505844410E+02 -0.32014162760E+02  0.59888686071E+02  0.00000000000E+00 0.  1.
         12    1    4    4    0    0 -0.48492675418E+01 -0.37923468848E+02 -0.35117008396E+01  0.38393188562E+02  0.00000000000E+00 0. -1.
         -5    1    5    5    0  502  0.50692945346E+02 -0.39090844321E+02  0.25169463765E+02  0.68945345918E+02  0.47000000000E+01 0.  1.
         11    1    6    6    0    0  0.73830432456E+02  0.64446289361E+02  0.13733678033E+02  0.98958935329E+02  0.00000000000E+00 0. -1.
        -12    1    6    6    0    0  0.15791415831E+03  0.37912431014E+02  0.13527176689E+03  0.21135913686E+03  0.00000000000E+00 0.  1.
<mgrwt>
<rscale>  2 0.33734150E+03</rscale>
<asrwt>0</asrwt>
<pdfrwt beam="1">  1       21 0.59634915E-01 0.33748769E+03</pdfrwt>
<pdfrwt beam="2">  1       21 0.55274529E-01 0.33748769E+03</pdfrwt>
<totfact> 0.74800256E+03</totfact>
</mgrwt>
</event>
<event>
12    1  0.1019868E-001  0.2137144E+03  0.7546771E-02  0.1138754E+00
         21   -1    0    0  503  502  0.00000000000E+00  0.00000000000E+00  0.48192098817E+03  0.48192098817E+03  0.00000000000E+00 0. -1.
         21   -1    0    0  501  503 -0.00000000000E+00 -0.00000000000E+00 -0.96632999350E+02  0.96632999350E+02  0.00000000000E+00 0. -1.
          6    2    1    2  501    0  0.44486353886E+02 -0.11634443123E+03  0.15001002778E+03  0.26070248106E+03  0.17305407490E+03 0.  0.
         24    2    3    3    0    0  0.38841421588E+02 -0.87011793100E+02  0.17933723840E+03  0.21857832881E+03  0.80838929860E+02 0.  0.
         -6    2    1    2    0  502 -0.44486353886E+02  0.11634443123E+03  0.23527796104E+03  0.31785150645E+03  0.17366288850E+03 0.  0.
        -24    2    5    5    0    0 -0.64821064066E+02  0.42665202775E+02  0.21041954015E+03  0.23733964252E+03  0.77663589689E+02 0.  0.
          5    1    3    3  501    0  0.56449322984E+01 -0.29332638131E+02 -0.29327210618E+02  0.42124152252E+02  0.47000000000E+01 0. -1.
        -13    1    4    4    0    0  0.90014816266E+01 -0.93445735557E+02  0.12606253876E+03  0.15717791144E+03  0.00000000000E+00 0.  1.
         14    1    4    4    0    0  0.29839939961E+02  0.64339424563E+01  0.53274699632E+02  0.61400417371E+02  0.00000000000E+00 0. -1.
         -5    1    5    5    0  502  0.20334710180E+02  0.73679228456E+02  0.24858420892E+02  0.80511863928E+02  0.47000000000E+01 0.  1.
         11    1    6    6    0    0 -0.23505198393E+02 -0.11209452239E+02  0.14103430273E+02  0.29615079208E+02  0.00000000000E+00 0. -1.
        -12    1    6    6    0    0 -0.41315865673E+02  0.53874655014E+02  0.19631610987E+03  0.20772456332E+03  0.00000000000E+00 0.  1.
<mgrwt>
<rscale>  2 0.21359073E+03</rscale>
<asrwt>0</asrwt>
<pdfrwt beam="1">  1       21 0.74141689E-01 0.21371444E+03</pdfrwt>
<pdfrwt beam="2">  1       21 0.14866616E-01 0.21371444E+03</pdfrwt>
<totfact> 0.64414557E+04</totfact>
</mgrwt>
</event>
<event>
12    1  0.1019868E-001  0.2020533E+03  0.7546771E-02  0.1148125E+00
         21   -1    0    0  503  502  0.00000000000E+00  0.00000000000E+00  0.62431005874E+03  0.62431005874E+03  0.00000000000E+00 0. -1.
         21   -1    0    0  501  503 -0.00000000000E+00 -0.00000000000E+00 -0.81795486876E+02  0.81795486876E+02  0.00000000000E+00 0. -1.
          6    2    1    2  501    0  0.80456319983E+02  0.65372076467E+02  0.11263745912E+03  0.23132819976E+03  0.17343243930E+03 0.  0.
         24    2    3    3    0    0  0.27318792753E+02  0.30296599121E+02  0.13691788267E+03  0.16302362539E+03  0.78523852979E+02 0.  0.
         -6    2    1    2    0  502 -0.80456319983E+02 -0.65372076467E+02  0.42987711275E+03  0.47477734586E+03  0.17283653627E+03 0.  0.
        -24    2    5    5    0    0 -0.55124283070E+02 -0.10486586107E+03  0.38019987870E+03  0.40628363301E+03  0.80491659732E+02 0.  0.
          5    1    3    3  501    0  0.53137527230E+02  0.35075477346E+02 -0.24280423551E+02  0.68304574363E+02  0.47000000000E+01 0. -1.
        -13    1    4    4    0    0  0.54313545433E+02  0.28594631821E+02  0.97748889826E+02  0.11542295980E+03  0.00000000000E+00 0.  1.
         14    1    4    4    0    0 -0.26994752680E+02  0.17019672997E+01  0.39168992843E+02  0.47600665597E+02  0.00000000000E+00 0. -1.
         -5    1    5    5    0  502 -0.25332036913E+02  0.39493784608E+02  0.49677234043E+02  0.68493712843E+02  0.47000000000E+01 0.  1.
         13    1    6    6    0    0  0.72601328776E+01 -0.46791561670E+02  0.21767646128E+03  0.22276714652E+03  0.00000000000E+00 0. -1.
        -14    1    6    6    0    0 -0.62384415948E+02 -0.58074299405E+02  0.16252341742E+03  0.18351648649E+03  0.00000000000E+00 0.  1.
<mgrwt>
<rscale>  2 0.20192537E+03</rscale>
<asrwt>0</asrwt>
<pdfrwt beam="1">  1       21 0.96047698E-01 0.20205331E+03</pdfrwt>
<pdfrwt beam="2">  1       21 0.12583921E-01 0.20205331E+03</pdfrwt>
<totfact> 0.48420911E+04</totfact>
</mgrwt>
</event>
<event>
12    1  0.1019868E-001  0.1880312E+03  0.7546771E-02  0.1161192E+00
         21   -1    0    0  503  502  0.00000000000E+00  0.00000000000E+00  0.37705728874E+03  0.37705728874E+03  0.00000000000E+00 0.  1.
         21   -1    0    0  501  503 -0.00000000000E+00 -0.00000000000E+00 -0.97963321748E+02  0.97963321748E+02  0.00000000000E+00 0.  1.
          6    2    1    2  501    0  0.23462134732E+02  0.55661594212E+02  0.19795077997E+03  0.27022814583E+03  0.17375285514E+03 0.  0.
         24    2    3    3    0    0 -0.35603162517E+02  0.23790024590E+02  0.39167483933E+02  0.97778931884E+02  0.78696107093E+02 0.  0.
         -6    2    1    2    0  502 -0.23462134732E+02 -0.55661594212E+02  0.81143187014E+02  0.20479246465E+03  0.17806474088E+03 0.  0.
        -24    2    5    5    0    0 -0.62661802984E+02 -0.90406930679E+02  0.52974799140E+02  0.14513175335E+03  0.78466437535E+02 0.  0.
          5    1    3    3  501    0  0.59065297249E+02  0.31871569622E+02  0.15878329604E+03  0.17244921395E+03  0.47000000000E+01 0. -1.
        -11    1    4    4    0    0 -0.15698673893E+01 -0.26547685570E+02  0.22331290843E+02  0.34726512112E+02  0.00000000000E+00 0.  1.
         12    1    4    4    0    0 -0.34033295128E+02  0.50337710160E+02  0.16836193090E+02  0.63052419772E+02  0.00000000000E+00 0. -1.
         -5    1    5    5    0  502  0.39199668252E+02  0.34745336467E+02  0.28168387873E+02  0.59660711299E+02  0.47000000000E+01 0.  1.
         11    1    6    6    0    0 -0.14572125910E+02 -0.58098752785E+02 -0.86848961392E+01  0.60524700327E+02  0.00000000000E+00 0. -1.
        -12    1    6    6    0    0 -0.48089677074E+02 -0.32308177894E+02  0.61659695280E+02  0.84607053027E+02  0.00000000000E+00 0.  1.
<mgrwt>
<rscale>  2 0.18700328E+03</rscale>
<asrwt>0</asrwt>
<pdfrwt beam="1">  1       21 0.58008813E-01 0.18803121E+03</pdfrwt>
<pdfrwt beam="2">  1       21 0.15071280E-01 0.18803121E+03</pdfrwt>
<totfact> 0.10851332E+05</totfact>
</mgrwt>
</event>
<event>
12    1  0.1019868E-001  0.2420277E+03  0.7546771E-02  0.1118899E+00
         21   -1    0    0  501  502  0.00000000000E+00  0.00000000000E+00  0.31518043100E+03  0.31518043100E+03  0.00000000000E+00 0. -1.
         21   -1    0    0  502  503 -0.00000000000E+00 -0.00000000000E+00 -0.25687428987E+03  0.25687428987E+03  0.00000000000E+00 0.  1.
         -6    2    1    2    0  503 -0.12273465623E+03  0.11127684349E+03 -0.12330984963E+03  0.27162973770E+03  0.17643997181E+03 0.  0.
        -24    2    3    3    0    0 -0.69444079324E+02 -0.47961874795E+01 -0.89999968368E+02  0.13955221390E+03  0.80804347223E+02 0.  0.
          6    2    1    2  501    0  0.12273465623E+03 -0.11127684349E+03  0.18161599076E+03  0.30042498316E+03  0.17269762787E+03 0.  0.
         24    2    5    5    0    0  0.13221149023E+03 -0.13542382225E+03  0.13366226354E+03  0.24570262100E+03  0.81759938167E+02 0.  0.
          5    1    5    5  501    0 -0.94768339942E+01  0.24146978766E+02  0.47953727229E+02  0.54722362168E+02  0.47000000000E+01 0. -1.
        -11    1    6    6    0    0  0.26920276845E+02 -0.50985596053E+02  0.28208021575E+01  0.57725117888E+02  0.00000000000E+00 0.  1.
         12    1    6    6    0    0  0.10529121338E+03 -0.84438226198E+02  0.13084146138E+03  0.18797750311E+03  0.00000000000E+00 0. -1.
         -5    1    3    3    0  503 -0.53290576910E+02  0.11607303097E+03 -0.33309881266E+02  0.13207752381E+03  0.47000000000E+01 0.  1.
         11    1    4    4    0    0 -0.52512796291E+02 -0.62840567967E+01 -0.10455830457E+03  0.11717304382E+03  0.00000000000E+00 0. -1.
        -12    1    4    4    0    0 -0.16931283033E+02  0.14878693171E+01  0.14558336202E+02  0.22379170075E+02  0.00000000000E+00 0.  1.
<mgrwt>
<rscale>  2 0.24134618E+03</rscale>
<asrwt>0</asrwt>
<pdfrwt beam="1">  1       21 0.48489297E-01 0.24202767E+03</pdfrwt>
<pdfrwt beam="2">  1       21 0.39519121E-01 0.24202767E+03</pdfrwt>
<totfact> 0.24419784E+04</totfact>
</mgrwt>
</event>
<event>
12    1  0.1019868E-001  0.1876566E+03  0.7546771E-02  0.1161136E+00
         21   -1    0    0  501  502  0.00000000000E+00  0.00000000000E+00  0.90667458544E+03  0.90667458544E+03  0.00000000000E+00 0. -1.
         21   -1    0    0  502  503 -0.00000000000E+00 -0.00000000000E+00 -0.40849002670E+02  0.40849002670E+02  0.00000000000E+00 0. -1.
         -6    2    1    2    0  503  0.67230612340E+02  0.20480439530E+02  0.54743777493E+03  0.57794843983E+03  0.17145517793E+03 0.  0.
        -24    2    3    3    0    0 -0.35105744511E+01 -0.40433892022E+02  0.23995933616E+03  0.25657645660E+03  0.81263591555E+02 0.  0.
          6    2    1    2  501    0 -0.67230612340E+02 -0.20480439530E+02  0.31838780784E+03  0.36957514828E+03  0.17399882301E+03 0.  0.
         24    2    5    5    0    0 -0.45112377068E+02  0.42097871325E+02  0.26510404842E+03  0.28433131954E+03  0.82199668170E+02 0.  0.
          5    1    5    5  501    0 -0.22118235272E+02 -0.62578310855E+02  0.53283759420E+02  0.85243828744E+02  0.47000000000E+01 0. -1.
        -11    1    6    6    0    0 -0.23758704908E+02 -0.17766113935E+02  0.14942450997E+03  0.15234104845E+03  0.00000000000E+00 0.  1.
         12    1    6    6    0    0 -0.21353672160E+02  0.59863985260E+02  0.11567953845E+03  0.13199027108E+03  0.00000000000E+00 0. -1.
         -5    1    3    3    0  503  0.70741186791E+02  0.60914331552E+02  0.30747843877E+03  0.32137198323E+03  0.47000000000E+01 0.  1.
         13    1    4    4    0    0  0.13240625343E+02 -0.58734823914E+02  0.20534009192E+03  0.21398515614E+03  0.00000000000E+00 0. -1.
        -14    1    4    4    0    0 -0.16751199794E+02  0.18300931892E+02  0.34619244244E+02  0.42591300457E+02  0.00000000000E+00 0.  1.
<mgrwt>
<rscale>  2 0.18706477E+03</rscale>
<asrwt>0</asrwt>
<pdfrwt beam="1">  1       21 0.13948838E+00 0.18765659E+03</pdfrwt>
<pdfrwt beam="2">  1       21 0.62844626E-02 0.18765659E+03</pdfrwt>
<totfact> 0.65957318E+04</totfact>
</mgrwt>
</event>
<event>
12    1  0.1019868E-001  0.2728413E+03  0.7546771E-02  0.1100175E+00
         21   -1    0    0  501  502  0.00000000000E+00  0.00000000000E+00  0.93882651517E+02  0.93882651517E+02  0.00000000000E+00 0.  1.
         21   -1    0    0  502  503 -0.00000000000E+00 -0.00000000000E+00 -0.23643380057E+04  0.23643380057E+04  0.00000000000E+00 0.  1.
         -6    2    1    2    0  503 -0.16941757113E+03 -0.12363740030E+03 -0.21380723971E+04  0.21549590053E+04  0.16883784806E+03 0.  0.
        -24    2    3    3    0    0 -0.13636414664E+03 -0.15604746963E+03 -0.17073313607E+04  0.17217121104E+04  0.79788612001E+02 0.  0.
          6    2    1    2  501    0  0.16941757113E+03  0.12363740030E+03 -0.13238295709E+03  0.30326165197E+03  0.17451034945E+03 0.  0.
         24    2    5    5    0    0  0.18816654399E+03  0.13791948121E+03 -0.12945564906E+03  0.27905089092E+03  0.81744743398E+02 0.  0.
          5    1    5    5  501    0 -0.18748972857E+02 -0.14282080911E+02 -0.29273080300E+01  0.24210761051E+02  0.47000000000E+01 0. -1.
        -13    1    6    6    0    0  0.12891472334E+03  0.46844381008E+02 -0.86831472381E+02  0.16233639925E+03  0.00000000000E+00 0.  1.
         14    1    6    6    0    0  0.59251820652E+02  0.91075100206E+02 -0.42624176683E+02  0.11671449167E+03  0.00000000000E+00 0. -1.
         -5    1    3    3    0  503 -0.33053424493E+02  0.32410069323E+02 -0.43074103636E+03  0.43324689482E+03  0.47000000000E+01 0.  1.
         13    1    4    4    0    0 -0.75505364405E+02 -0.13623605753E+03 -0.10901954992E+04  0.11012663392E+04  0.00000000000E+00 0. -1.
        -14    1    4    4    0    0 -0.60858782236E+02 -0.19811412091E+02 -0.61713586160E+03  0.62044577127E+03  0.00000000000E+00 0.  1.
<mgrwt>
<rscale>  2 0.27193863E+03</rscale>
<asrwt>0</asrwt>
<pdfrwt beam="1">  1       21 0.14443485E-01 0.27284131E+03</pdfrwt>
<pdfrwt beam="2">  1       21 0.36374431E+00 0.27284131E+03</pdfrwt>
<totfact> 0.54872158E+02</totfact>
</mgrwt>
</event>
<event>
12    1  0.1019868E-001  0.2320402E+03  0.7546771E-02  0.1125346E+00
         21   -1    0    0  501  502  0.00000000000E+00  0.00000000000E+00  0.19285864461E+03  0.19285864461E+03  0.00000000000E+00 0. -1.
         21   -1    0    0  502  503 -0.00000000000E+00 -0.00000000000E+00 -0.27867620256E+03  0.27867620256E+03  0.00000000000E+00 0.  1.
         -6    2    1    2    0  503  0.83015348673E+02  0.12887861543E+03 -0.33681997295E+02  0.23370980360E+03  0.17316047391E+03 0.  0.
        -24    2    3    3    0    0  0.15153151210E+02  0.55768472610E+02 -0.75141445785E+02  0.12558327264E+03  0.82372209903E+02 0.  0.
          6    2    1    2  501    0 -0.83015348673E+02 -0.12887861543E+03 -0.52135560659E+02  0.23782504357E+03  0.17418779818E+03 0.  0.
         24    2    5    5    0    0 -0.12195689465E+03 -0.84922648910E+02 -0.58180780922E+02  0.17860337791E+03  0.80179940639E+02 0.  0.
          5    1    5    5  501    0  0.38941545980E+02 -0.43955966515E+02  0.60452202625E+01  0.59221665661E+02  0.47000000000E+01 0. -1.
        -11    1    6    6    0    0 -0.79526185244E+02 -0.94518552711E+02 -0.54288201828E+02  0.13492731304E+03  0.00000000000E+00 0.  1.
         12    1    6    6    0    0 -0.42430709409E+02  0.95959038006E+01 -0.38925790937E+01  0.43676064872E+02  0.00000000000E+00 0. -1.
         -5    1    3    3    0  503  0.67862197463E+02  0.73110142816E+02  0.41459448490E+02  0.10812653095E+03  0.47000000000E+01 0.  1.
         13    1    4    4    0    0 -0.23827674003E+02  0.51624403791E+01  0.31006018125E+01  0.24576870644E+02  0.00000000000E+00 0. -1.
        -14    1    4    4    0    0  0.38980825213E+02  0.50606032231E+02 -0.78242047598E+02  0.10100640200E+03  0.00000000000E+00 0.  1.
<mgrwt>
<rscale>  2 0.23184737E+03</rscale>
<asrwt>0</asrwt>
<pdfrwt beam="1">  1       21 0.29670561E-01 0.23204016E+03</pdfrwt>
<pdfrwt beam="2">  1       21 0.42873262E-01 0.23204016E+03</pdfrwt>
<totfact> 0.55970206E+04</totfact>
</mgrwt>
</event>
<event>
12    1  0.1019868E-001  0.1866459E+03  0.7546771E-02  0.1162107E+00
         21   -1    0    0  501  502  0.00000000000E+00  0.00000000000E+00  0.26120038476E+04  0.26120038476E+04  0.00000000000E+00 0.  1.
         21   -1    0    0  502  503 -0.00000000000E+00 -0.00000000000E+00 -0.14194306079E+02  0.14194306079E+02  0.00000000000E+00 0. -1.
         -6    2    1    2    0  503  0.59807249030E+02 -0.13955543043E+02  0.93594347080E+03  0.95388372874E+03  0.17358664464E+03 0.  0.
        -24    2    3    3    0    0 -0.24827088194E+02 -0.37665752710E+02  0.56697409076E+03  0.57456112397E+03  0.81398847351E+02 0.  0.
          6    2    1    2  501    0 -0.59807249030E+02  0.13955543043E+02  0.16618660707E+04  0.16723144250E+04  0.17625275782E+03 0.  0.
         24    2    5    5    0    0 -0.10141225344E+03  0.46078677240E+02  0.13802994573E+04  0.13858450200E+04  0.54149221132E+02 0.  0.
          5    1    5    5  501    0  0.41605004411E+02 -0.32123134196E+02  0.28156661345E+03  0.28646940492E+03  0.47000000000E+01 0. -1.
        -13    1    6    6    0    0 -0.47150628950E+02  0.38533454372E+02  0.47464856807E+03  0.47853868400E+03  0.00000000000E+00 0.  1.
         14    1    6    6    0    0 -0.54261624491E+02  0.75452228678E+01  0.90565088922E+03  0.90730633605E+03  0.00000000000E+00 0. -1.
         -5    1    3    3    0  503  0.84634337223E+02  0.23710209667E+02  0.36896938004E+03  0.37932260476E+03  0.47000000000E+01 0.  1.
         11    1    4    4    0    0 -0.24517199952E+02  0.19092426246E+02  0.30090991206E+03  0.30251014695E+03  0.00000000000E+00 0. -1.
        -12    1    4    4    0    0 -0.30988824201E+00 -0.56758178956E+02  0.26606417870E+03  0.27205097702E+03  0.00000000000E+00 0.  1.
<mgrwt>
<rscale>  2 0.18601382E+03</rscale>
<asrwt>0</asrwt>
<pdfrwt beam="1">  1       21 0.40184636E+00 0.18664592E+03</pdfrwt>
<pdfrwt beam="2">  1       21 0.21837415E-02 0.18664592E+03</pdfrwt>
<totfact> 0.91216121E+03</totfact>
</mgrwt>
</event>
<event>
12    1  0.1019868E-001  0.2208714E+03  0.7546771E-02  0.1133404E+00
         21   -1    0    0  503  502  0.00000000000E+00  0.00000000000E+00  0.15417231753E+04  0.15417231753E+04  0.00000000000E+00 0. -1.
         21   -1    0    0  501  503 -0.00000000000E+00 -0.00000000000E+00 -0.35494434323E+02  0.35494434323E+02  0.00000000000E+00 0.  1.
          6    2    1    2  501    0 -0.47701338315E+01  0.13665238164E+03  0.49035077637E+03  0.53779929054E+03  0.17345767621E+03 0.  0.
         24    2    3    3    0    0 -0.45346881016E+02  0.18573608526E+02  0.16909148415E+03  0.19309841745E+03  0.79333159890E+02 0.  0.
         -6    2    1    2    0  502  0.47701338315E+01 -0.13665238164E+03  0.10158779646E+04  0.10394183191E+04  0.17229560495E+03 0.  0.
        -24    2    5    5    0    0 -0.45612099170E+02 -0.12227247723E+03  0.88624833259E+03  0.89952163381E+03  0.81682558697E+02 0.  0.
          5    1    3    3  501    0  0.40576747184E+02  0.11807877311E+03  0.32125929222E+03  0.34470087309E+03  0.47000000000E+01 0. -1.
        -13    1    4    4    0    0 -0.46266772276E+02  0.45700265820E+02  0.10515719792E+03  0.12364127461E+03  0.00000000000E+00 0.  1.
         14    1    4    4    0    0  0.91989125967E+00 -0.27126657294E+02  0.63934286225E+02  0.69457142836E+02  0.00000000000E+00 0. -1.
         -5    1    5    5    0  502  0.50382233001E+02 -0.14379904408E+02  0.12962963200E+03  0.13989668526E+03  0.47000000000E+01 0.  1.
         11    1    6    6    0    0 -0.69527148785E+01 -0.47078468291E+01  0.31091107365E+03  0.31102443599E+03  0.00000000000E+00 0. -1.
        -12    1    6    6    0    0 -0.38659384291E+02 -0.11756463040E+03  0.57533725894E+03  0.58849719782E+03  0.00000000000E+00 0.  1.
<mgrwt>
<rscale>  2 0.22064323E+03</rscale>
<asrwt>0</asrwt>
<pdfrwt beam="1">  1       21 0.23718813E+00 0.22087144E+03</pdfrwt>
<pdfrwt beam="2">  1       21 0.54606834E-02 0.22087144E+03</pdfrwt>
<totfact> 0.17918194E+04</totfact>
</mgrwt>
</event>
<event>
12    1  0.1019868E-001  0.1875797E+03  0.7546771E-02  0.1161048E+00
         21   -1    0    0  503  502  0.00000000000E+00  0.00000000000E+00  0.46166852193E+02  0.46166852193E+02  0.00000000000E+00 0.  1.
         21   -1    0    0  501  503 -0.00000000000E+00 -0.00000000000E+00 -0.84118248741E+03  0.84118248741E+03  0.00000000000E+00 0.  1.
          6    2    1    2  501    0  0.71584466676E+02 -0.73430159938E+01 -0.53761557944E+03  0.56885137963E+03  0.17141506673E+03 0.  0.
         24    2    3    3    0    0 -0.28166263503E+02 -0.35167867190E+01 -0.26256801697E+03  0.27621149885E+03  0.80901930603E+02 0.  0.
         -6    2    1    2    0  502 -0.71584466676E+02  0.73430159938E+01 -0.25740005578E+03  0.31849795997E+03  0.17322790202E+03 0.  0.
        -24    2    5    5    0    0 -0.40478113605E+02 -0.58411313194E+02 -0.19524875591E+03  0.22270594003E+03  0.80159215642E+02 0.  0.
          5    1    3    3  501    0  0.99750730178E+02 -0.38262292748E+01 -0.27504756247E+03  0.29263988078E+03  0.47000000000E+01 0. -1.
        -13    1    4    4    0    0 -0.15455196270E+02  0.29118133460E+02 -0.21290037953E+03  0.21543746284E+03  0.00000000000E+00 0.  1.
         14    1    4    4    0    0 -0.12711067233E+02 -0.32634920179E+02 -0.49667637431E+02  0.60774036013E+02  0.00000000000E+00 0. -1.
         -5    1    5    5    0  502 -0.31106353071E+02  0.65754329187E+02 -0.62151299871E+02  0.95792019939E+02  0.47000000000E+01 0.  1.
         13    1    6    6    0    0  0.19352493986E+02 -0.14742284480E+02 -0.16999824122E+02  0.29679083466E+02  0.00000000000E+00 0. -1.
        -14    1    6    6    0    0 -0.59830607591E+02 -0.43669028714E+02 -0.17824893179E+03  0.19302685657E+03  0.00000000000E+00 0.  1.
<mgrwt>
<rscale>  2 0.18716013E+03</rscale>
<asrwt>0</asrwt>
<pdfrwt beam="1">  1       21 0.71025929E-02 0.18757975E+03</pdfrwt>
<pdfrwt beam="2">  1       21 0.12941269E+00 0.18757975E+03</pdfrwt>
<totfact> 0.64656768E+04</totfact>
</mgrwt>
</event>
<event>
12    1  0.1019868E-001  0.2101413E+03  0.7546771E-02  0.1141874E+00
         21   -1    0    0  501  502  0.00000000000E+00  0.00000000000E+00  0.11727569634E+03  0.11727569634E+03  0.00000000000E+00 0.  1.
         21   -1    0    0  502  503 -0.00000000000E+00 -0.00000000000E+00 -0.50226942867E+03  0.50226942867E+03  0.00000000000E+00 0.  1.
         -6    2    1    2    0  503 -0.11178974528E+03 -0.43644274132E+02 -0.35051065893E+03  0.40867726420E+03  0.17250395484E+03 0.  0.
        -24    2    3    3    0    0 -0.13307702813E+03 -0.72726842479E+02 -0.30905514566E+03  0.35354475316E+03  0.80499194985E+02 0.  0.
          6    2    1    2  501    0  0.11178974528E+03  0.43644274132E+02 -0.34483073397E+02  0.21086786081E+03  0.16992469673E+03 0.  0.
         24    2    5    5    0    0  0.10207196045E+03 -0.23262852306E+02 -0.34201312487E+02  0.14309494366E+03  0.91359661322E+02 0.  0.
          5    1    5    5  501    0  0.97177848208E+01  0.66907126437E+02 -0.28176091020E+00  0.67772917151E+02  0.47000000000E+01 0. -1.
        -11    1    6    6    0    0  0.26467415418E+02  0.15467926807E+02  0.24996491832E+02  0.39555093761E+02  0.00000000000E+00 0.  1.
         12    1    6    6    0    0  0.75604545037E+02 -0.38730779112E+02 -0.59197804319E+02  0.10353984990E+03  0.00000000000E+00 0. -1.
         -5    1    3    3    0  503  0.21287282857E+02  0.29082568347E+02 -0.41455513264E+02  0.55132511035E+02  0.47000000000E+01 0.  1.
         13    1    4    4    0    0 -0.11793549655E+03 -0.73351686966E+02 -0.30856675511E+03  0.33838246657E+03  0.00000000000E+00 0. -1.
        -14    1    4    4    0    0 -0.15141531580E+02  0.62484448764E+00 -0.48839055754E+00  0.15162286588E+02  0.00000000000E+00 0.  1.
<mgrwt>
<rscale>  2 0.20961132E+03</rscale>
<asrwt>0</asrwt>
<pdfrwt beam="1">  1       21 0.18042415E-01 0.21014134E+03</pdfrwt>
<pdfrwt beam="2">  1       21 0.77272220E-01 0.21014134E+03</pdfrwt>
<totfact> 0.41198090E+04</totfact>
</mgrwt>
</event>
<event>
12    1  0.1019868E-001  0.1768423E+03  0.7546771E-02  0.1171084E+00
         21   -1    0    0  503  502  0.00000000000E+00  0.00000000000E+00  0.26371582530E+03  0.26371582530E+03  0.00000000000E+00 0. -1.
         21   -1    0    0  501  503 -0.00000000000E+00 -0.00000000000E+00 -0.15867372192E+03  0.15867372192E+03  0.00000000000E+00 0. -1.
          6    2    1    2  501    0 -0.29452175752E+02  0.16581165300E+02 -0.54220672363E+02  0.18496776054E+03  0.17358233041E+03 0.  0.
         24    2    3    3    0    0  0.66438069084E+01 -0.50802062005E+02 -0.85769121343E+01  0.95811369107E+02  0.80506306301E+02 0.  0.
         -6    2    1    2    0  502  0.29452175752E+02 -0.16581165300E+02  0.15926277575E+03  0.23742178668E+03  0.17280656050E+03 0.  0.
        -24    2    5    5    0    0 -0.45531066079E+02 -0.33561030676E+02  0.80700731481E+02  0.12739957445E+03  0.80737988278E+02 0.  0.
          5    1    3    3  501    0 -0.36095982660E+02  0.67383227305E+02 -0.45643760229E+02  0.89156391437E+02  0.47000000000E+01 0. -1.
        -13    1    4    4    0    0 -0.22233723608E+02 -0.15495110980E+02 -0.34089137754E+02  0.43548894850E+02  0.00000000000E+00 0.  1.
         14    1    4    4    0    0  0.28877530517E+02 -0.35306951024E+02  0.25512225620E+02  0.52262474257E+02  0.00000000000E+00 0. -1.
         -5    1    5    5    0  502  0.74983241831E+02  0.16979865376E+02  0.78562044265E+02  0.11002221222E+03  0.47000000000E+01 0.  1.
         11    1    6    6    0    0  0.18535338326E+02 -0.14362229240E+02  0.46961340210E+02  0.52489997809E+02  0.00000000000E+00 0. -1.
        -12    1    6    6    0    0 -0.64066404405E+02 -0.19198801436E+02  0.33739391271E+02  0.74909576646E+02  0.00000000000E+00 0.  1.
<mgrwt>
<rscale>  2 0.17665162E+03</rscale>
<asrwt>0</asrwt>
<pdfrwt beam="1">  1       21 0.40571666E-01 0.17684228E+03</pdfrwt>
<pdfrwt beam="2">  1       21 0.24411342E-01 0.17684228E+03</pdfrwt>
<totfact> 0.93346981E+04</totfact>
</mgrwt>
</event>
<event>
12    1  0.1019868E-001  0.2008020E+03  0.7546771E-02  0.1149450E+00
         21   -1    0    0  503  502  0.00000000000E+00  0.00000000000E+00  0.14442504632E+03  0.14442504632E+03  0.00000000000E+00 0. -1.
         21   -1    0    0  501  503 -0.00000000000E+00 -0.00000000000E+00 -0.33460575067E+03  0.33460575067E+03  0.00000000000E+00 0. -1.
          6    2    1    2  501    0  0.69480096086E+02 -0.74026886269E+02 -0.19441161449E+03  0.27818422669E+03  0.17112312669E+03 0.  0.
         24    2    3    3    0    0  0.27142208562E+02 -0.59929844281E+02 -0.30787460557E+02  0.10851933031E+03  0.80624385902E+02 0.  0.
         -6    2    1    2    0  502 -0.69480096086E+02  0.74026886269E+02  0.42309101403E+01  0.20084657030E+03  0.17324543444E+03 0.  0.
        -24    2    5    5    0    0  0.22108835793E+02  0.64147340686E+02  0.20573665763E+02  0.10716992686E+03  0.80364392385E+02 0.  0.
          5    1    3    3  501    0  0.42337887524E+02 -0.14097041988E+02 -0.16362415394E+03  0.16966489638E+03  0.47000000000E+01 0. -1.
        -13    1    4    4    0    0  0.53829204747E+02 -0.29614255357E+02 -0.74884578139E+01  0.61892361439E+02  0.00000000000E+00 0.  1.
         14    1    4    4    0    0 -0.26686996185E+02 -0.30315588925E+02 -0.23299002743E+02  0.46626968871E+02  0.00000000000E+00 0. -1.
         -5    1    5    5    0  502 -0.91588931879E+02  0.98795455830E+01 -0.16342755622E+02  0.93676643434E+02  0.47000000000E+01 0.  1.
         13    1    6    6    0    0 -0.19815223256E+02  0.45347813547E+02 -0.11909460011E+02  0.50900908675E+02  0.00000000000E+00 0. -1.
        -14    1    6    6    0    0  0.41924059048E+02  0.18799527139E+02  0.32483125773E+02  0.56269018187E+02  0.00000000000E+00 0.  1.
<mgrwt>
<rscale>  2 0.20034339E+03</rscale>
<asrwt>0</asrwt>
<pdfrwt beam="1">  1       21 0.22219238E-01 0.20080200E+03</pdfrwt>
<pdfrwt beam="2">  1       21 0.51477807E-01 0.20080200E+03</pdfrwt>
<totfact> 0.67677232E+04</totfact>
</mgrwt>
</event>
<event>
12    1  0.1019868E-001  0.3187888E+03  0.7546771E-02  0.1076243E+00
         21   -1    0    0  501  502  0.00000000000E+00  0.00000000000E+00  0.15143638318E+04  0.15143638318E+04  0.00000000000E+00 0.  1.
         21   -1    0    0  502  503 -0.00000000000E+00 -0.00000000000E+00 -0.12790412403E+03  0.12790412403E+03  0.00000000000E+00 0.  1.
         -6    2    1    2    0  503  0.26143558356E+03  0.56758341206E+02  0.12664164887E+03  0.34274196183E+03  0.17281166490E+03 0.  0.
        -24    2    3    3    0    0  0.14689655086E+03 -0.30110240778E+02  0.98870407973E+02  0.19625417269E+03  0.79089313246E+02 0.  0.
          6    2    1    2  501    0 -0.26143558356E+03 -0.56758341206E+02  0.12598180589E+04  0.12995259940E+04  0.17336722259E+03 0.  0.
         24    2    5    5    0    0 -0.20227652108E+03 -0.95578407581E+02  0.79682269510E+03  0.83113130024E+03  0.76169599190E+02 0.  0.
          5    1    5    5  501    0 -0.59159062477E+02  0.38820066375E+02  0.46299536382E+03  0.46839469376E+03  0.47000000000E+01 0. -1.
        -13    1    6    6    0    0 -0.17783723071E+03 -0.50232747642E+02  0.62799362609E+03  0.65461851790E+03  0.00000000000E+00 0.  1.
         14    1    6    6    0    0 -0.24439290371E+02 -0.45345659939E+02  0.16882906901E+03  0.17651278235E+03  0.00000000000E+00 0. -1.
         -5    1    3    3    0  503  0.11453903270E+03  0.86868581984E+02  0.27771240894E+02  0.14648778914E+03  0.47000000000E+01 0.  1.
         13    1    4    4    0    0  0.13522182830E+03  0.21265448333E+01  0.78236318792E+02  0.15623823674E+03  0.00000000000E+00 0. -1.
        -14    1    4    4    0    0  0.11674722563E+02 -0.32236785611E+02  0.20634089180E+02  0.40015935948E+02  0.00000000000E+00 0.  1.
<mgrwt>
<rscale>  2 0.31871328E+03</rscale>
<asrwt>0</asrwt>
<pdfrwt beam="1">  1       21 0.23297904E+00 0.31878875E+03</pdfrwt>
<pdfrwt beam="2">  1       21 0.19677559E-01 0.31878875E+03</pdfrwt>
<totfact> 0.17904118E+03</totfact>
</mgrwt>
</event>
<event>
12    1  0.1019868E-001  0.1802093E+03  0.7546771E-02  0.1168083E+00
         21   -1    0    0  503  502  0.00000000000E+00  0.00000000000E+00  0.15362642174E+03  0.15362642174E+03  0.00000000000E+00 0. -1.
         21   -1    0    0  501  503 -0.00000000000E+00 -0.00000000000E+00 -0.28363656489E+03  0.28363656489E+03  0.00000000000E+00 0. -1.
          6    2    1    2  501    0 -0.20786508675E+02  0.35960956632E+02 -0.17683823946E+03  0.25106882031E+03  0.17331624348E+03 0.  0.
         24    2    3    3    0    0  0.12525748611E+02 -0.42983748843E+02 -0.78171060795E+02  0.12030462356E+03  0.79737009350E+02 0.  0.
         -6    2    1    2    0  502  0.20786508675E+02 -0.35960956632E+02  0.46828096305E+02  0.18619416632E+03  0.17535714306E+03 0.  0.
        -24    2    5    5    0    0  0.44640103190E+02 -0.54474024095E+02  0.86040053323E+02  0.13648103715E+03  0.79145591242E+02 0.  0.
          5    1    3    3  501    0 -0.33312257286E+02  0.78944705475E+02 -0.98667178661E+02  0.13076419675E+03  0.47000000000E+01 0. -1.
        -13    1    4    4    0    0  0.37595511082E+01 -0.43489309506E+02 -0.93190168802E+02  0.10290705431E+03  0.00000000000E+00 0.  1.
         14    1    4    4    0    0  0.87661975029E+01  0.50556066311E+00  0.15019108007E+02  0.17397569243E+02  0.00000000000E+00 0. -1.
         -5    1    5    5    0  502 -0.23853594516E+02  0.18513067463E+02 -0.39211957018E+02  0.49713129165E+02  0.47000000000E+01 0.  1.
         13    1    6    6    0    0  0.38293559363E+02 -0.17534923735E+02  0.89426309071E+02  0.98848039905E+02  0.00000000000E+00 0. -1.
        -14    1    6    6    0    0  0.63465438279E+01 -0.36939100360E+02 -0.33862557479E+01  0.37632997249E+02  0.00000000000E+00 0.  1.
<mgrwt>
<rscale>  2 0.17971092E+03</rscale>
<asrwt>0</asrwt>
<pdfrwt beam="1">  1       21 0.23634834E-01 0.18020931E+03</pdfrwt>
<pdfrwt beam="2">  1       21 0.43636395E-01 0.18020931E+03</pdfrwt>
<totfact> 0.85493697E+04</totfact>
</mgrwt>
</event>
<event>
12    1  0.1019868E-001  0.2007673E+03  0.7546771E-02  0.1149464E+00
         21   -1    0    0  501  502  0.00000000000E+00  0.00000000000E+00  0.12875722725E+03  0.12875722725E+03  0.00000000000E+00 0.  1.
         21   -1    0    0  502  503 -0.00000000000E+00 -0.00000000000E+00 -0.33506678573E+03  0.33506678573E+03  0.00000000000E+00 0. -1.
         -6    2    1    2    0  503 -0.98177403299E+02 -0.72166371788E+01 -0.16576403044E+03  0.25900343715E+03  0.17295717474E+03 0.  0.
        -24    2    3    3    0    0  0.17783929539E+01  0.35073956318E+02 -0.95698568348E+02  0.12973273482E+03  0.80243513169E+02 0.  0.
          6    2    1    2  501    0  0.98177403299E+02  0.72166371788E+01 -0.40545528036E+02  0.20482057583E+03  0.17497612999E+03 0.  0.
         24    2    5    5    0    0  0.74344161682E+02 -0.31368569293E+02  0.32593514131E+02  0.11863327367E+03  0.80625522895E+02 0.  0.
          5    1    5    5  501    0  0.23833241617E+02  0.38585206472E+02 -0.73139042167E+02  0.86187302160E+02  0.47000000000E+01 0. -1.
        -11    1    6    6    0    0  0.36578974411E+02 -0.46897318588E+02  0.46501134453E+02  0.75496591745E+02  0.00000000000E+00 0.  1.
         12    1    6    6    0    0  0.37765187270E+02  0.15528749295E+02 -0.13907620322E+02  0.43136681922E+02  0.00000000000E+00 0. -1.
         -5    1    3    3    0  503 -0.99955796253E+02 -0.42290593497E+02 -0.70065462096E+02  0.12927070233E+03  0.47000000000E+01 0.  1.
         11    1    4    4    0    0 -0.10215927315E+02 -0.14200249287E+02 -0.71376433614E+02  0.73488825860E+02  0.00000000000E+00 0. -1.
        -12    1    4    4    0    0  0.11994320269E+02  0.49274205605E+02 -0.24322134734E+02  0.56243908957E+02  0.00000000000E+00 0.  1.
<mgrwt>
<rscale>  2 0.20032662E+03</rscale>
<asrwt>0</asrwt>
<pdfrwt beam="1">  1       21 0.19808804E-01 0.20076735E+03</pdfrwt>
<pdfrwt beam="2">  1       21 0.51548737E-01 0.20076735E+03</pdfrwt>
<totfact> 0.83726605E+04</totfact>
</mgrwt>
</event>
<event>
12    1  0.1019868E-001  0.2250779E+03  0.7546771E-02  0.1131251E+00
         21   -1    0    0  501  502  0.00000000000E+00  0.00000000000E+00  0.83097388341E+02  0.83097388341E+02  0.00000000000E+00 0. -1.
         21   -1    0    0  502  503 -0.00000000000E+00 -0.00000000000E+00 -0.11641843724E+04  0.11641843724E+04  0.00000000000E+00 0. -1.
         -6    2    1    2    0  503 -0.80520668200E+02  0.10831853718E+03 -0.98085357066E+03  0.10063467518E+04  0.18012099912E+03 0.  0.
        -24    2    3    3    0    0  0.13765740950E+02  0.58656059615E+01 -0.27835794512E+03  0.29017029035E+03  0.80571402078E+02 0.  0.
          6    2    1    2  501    0  0.80520668200E+02 -0.10831853718E+03 -0.10023341336E+03  0.24093500888E+03  0.17258753677E+03 0.  0.
         24    2    5    5    0    0  0.10428353663E+03 -0.28947819357E+02 -0.45130197157E+02  0.14132155999E+03  0.78879758916E+02 0.  0.
          5    1    5    5  501    0 -0.23762868428E+02 -0.79370717820E+02 -0.55103216207E+02  0.99613448889E+02  0.47000000000E+01 0. -1.
        -13    1    6    6    0    0  0.11094059608E+03 -0.12596595079E+02 -0.24760468266E+02  0.11436595147E+03  0.00000000000E+00 0.  1.
         14    1    6    6    0    0 -0.66570594531E+01 -0.16351224278E+02 -0.20369728891E+02  0.26955608527E+02  0.00000000000E+00 0. -1.
         -5    1    3    3    0  503 -0.94286409149E+02  0.10245293122E+03 -0.70249562554E+03  0.71617646147E+03  0.47000000000E+01 0.  1.
         11    1    4    4    0    0  0.33553111461E+02  0.28592430701E+02 -0.22125706038E+03  0.22560590672E+03  0.00000000000E+00 0. -1.
        -12    1    4    4    0    0 -0.19787370511E+02 -0.22726824739E+02 -0.57100884741E+02  0.64564383623E+02  0.00000000000E+00 0.  1.
<mgrwt>
<rscale>  2 0.22356721E+03</rscale>
<asrwt>0</asrwt>
<pdfrwt beam="1">  1       21 0.12784213E-01 0.22507789E+03</pdfrwt>
<pdfrwt beam="2">  1       21 0.17910529E+00 0.22507789E+03</pdfrwt>
<totfact> 0.94276482E+03</totfact>
</mgrwt>
</event>
<event>
12    1  0.1019868E-001  0.2034263E+03  0.7546771E-02  0.1146893E+00
         21   -1    0    0  503  502  0.00000000000E+00  0.00000000000E+00  0.34869079822E+02  0.34869079822E+02  0.00000000000E+00 0.  1.
         21   -1    0    0  501  503 -0.00000000000E+00 -0.00000000000E+00 -0.12225383552E+04  0.12225383552E+04  0.00000000000E+00 0. -1.
          6    2    1    2  501    0  0.42124005767E+02  0.10006042399E+03 -0.70180509755E+03  0.73067574396E+03  0.17195966839E+03 0.  0.
         24    2    3    3    0    0  0.82395741583E+02  0.38300035867E+02 -0.52596918771E+03  0.53994945989E+03  0.81522278146E+02 0.  0.
         -6    2    1    2    0  502 -0.42124005767E+02 -0.10006042399E+03 -0.48586417782E+03  0.52673169105E+03  0.17203416743E+03 0.  0.
        -24    2    5    5    0    0 -0.24731979849E+02 -0.84036760967E+02 -0.48821834051E+03  0.50250624113E+03  0.80507927217E+02 0.  0.
          5    1    3    3  501    0 -0.40271735816E+02  0.61760388120E+02 -0.17583590984E+03  0.19072628407E+03  0.47000000000E+01 0. -1.
        -11    1    4    4    0    0  0.88856764178E+02  0.38391186343E+02 -0.33073934354E+03  0.34461271175E+03  0.00000000000E+00 0.  1.
         12    1    4    4    0    0 -0.64610225951E+01 -0.91150476799E-01 -0.19522984417E+03  0.19533674815E+03  0.00000000000E+00 0. -1.
         -5    1    5    5    0  502 -0.17392025918E+02 -0.16023663019E+02  0.23541626888E+01  0.24225449924E+02  0.47000000000E+01 0.  1.
         13    1    6    6    0    0 -0.58182704366E+01 -0.93315610608E+02 -0.33342401563E+03  0.34628489666E+03  0.00000000000E+00 0. -1.
        -14    1    6    6    0    0 -0.18913709412E+02  0.92788496407E+01 -0.15479432488E+03  0.15622134447E+03  0.00000000000E+00 0.  1.
<mgrwt>
<rscale>  2 0.20341059E+03</rscale>
<asrwt>0</asrwt>
<pdfrwt beam="1">  1       21 0.53644733E-02 0.20342634E+03</pdfrwt>
<pdfrwt beam="2">  1       21 0.18808284E+00 0.20342634E+03</pdfrwt>
<totfact> 0.38058306E+04</totfact>
</mgrwt>
</event>
<event>
12    1  0.1019868E-001  0.2489951E+03  0.7546771E-02  0.1114488E+00
         21   -1    0    0  503  502  0.00000000000E+00  0.00000000000E+00  0.17208970837E+04  0.17208970837E+04  0.00000000000E+00 0.  1.
         21   -1    0    0  501  503 -0.00000000000E+00 -0.00000000000E+00 -0.14016196287E+03  0.14016196287E+03  0.00000000000E+00 0.  1.
          6    2    1    2  501    0  0.78751785140E+02  0.15640169633E+03 -0.14977561715E+02  0.24603658684E+03  0.17218112681E+03 0.  0.
         24    2    3    3    0    0  0.48391833981E+02  0.10613477419E+02 -0.42381752585E-01  0.96299881220E+02  0.82578749251E+02 0.  0.
         -6    2    1    2    0  502 -0.78751785140E+02 -0.15640169633E+03  0.15957126826E+04  0.16150224597E+04  0.17701764301E+03 0.  0.
        -24    2    5    5    0    0 -0.81613067573E+02 -0.39710980127E+02  0.61096386067E+03  0.62336866815E+03  0.84107090320E+02 0.  0.
          5    1    3    3  501    0  0.30359951158E+02  0.14578821891E+03 -0.14935179963E+02  0.14973670562E+03  0.47000000000E+01 0. -1.
        -13    1    4    4    0    0  0.53180478956E+02  0.32189155268E+02 -0.21224889513E+02  0.65687144813E+02  0.00000000000E+00 0.  1.
         14    1    4    4    0    0 -0.47886449751E+01 -0.21575677849E+02  0.21182507760E+02  0.30612736407E+02  0.00000000000E+00 0. -1.
         -5    1    5    5    0  502  0.28612824331E+01 -0.11669071621E+03  0.98474882189E+03  0.99165379160E+03  0.47000000000E+01 0.  1.
         11    1    6    6    0    0  0.16052245316E+02 -0.17170811617E+02  0.11750119884E+03  0.11982922465E+03  0.00000000000E+00 0. -1.
        -12    1    6    6    0    0 -0.97665312888E+02 -0.22540168510E+02  0.49346266183E+03  0.50353944350E+03  0.00000000000E+00 0.  1.
<mgrwt>
<rscale>  2 0.24813700E+03</rscale>
<asrwt>0</asrwt>
<pdfrwt beam="1">  1       21 0.26475338E+00 0.24899514E+03</pdfrwt>
<pdfrwt beam="2">  1       21 0.21563380E-01 0.24899514E+03</pdfrwt>
<totfact> 0.10262042E+03</totfact>
</mgrwt>
</event>
<event>
12    1  0.1019868E-001  0.1854100E+03  0.7546771E-02  0.1163005E+00
         21   -1    0    0  503  502  0.00000000000E+00  0.00000000000E+00  0.28034837882E+03  0.28034837882E+03  0.00000000000E+00 0.  1.
         21   -1    0    0  501  503 -0.00000000000E+00 -0.00000000000E+00 -0.13902995681E+03  0.13902995681E+03  0.00000000000E+00 0. -1.
          6    2    1    2  501    0 -0.56348321318E+02  0.27719523632E+02 -0.31965835143E+01  0.18543754251E+03  0.17445159420E+03 0.  0.
         24    2    3    3    0    0  0.10206288070E+02 -0.31243151385E+02  0.27449134372E+02  0.91270865278E+02  0.80601569750E+02 0.  0.
         -6    2    1    2    0  502  0.56348321318E+02 -0.27719523632E+02  0.14451500552E+03  0.23394079313E+03  0.17291675038E+03 0.  0.
        -24    2    5    5    0    0  0.38846034469E+02  0.43008256063E+02  0.12419430314E+03  0.15815313047E+03  0.78926948901E+02 0.  0.
          5    1    3    3  501    0 -0.66554609387E+02  0.58962675016E+02 -0.30645717887E+02  0.94166677230E+02  0.47000000000E+01 0. -1.
        -13    1    4    4    0    0  0.74771489094E+00  0.16635172794E+02  0.37867914864E+02  0.41367463393E+02  0.00000000000E+00 0.  1.
         14    1    4    4    0    0  0.94585731787E+01 -0.47878324179E+02 -0.10418780492E+02  0.49903401885E+02  0.00000000000E+00 0. -1.
         -5    1    5    5    0  502  0.17502286849E+02 -0.70727779695E+02  0.20320702389E+02  0.75787662658E+02  0.47000000000E+01 0.  1.
         13    1    6    6    0    0  0.44285492414E+02 -0.86145464731E+01  0.68470768472E+02  0.81997935245E+02  0.00000000000E+00 0. -1.
        -14    1    6    6    0    0 -0.54394579459E+01  0.51622802536E+02  0.55723534664E+02  0.76155195226E+02  0.00000000000E+00 0.  1.
<mgrwt>
<rscale>  2 0.18504808E+03</rscale>
<asrwt>0</asrwt>
<pdfrwt beam="1">  1       21 0.43130520E-01 0.18540999E+03</pdfrwt>
<pdfrwt beam="2">  1       21 0.21389224E-01 0.18540999E+03</pdfrwt>
<totfact> 0.10548451E+05</totfact>
</mgrwt>
</event>
<event>
12    1  0.1019868E-001  0.1930000E+03  0.7546771E-02  0.1156056E+00
         21   -1    0    0  503  502  0.00000000000E+00  0.00000000000E+00  0.19850602210E+03  0.19850602210E+03  0.00000000000E+00 0.  1.
         21   -1    0    0  501  503 -0.00000000000E+00 -0.00000000000E+00 -0.18771679172E+03  0.18771679172E+03  0.00000000000E+00 0. -1.
          6    2    1    2  501    0  0.63630686387E+02 -0.54304340172E+02  0.21240447174E+02  0.19294000160E+03  0.17255973461E+03 0.  0.
         24    2    3    3    0    0  0.22111946286E+01 -0.31515236483E+02 -0.37590951345E+02  0.10476449102E+03  0.92544148612E+02 0.  0.
         -6    2    1    2    0  502 -0.63630686387E+02  0.54304340172E+02 -0.10451216799E+02  0.19328281222E+03  0.17392869791E+03 0.  0.
        -24    2    5    5    0    0  0.22228680844E+02  0.26868192010E+02 -0.40501971963E+02  0.98152842950E+02  0.82325918472E+02 0.  0.
          5    1    3    3  501    0  0.61419491758E+02 -0.22789103689E+02  0.58831398519E+02  0.88175510583E+02  0.47000000000E+01 0. -1.
        -13    1    4    4    0    0  0.31660222871E+02 -0.51291144390E+02 -0.13168750079E+02  0.61697383930E+02  0.00000000000E+00 0.  1.
         14    1    4    4    0    0 -0.29449028243E+02  0.19775907908E+02 -0.24422201266E+02  0.43067107085E+02  0.00000000000E+00 0. -1.
         -5    1    5    5    0  502 -0.85859367231E+02  0.27436148162E+02  0.30050755164E+02  0.95129969269E+02  0.47000000000E+01 0.  1.
         11    1    6    6    0    0  0.47453818129E+02 -0.31445373977E+01 -0.10293342528E+02  0.48659077990E+02  0.00000000000E+00 0. -1.
        -12    1    6    6    0    0 -0.25225137285E+02  0.30012729408E+02 -0.30208629435E+02  0.49493764960E+02  0.00000000000E+00 0.  1.
<mgrwt>
<rscale>  2 0.19269111E+03</rscale>
<asrwt>0</asrwt>
<pdfrwt beam="1">  1       21 0.30539388E-01 0.19300005E+03</pdfrwt>
<pdfrwt beam="2">  1       21 0.28879506E-01 0.19300005E+03</pdfrwt>
<totfact> 0.11809556E+05</totfact>
</mgrwt>
</event>
<event>
12    1  0.1019868E-001  0.2225652E+03  0.7546771E-02  0.1132308E+00
         21   -1    0    0  503  502  0.00000000000E+00  0.00000000000E+00  0.15501763633E+03  0.15501763633E+03  0.00000000000E+00 0. -1.
         21   -1    0    0  501  503 -0.00000000000E+00 -0.00000000000E+00 -0.93062240053E+03  0.93062240053E+03  0.00000000000E+00 0. -1.
          6    2    1    2  501    0 -0.13526893274E+03  0.31348375980E+02 -0.82804460500E+03  0.85698049108E+03  0.17168951450E+03 0.  0.
         24    2    3    3    0    0 -0.12079017273E+03  0.58087070756E+02 -0.42573313479E+03  0.45349418233E+03  0.80273891983E+02 0.  0.
         -6    2    1    2    0  502  0.13526893274E+03 -0.31348375980E+02  0.52439840793E+02  0.22865954578E+03  0.17393920239E+03 0.  0.
        -24    2    5    5    0    0  0.41608770869E+02  0.24083748885E+02 -0.17635070316E+02  0.99131442429E+02  0.84880683312E+02 0.  0.
          5    1    3    3  501    0 -0.14478760017E+02 -0.26738694776E+02 -0.40231147021E+03  0.40348630875E+03  0.47000000000E+01 0. -1.
        -13    1    4    4    0    0 -0.99563350194E+00 -0.14369290537E+02 -0.23182971744E+02  0.27293185514E+02  0.00000000000E+00 0.  1.
         14    1    4    4    0    0 -0.11979453923E+03  0.72456361294E+02 -0.40255016304E+03  0.42620099682E+03  0.00000000000E+00 0. -1.
         -5    1    5    5    0  502  0.93660161875E+02 -0.55432124865E+02  0.70074911110E+02  0.12952810335E+03  0.47000000000E+01 0.  1.
         13    1    6    6    0    0 -0.44362577961E+01  0.38534555439E+02 -0.30319655605E+02  0.49232853483E+02  0.00000000000E+00 0. -1.
        -14    1    6    6    0    0  0.46045028665E+02 -0.14450806554E+02  0.12684585289E+02  0.49898588946E+02  0.00000000000E+00 0.  1.
<mgrwt>
<rscale>  2 0.22212543E+03</rscale>
<asrwt>0</asrwt>
<pdfrwt beam="1">  1       21 0.23848868E-01 0.22256516E+03</pdfrwt>
<pdfrwt beam="2">  1       21 0.14317267E+00 0.22256516E+03</pdfrwt>
<totfact> 0.54641841E+03</totfact>
</mgrwt>
</event>
<event>
12    1  0.1019868E-001  0.2529967E+03  0.7546771E-02  0.1111499E+00
         21   -1    0    0  501  502  0.00000000000E+00  0.00000000000E+00  0.50378416767E+03  0.50378416767E+03  0.00000000000E+00 0. -1.
         21   -1    0    0  502  503 -0.00000000000E+00 -0.00000000000E+00 -0.22908858705E+03  0.22908858705E+03  0.00000000000E+00 0. -1.
         -6    2    1    2    0  503 -0.18291590909E+03  0.24449298374E+02 -0.10741742535E+03  0.27485606337E+03  0.17306459579E+03 0.  0.
        -24    2    3    3    0    0 -0.16605444704E+03  0.70952124572E+02 -0.10821743291E+03  0.22516147857E+03  0.79864856360E+02 0.  0.
          6    2    1    2  501    0  0.18291590909E+03 -0.24449298374E+02  0.38211300596E+03  0.45801669135E+03  0.17237442456E+03 0.  0.
         24    2    5    5    0    0  0.10816151438E+03  0.43649273598E+02  0.14610005030E+03  0.20120968157E+03  0.74403890904E+02 0.  0.
          5    1    5    5  501    0  0.74754394708E+02 -0.68098571972E+02  0.23601295567E+03  0.25680700979E+03  0.47000000000E+01 0. -1.
        -11    1    6    6    0    0  0.75015983764E+01  0.32086869932E+02  0.59080933073E+02  0.67649078730E+02  0.00000000000E+00 0.  1.
         12    1    6    6    0    0  0.10065991600E+03  0.11562403665E+02  0.87019117224E+02  0.13356060284E+03  0.00000000000E+00 0. -1.
         -5    1    3    3    0  503 -0.16861462048E+02 -0.46502826198E+02  0.80000756816E+00  0.49694584805E+02  0.47000000000E+01 0.  1.
         13    1    4    4    0    0 -0.15395321607E+03  0.59486078919E+02 -0.62472818243E+02  0.17647390556E+03  0.00000000000E+00 0. -1.
        -14    1    4    4    0    0 -0.12101230963E+02  0.11466045653E+02 -0.45744614670E+02  0.48687573004E+02  0.00000000000E+00 0.  1.
<mgrwt>
<rscale>  2 0.25287876E+03</rscale>
<asrwt>0</asrwt>
<pdfrwt beam="1">  1       21 0.77505257E-01 0.25299674E+03</pdfrwt>
<pdfrwt beam="2">  1       21 0.35244398E-01 0.25299674E+03</pdfrwt>
<totfact> 0.11049019E+04</totfact>
</mgrwt>
</event>
<event>
12    1  0.1019868E-001  0.1808675E+03  0.7546771E-02  0.1167163E+00
         21   -1    0    0  503  502  0.00000000000E+00  0.00000000000E+00  0.79260867621E+03  0.79260867621E+03  0.00000000000E+00 0. -1.
         21   -1    0    0  501  503 -0.00000000000E+00 -0.00000000000E+00 -0.43271075541E+02  0.43271075541E+02  0.00000000000E+00 0. -1.
          6    2    1    2  501    0 -0.11274173738E+01 -0.51385303417E+02  0.28156973907E+03  0.33465588187E+03  0.17341084405E+03 0.  0.
         24    2    3    3    0    0  0.67411854524E+02 -0.29930560666E+02  0.17181050489E+03  0.20340376850E+03  0.80087744719E+02 0.  0.
         -6    2    1    2    0  502  0.11274173738E+01  0.51385303417E+02  0.46776786160E+03  0.50122386988E+03  0.17255977201E+03 0.  0.
        -24    2    5    5    0    0  0.60028592987E+02 -0.26233078252E+01  0.25495824523E+03  0.27385566323E+03  0.79893076992E+02 0.  0.
          5    1    3    3  501    0 -0.68539271898E+02 -0.21454742750E+02  0.10975923418E+03  0.13125211338E+03  0.47000000000E+01 0. -1.
        -13    1    4    4    0    0  0.58153674320E+02 -0.30112622165E+02  0.53039211223E+02  0.84272046241E+02  0.00000000000E+00 0.  1.
         14    1    4    4    0    0  0.92581802046E+01  0.18206149896E+00  0.11877129367E+03  0.11913172225E+03  0.00000000000E+00 0. -1.
         -5    1    5    5    0  502 -0.58901175614E+02  0.54008611242E+02  0.21280961637E+03  0.22736820665E+03  0.47000000000E+01 0.  1.
         11    1    6    6    0    0  0.67326080280E+02 -0.59151003270E+01  0.11298130277E+03  0.13165319698E+03  0.00000000000E+00 0. -1.
        -12    1    6    6    0    0 -0.72974872924E+01  0.32917925018E+01  0.14197694246E+03  0.14220246625E+03  0.00000000000E+00 0.  1.
<mgrwt>
<rscale>  2 0.18066317E+03</rscale>
<asrwt>0</asrwt>
<pdfrwt beam="1">  1       21 0.12193979E+00 0.18086747E+03</pdfrwt>
<pdfrwt beam="2">  1       21 0.66570891E-02 0.18086747E+03</pdfrwt>
<totfact> 0.84160550E+04</totfact>
</mgrwt>
</event>
<event>
12    1  0.1019868E-001  0.1935109E+03  0.7546771E-02  0.1158086E+00
         21   -1    0    0  501  502  0.00000000000E+00  0.00000000000E+00  0.42427304460E+03  0.42427304460E+03  0.00000000000E+00 0. -1.
         21   -1    0    0  502  503 -0.00000000000E+00 -0.00000000000E+00 -0.60312213838E+03  0.60312213838E+03  0.00000000000E+00 0. -1.
         -6    2    1    2    0  503  0.55482314441E+02  0.59870340824E+02 -0.56611298637E+03  0.59447511287E+03  0.16203086609E+03 0.  0.
        -24    2    3    3    0    0  0.13280879756E+02 -0.26690251254E+02 -0.26558321089E+03  0.27885836246E+03  0.79616538043E+02 0.  0.
          6    2    1    2  501    0 -0.55482314441E+02 -0.59870340824E+02  0.38726389259E+03  0.43292007011E+03  0.17545289872E+03 0.  0.
         24    2    5    5    0    0  0.14905362235E+02 -0.16511429228E+02  0.91214562960E+02  0.12550875636E+03  0.83291982263E+02 0.  0.
          5    1    5    5  501    0 -0.70387676676E+02 -0.43358911595E+02  0.29604932963E+03  0.30741131375E+03  0.47000000000E+01 0. -1.
        -13    1    6    6    0    0  0.95388916074E+00 -0.38176485016E+02  0.92122552610E+02  0.99724212768E+02  0.00000000000E+00 0.  1.
         14    1    6    6    0    0  0.13951473074E+02  0.21665055788E+02 -0.90798965009E+00  0.25784543596E+02  0.00000000000E+00 0. -1.
         -5    1    3    3    0  503  0.42201434685E+02  0.86560592077E+02 -0.30052977548E+03  0.31561675041E+03  0.47000000000E+01 0.  1.
         11    1    4    4    0    0 -0.27112764366E+01  0.16471690388E+02 -0.18732337673E+03  0.18806572009E+03  0.00000000000E+00 0. -1.
        -12    1    4    4    0    0  0.15992156193E+02 -0.43161941642E+02 -0.78259834159E+02  0.90792642371E+02  0.00000000000E+00 0.  1.
<mgrwt>
<rscale>  2 0.19041720E+03</rscale>
<asrwt>0</asrwt>
<pdfrwt beam="1">  1       21 0.65272776E-01 0.19351089E+03</pdfrwt>
<pdfrwt beam="2">  1       21 0.92788022E-01 0.19351089E+03</pdfrwt>
<totfact> 0.21122826E+03</totfact>
</mgrwt>
</event>
<event>
12    1  0.1019868E-001  0.2536439E+03  0.7546771E-02  0.1111087E+00
         21   -1    0    0  501  502  0.00000000000E+00  0.00000000000E+00  0.36101840537E+03  0.36101840537E+03  0.00000000000E+00 0.  1.
         21   -1    0    0  502  503 -0.00000000000E+00 -0.00000000000E+00 -0.36577811990E+03  0.36577811990E+03  0.00000000000E+00 0. -1.
         -6    2    1    2    0  503  0.98532150842E+02 -0.15623909485E+03 -0.26281131632E+03  0.36524654645E+03  0.17382753578E+03 0.  0.
        -24    2    3    3    0    0 -0.17743728204E+02 -0.52116372434E+02 -0.10024161869E+03  0.13983000322E+03  0.80455525089E+02 0.  0.
          6    2    1    2  501    0 -0.98532150842E+02  0.15623909485E+03  0.25805160179E+03  0.36154997882E+03  0.17322966978E+03 0.  0.
         24    2    5    5    0    0 -0.10912111103E+03  0.99334491943E+02  0.25223156865E+03  0.30318712509E+03  0.80789296523E+02 0.  0.
          5    1    5    5  501    0  0.10588960193E+02  0.56904602911E+02  0.58200331409E+01  0.58362853736E+02  0.47000000000E+01 0. -1.
        -11    1    6    6    0    0 -0.23705301248E+02  0.69846988533E+02  0.14710894436E+03  0.16456483411E+03  0.00000000000E+00 0.  1.
         12    1    6    6    0    0 -0.85415809787E+02  0.29487503410E+02  0.10512262429E+03  0.13862229098E+03  0.00000000000E+00 0. -1.
         -5    1    3    3    0  503  0.11627587905E+03 -0.10412272242E+03 -0.16256969764E+03  0.22541654323E+03  0.47000000000E+01 0.  1.
         11    1    4    4    0    0  0.19595085135E+02 -0.53311496290E+02 -0.77532913378E+02  0.96111579193E+02  0.00000000000E+00 0. -1.
        -12    1    4    4    0    0 -0.37338813339E+02  0.11951238561E+01 -0.22708705307E+02  0.43718424026E+02  0.00000000000E+00 0.  1.
<mgrwt>
<rscale>  2 0.25354155E+03</rscale>
<asrwt>0</asrwt>
<pdfrwt beam="1">  1       21 0.55541293E-01 0.25364395E+03</pdfrwt>
<pdfrwt beam="2">  1       21 0.56273557E-01 0.25364395E+03</pdfrwt>
<totfact> 0.87346904E+03</totfact>
</mgrwt>
</event>
<event>
12    1  0.1019868E-001  0.1784122E+03  0.7546771E-02  0.1169955E+00
         21   -1    0    0  501  502  0.00000000000E+00  0.00000000000E+00  0.26365639569E+03  0.26365639569E+03  0.00000000000E+00 0. -1.
         21   -1    0    0  502  503 -0.00000000000E+00 -0.00000000000E+00 -0.20513337980E+03  0.20513337980E+03  0.00000000000E+00 0. -1.
         -6    2    1    2    0  503  0.39690577756E+02  0.80762200320E+01 -0.12267749797E+03  0.21449755071E+03  0.17122751957E+03 0.  0.
        -24    2    3    3    0    0  0.40453879473E+02  0.68448055305E+02 -0.61452109668E+02  0.12838147035E+03  0.79898607667E+02 0.  0.
          6    2    1    2  501    0 -0.39690577756E+02 -0.80762200320E+01  0.18120051386E+03  0.25429222479E+03  0.17375368218E+03 0.  0.
         24    2    5    5    0    0  0.16221438336E+02 -0.37680455473E+02  0.37357363215E+02  0.97080564005E+02  0.79662485115E+02 0.  0.
          5    1    5    5  501    0 -0.55912016092E+02  0.29604235441E+02  0.14384315064E+03  0.15721166078E+03  0.47000000000E+01 0. -1.
        -11    1    6    6    0    0  0.26890100192E+02  0.14391175497E+02  0.31101871209E+02  0.43560415669E+02  0.00000000000E+00 0.  1.
         12    1    6    6    0    0 -0.10668661857E+02 -0.52071630970E+02  0.62554920059E+01  0.53520148336E+02  0.00000000000E+00 0. -1.
         -5    1    3    3    0  503 -0.76330171675E+00 -0.60371835273E+02 -0.61225388300E+02  0.86116080358E+02  0.47000000000E+01 0.  1.
         11    1    4    4    0    0  0.14369484373E+02 -0.34985808531E+01 -0.48574980604E+02  0.50776479691E+02  0.00000000000E+00 0. -1.
        -12    1    4    4    0    0  0.26084395100E+02  0.71946636158E+02 -0.12877129064E+02  0.77604990659E+02  0.00000000000E+00 0.  1.
<mgrwt>
<rscale>  2 0.17779417E+03</rscale>
<asrwt>0</asrwt>
<pdfrwt beam="1">  1       21 0.40562522E-01 0.17841219E+03</pdfrwt>
<pdfrwt beam="2">  1       21 0.31558982E-01 0.17841219E+03</pdfrwt>
<totfact> 0.56883363E+04</totfact>
</mgrwt>
</event>
<event>
12    1  0.1019868E-001  0.2502394E+03  0.7546771E-02  0.1113357E+00
         21   -1    0    0  503  502  0.00000000000E+00  0.00000000000E+00  0.32435790463E+03  0.32435790463E+03  0.00000000000E+00 0.  1.
         21   -1    0    0  501  503 -0.00000000000E+00 -0.00000000000E+00 -0.19357914147E+03  0.19357914147E+03  0.00000000000E+00 0. -1.
          6    2    1    2  501    0 -0.12640221118E+03  0.12623941569E+03  0.42687909886E+02  0.25385429546E+03  0.17523080953E+03 0.  0.
         24    2    3    3    0    0 -0.57658664836E+02  0.14592432478E+03  0.15639691899E+02  0.17725881971E+03  0.80979373964E+02 0.  0.
         -6    2    1    2    0  502  0.12640221118E+03 -0.12623941569E+03  0.88090853281E+02  0.26408275064E+03  0.17339490099E+03 0.  0.
        -24    2    5    5    0    0  0.12041420331E+02 -0.77183401668E+02  0.87096293762E+02  0.13955178202E+03  0.76070113595E+02 0.  0.
          5    1    3    3  501    0 -0.68743546346E+02 -0.19684909090E+02  0.27048217987E+02  0.76595475757E+02  0.47000000000E+01 0. -1.
        -13    1    4    4    0    0 -0.58076164656E+02  0.39820114508E+02  0.42585546603E+01  0.70545146597E+02  0.00000000000E+00 0.  1.
         14    1    4    4    0    0  0.41749981967E+00  0.10610421027E+03  0.11381137238E+02  0.10671367311E+03  0.00000000000E+00 0. -1.
         -5    1    5    5    0  502  0.11436079085E+03 -0.49056014021E+02  0.99455951874E+00  0.12453096862E+03  0.47000000000E+01 0.  1.
         13    1    6    6    0    0 -0.55444569025E+01 -0.13766973894E+02  0.70002304248E+02  0.71558320079E+02  0.00000000000E+00 0. -1.
        -14    1    6    6    0    0  0.17585877234E+02 -0.63416427774E+02  0.17093989514E+02  0.67993461945E+02  0.00000000000E+00 0.  1.
<mgrwt>
<rscale>  2 0.24991822E+03</rscale>
<asrwt>0</asrwt>
<pdfrwt beam="1">  1       21 0.49901216E-01 0.25023938E+03</pdfrwt>
<pdfrwt beam="2">  1       21 0.29781406E-01 0.25023938E+03</pdfrwt>
<totfact> 0.40257392E+04</totfact>
</mgrwt>
</event>
<event>
12    1  0.1019868E-001  0.2171806E+03  0.7546771E-02  0.1136012E+00
         21   -1    0    0  503  502  0.00000000000E+00  0.00000000000E+00  0.27237434474E+03  0.27237434474E+03  0.00000000000E+00 0.  1.
         21   -1    0    0  501  503 -0.00000000000E+00 -0.00000000000E+00 -0.46423768890E+03  0.46423768890E+03  0.00000000000E+00 0.  1.
          6    2    1    2  501    0 -0.13988686653E+02 -0.12936576619E+03 -0.38758733128E+03  0.44428744767E+03  0.17388562899E+03 0.  0.
         24    2    3    3    0    0  0.89782303890E+01 -0.82667853731E+02 -0.37180958085E+03  0.38970538363E+03  0.81934967854E+02 0.  0.
         -6    2    1    2    0  502  0.13988686653E+02  0.12936576619E+03  0.19572398712E+03  0.29232458598E+03  0.17382347258E+03 0.  0.
        -24    2    5    5    0    0  0.26891747001E+02  0.18732423555E+02  0.27998788975E+02  0.90929309072E+02  0.80063333150E+02 0.  0.
          5    1    3    3  501    0 -0.22966917042E+02 -0.46697912455E+02 -0.15777750438E+02  0.54582064041E+02  0.47000000000E+01 0. -1.
        -13    1    4    4    0    0  0.16953794679E+02 -0.43570957313E+02 -0.63664291226E+02  0.78987349953E+02  0.00000000000E+00 0.  1.
         14    1    4    4    0    0 -0.79755642903E+01 -0.39096896418E+02 -0.30814528962E+03  0.31071803367E+03  0.00000000000E+00 0. -1.
         -5    1    5    5    0  502 -0.12903060349E+02  0.11063334263E+03  0.16772519814E+03  0.20139527690E+03  0.47000000000E+01 0.  1.
         13    1    6    6    0    0  0.29334447116E+02  0.67976507966E+01  0.54217759827E+02  0.62018411175E+02  0.00000000000E+00 0. -1.
        -14    1    6    6    0    0 -0.24427001147E+01  0.11934772759E+02 -0.26218970852E+02  0.28910897897E+02  0.00000000000E+00 0.  1.
<mgrwt>
<rscale>  2 0.21716812E+03</rscale>
<asrwt>0</asrwt>
<pdfrwt beam="1">  1       21 0.41903746E-01 0.21718056E+03</pdfrwt>
<pdfrwt beam="2">  1       21 0.71421182E-01 0.21718056E+03</pdfrwt>
<totfact> 0.95558573E+03</totfact>
</mgrwt>
</event>
<event>
12    1  0.1019868E-001  0.2644502E+03  0.7546771E-02  0.1104593E+00
         21   -1    0    0  501  502  0.00000000000E+00  0.00000000000E+00  0.19605933982E+04  0.19605933982E+04  0.00000000000E+00 0.  1.
         21   -1    0    0  502  503 -0.00000000000E+00 -0.00000000000E+00 -0.37106833761E+02  0.37106833761E+02  0.00000000000E+00 0. -1.
         -6    2    1    2    0  503 -0.18147827686E+02 -0.19971816608E+03  0.75826067095E+03  0.80284238428E+03  0.17140583235E+03 0.  0.
        -24    2    3    3    0    0  0.53778183423E+02 -0.11029252561E+03  0.36202449656E+03  0.39029482078E+03  0.78814826025E+02 0.  0.
          6    2    1    2  501    0  0.18147827686E+02  0.19971816608E+03  0.11652258935E+04  0.11948578477E+04  0.17238678550E+03 0.  0.
         24    2    5    5    0    0  0.22345953657E+02  0.21588637704E+03  0.93915422726E+03  0.96812116434E+03  0.90231129972E+02 0.  0.
          5    1    5    5  501    0 -0.41981259714E+01 -0.16168210955E+02  0.22607166627E+03  0.22673668340E+03  0.47000000000E+01 0. -1.
        -13    1    6    6    0    0  0.35512920255E+02  0.46901288293E+02  0.35620962744E+03  0.36103489725E+03  0.00000000000E+00 0.  1.
         14    1    6    6    0    0 -0.13166966598E+02  0.16898508874E+03  0.58294459982E+03  0.60708626709E+03  0.00000000000E+00 0. -1.
         -5    1    3    3    0  503 -0.71926011109E+02 -0.89425640475E+02  0.39623617439E+03  0.41254756349E+03  0.47000000000E+01 0.  1.
         11    1    4    4    0    0 -0.87096323806E+01 -0.51834546961E+02  0.81235088641E+02  0.96756485991E+02  0.00000000000E+00 0. -1.
        -12    1    4    4    0    0  0.62487815804E+02 -0.58457978646E+02  0.28078940792E+03  0.29353833479E+03  0.00000000000E+00 0.  1.
<mgrwt>
<rscale>  2 0.26429043E+03</rscale>
<asrwt>0</asrwt>
<pdfrwt beam="1">  1       21 0.30162967E+00 0.26445017E+03</pdfrwt>
<pdfrwt beam="2">  1       21 0.57087452E-02 0.26445017E+03</pdfrwt>
<totfact> 0.66917367E+03</totfact>
</mgrwt>
</event>
<event>
12    1  0.1019868E-001  0.1927102E+03  0.7546771E-02  0.1158015E+00
         21   -1    0    0  503  502  0.00000000000E+00  0.00000000000E+00  0.43888573852E+03  0.43888573852E+03  0.00000000000E+00 0. -1.
         21   -1    0    0  501  503 -0.00000000000E+00 -0.00000000000E+00 -0.81547802510E+02  0.81547802510E+02  0.00000000000E+00 0. -1.
          6    2    1    2  501    0  0.30778495257E+02 -0.56130922154E+02  0.20703222898E+03  0.28284197169E+03  0.18176699623E+03 0.  0.
         24    2    3    3    0    0  0.82614208560E+02 -0.72328162650E+02  0.14038367930E+03  0.19674080475E+03  0.83324043782E+02 0.  0.
         -6    2    1    2    0  502 -0.30778495257E+02  0.56130922154E+02  0.15030570703E+03  0.23759156934E+03  0.17251073029E+03 0.  0.
        -24    2    5    5    0    0 -0.29976458731E+02 -0.17071105706E+02  0.22561147474E+02  0.90282565402E+02  0.80323878841E+02 0.  0.
          5    1    3    3  501    0 -0.51835713304E+02  0.16197240497E+02  0.66648549674E+02  0.86101166932E+02  0.47000000000E+01 0. -1.
        -11    1    4    4    0    0  0.69398817566E+02 -0.91207042684E+02  0.12057250071E+03  0.16635097968E+03  0.00000000000E+00 0.  1.
         12    1    4    4    0    0  0.13215390994E+02  0.18878880034E+02  0.19811178594E+02  0.30389825069E+02  0.00000000000E+00 0. -1.
         -5    1    5    5    0  502 -0.80203652520E+00  0.73202027860E+02  0.12774455956E+03  0.14730900394E+03  0.47000000000E+01 0.  1.
         13    1    6    6    0    0  0.85270875540E+01  0.27327036251E+02  0.83702751916E+01  0.29825151118E+02  0.00000000000E+00 0. -1.
        -14    1    6    6    0    0 -0.38503546285E+02 -0.44398141957E+02  0.14190872283E+02  0.60457414284E+02  0.00000000000E+00 0.  1.
<mgrwt>
<rscale>  2 0.19049614E+03</rscale>
<asrwt>0</asrwt>
<pdfrwt beam="1">  1       21 0.67520882E-01 0.19271024E+03</pdfrwt>
<pdfrwt beam="2">  1       21 0.12545816E-01 0.19271024E+03</pdfrwt>
<totfact> 0.10868707E+05</totfact>
</mgrwt>
</event>
<event>
12    1  0.1019868E-001  0.2017149E+03  0.7546771E-02  0.1150658E+00
         21   -1    0    0  501  502  0.00000000000E+00  0.00000000000E+00  0.50401773406E+02  0.50401773406E+02  0.00000000000E+00 0. -1.
         21   -1    0    0  502  503 -0.00000000000E+00 -0.00000000000E+00 -0.76806323998E+03  0.76806323998E+03  0.00000000000E+00 0. -1.
         -6    2    1    2    0  503 -0.79880084943E+02  0.66794304361E+02 -0.37866687518E+03  0.42399543201E+03  0.15981619738E+03 0.  0.
        -24    2    3    3    0    0 -0.53415762302E+02 -0.20060386349E+02 -0.21246879777E+03  0.23455417831E+03  0.81345004594E+02 0.  0.
          6    2    1    2  501    0  0.79880084943E+02 -0.66794304361E+02 -0.33899459140E+03  0.39446958138E+03  0.17276171616E+03 0.  0.
         24    2    5    5    0    0 -0.18127751459E+02 -0.29169537910E+02 -0.21417059172E+03  0.23130009911E+03  0.80319463254E+02 0.  0.
          5    1    5    5  501    0  0.98007836402E+02 -0.37624766451E+02 -0.12482399968E+03  0.16316948227E+03  0.47000000000E+01 0. -1.
        -13    1    6    6    0    0  0.14637292647E+02 -0.37280380469E+02 -0.51903544275E+02  0.65559553173E+02  0.00000000000E+00 0.  1.
         14    1    6    6    0    0 -0.32765044106E+02  0.81108425588E+01 -0.16226704744E+03  0.16574054594E+03  0.00000000000E+00 0. -1.
         -5    1    3    3    0  503 -0.26464322641E+02  0.86854690710E+02 -0.16619807741E+03  0.18944125371E+03  0.47000000000E+01 0.  1.
         13    1    4    4    0    0 -0.23458856913E+02 -0.11339592381E+02 -0.73452728440E+01  0.27071338279E+02  0.00000000000E+00 0. -1.
        -14    1    4    4    0    0 -0.29956905389E+02 -0.87207939677E+01 -0.20512352493E+03  0.20748284003E+03  0.00000000000E+00 0.  1.
<mgrwt>
<rscale>  2 0.19891459E+03</rscale>
<asrwt>0</asrwt>
<pdfrwt beam="1">  1       21 0.77541192E-02 0.20171494E+03</pdfrwt>
<pdfrwt beam="2">  1       21 0.11816357E+00 0.20171494E+03</pdfrwt>
<totfact> 0.69201005E+04</totfact>
</mgrwt>
</event>
<event>
12    1  0.1019868E-001  0.2028152E+03  0.7546771E-02  0.1147635E+00
         21   -1    0    0  501  502  0.00000000000E+00  0.00000000000E+00  0.98333471670E+02  0.98333471670E+02  0.00000000000E+00 0. -1.
         21   -1    0    0  502  503 -0.00000000000E+00 -0.00000000000E+00 -0.41655400472E+03  0.41655400472E+03  0.00000000000E+00 0. -1.
         -6    2    1    2    0  503 -0.38142313406E+02 -0.10004384262E+03 -0.14793774690E+03  0.25006634559E+03  0.17083323366E+03 0.  0.
        -24    2    3    3    0    0 -0.71278902552E+02 -0.10850323898E+03 -0.76204367032E+02  0.17045879121E+03  0.79971614514E+02 0.  0.
          6    2    1    2  501    0  0.38142313406E+02  0.10004384262E+03 -0.17028278615E+03  0.26482113080E+03  0.17225097253E+03 0.  0.
         24    2    5    5    0    0  0.38772953530E+02  0.12953072186E+03 -0.17367788229E+03  0.23476301322E+03  0.81658531400E+02 0.  0.
          5    1    5    5  501    0 -0.63064012323E+00 -0.29486879239E+02  0.33950961385E+01  0.30058117573E+02  0.47000000000E+01 0. -1.
        -11    1    6    6    0    0  0.11707562261E+02 -0.86296585867E+01 -0.31393068313E+02  0.34598594762E+02  0.00000000000E+00 0.  1.
         12    1    6    6    0    0  0.27065391269E+02  0.13816038045E+03 -0.14228481397E+03  0.20016441846E+03  0.00000000000E+00 0. -1.
         -5    1    3    3    0  503  0.33136589146E+02  0.84593963608E+01 -0.71733379867E+02  0.79607554379E+02  0.47000000000E+01 0.  1.
         13    1    4    4    0    0 -0.21793991499E+02 -0.79238454144E+02 -0.77490780040E+02  0.11295367047E+03  0.00000000000E+00 0. -1.
        -14    1    4    4    0    0 -0.49484911053E+02 -0.29264784840E+02  0.12864130079E+01  0.57505120747E+02  0.00000000000E+00 0.  1.
<mgrwt>
<rscale>  2 0.20251385E+03</rscale>
<asrwt>0</asrwt>
<pdfrwt beam="1">  1       21 0.15128226E-01 0.20281520E+03</pdfrwt>
<pdfrwt beam="2">  1       21 0.64085233E-01 0.20281520E+03</pdfrwt>
<totfact> 0.86439827E+04</totfact>
</mgrwt>
</event>
<event>
12    1  0.1019868E-001  0.1929888E+03  0.7546771E-02  0.1155992E+00
         21   -1    0    0  503  502  0.00000000000E+00  0.00000000000E+00  0.71062854291E+03  0.71062854291E+03  0.00000000000E+00 0.  1.
         21   -1    0    0  501  503 -0.00000000000E+00 -0.00000000000E+00 -0.63573655429E+02  0.63573655429E+02  0.00000000000E+00 0.  1.
          6    2    1    2  501    0 -0.95364581290E+01  0.84763155077E+02  0.15893975939E+03  0.24932027209E+03  0.17211337679E+03 0.  0.
         24    2    3    3    0    0 -0.22140972399E+02  0.67204347649E+02  0.18590205086E+03  0.21444563002E+03  0.80129324968E+02 0.  0.
         -6    2    1    2    0  502  0.95364581290E+01 -0.84763155077E+02  0.48811512809E+03  0.52488192624E+03  0.17311534229E+03 0.  0.
        -24    2    5    5    0    0  0.51307361477E+02 -0.24374543557E+02  0.15346127298E+03  0.18223504459E+03  0.80204023943E+02 0.  0.
          5    1    3    3  501    0  0.12604514270E+02  0.17558807427E+02 -0.26962291470E+02  0.34874642071E+02  0.47000000000E+01 0. -1.
        -11    1    4    4    0    0 -0.45082839516E+02  0.52397801202E+02  0.16834380581E+03  0.18198249626E+03  0.00000000000E+00 0.  1.
         12    1    4    4    0    0  0.22941867117E+02  0.14806546447E+02  0.17558245048E+02  0.32463133762E+02  0.00000000000E+00 0. -1.
         -5    1    5    5    0  502 -0.41770903348E+02 -0.60388611520E+02  0.33465385511E+03  0.34264688166E+03  0.47000000000E+01 0.  1.
         11    1    6    6    0    0  0.11406434279E+02  0.27770390896E+02  0.30239760051E+02  0.42611552910E+02  0.00000000000E+00 0. -1.
        -12    1    6    6    0    0  0.39900927197E+02 -0.52144934453E+02  0.12322151293E+03  0.13962349168E+03  0.00000000000E+00 0.  1.
<mgrwt>
<rscale>  2 0.19276379E+03</rscale>
<asrwt>0</asrwt>
<pdfrwt beam="1">  1       21 0.10932746E+00 0.19298875E+03</pdfrwt>
<pdfrwt beam="2">  1       21 0.97805628E-02 0.19298875E+03</pdfrwt>
<totfact> 0.55930907E+04</totfact>
</mgrwt>
</event>
<event>
12    1  0.1019868E-001  0.2724558E+03  0.7546771E-02  0.1099913E+00
         21   -1    0    0  503  502  0.00000000000E+00  0.00000000000E+00  0.14543519889E+03  0.14543519889E+03  0.00000000000E+00 0. -1.
         21   -1    0    0  501  503 -0.00000000000E+00 -0.00000000000E+00 -0.61368697897E+03  0.61368697897E+03  0.00000000000E+00 0.  1.
          6    2    1    2  501    0  0.10661058441E+03 -0.18091975668E+03 -0.39021593704E+03  0.47592084011E+03  0.17359260775E+03 0.  0.
         24    2    3    3    0    0  0.12812550513E+03 -0.13884561223E+03 -0.22808610414E+03  0.30697913963E+03  0.80738294288E+02 0.  0.
         -6    2    1    2    0  502 -0.10661058441E+03  0.18091975668E+03 -0.78035843042E+02  0.28320133775E+03  0.17325019433E+03 0.  0.
        -24    2    5    5    0    0  0.79884373600E+01  0.30035009144E+02 -0.67857743541E+01  0.80722190376E+02  0.74189678391E+02 0.  0.
          5    1    3    3  501    0 -0.21514920719E+02 -0.42074144452E+02 -0.16212983290E+03  0.16894170048E+03  0.47000000000E+01 0. -1.
        -11    1    4    4    0    0  0.38498196636E+02 -0.17103561215E+02 -0.10117465340E+03  0.10959449549E+03  0.00000000000E+00 0.  1.
         12    1    4    4    0    0  0.89627308497E+02 -0.12174205102E+03 -0.12691145074E+03  0.19738464414E+03  0.00000000000E+00 0. -1.
         -5    1    5    5    0  502 -0.11459902177E+03  0.15088474754E+03 -0.71250068688E+02  0.20247914737E+03  0.47000000000E+01 0.  1.
         13    1    6    6    0    0 -0.25092476173E+02  0.37033539350E+02 -0.12459052961E+02  0.46436444717E+02  0.00000000000E+00 0. -1.
        -14    1    6    6    0    0  0.33080913533E+02 -0.69985302058E+01  0.56732786071E+01  0.34285745659E+02  0.00000000000E+00 0.  1.
<mgrwt>
<rscale>  2 0.27240128E+03</rscale>
<asrwt>0</asrwt>
<pdfrwt beam="1">  1       21 0.22374646E-01 0.27245581E+03</pdfrwt>
<pdfrwt beam="2">  1       21 0.94413380E-01 0.27245581E+03</pdfrwt>
<totfact> 0.16815699E+04</totfact>
</mgrwt>
</event>
<event>
12    1  0.1019868E-001  0.2216058E+03  0.7546771E-02  0.1133274E+00
         21   -1    0    0  501  502  0.00000000000E+00  0.00000000000E+00  0.36839508407E+03  0.36839508407E+03  0.00000000000E+00 0.  1.
         21   -1    0    0  502  503 -0.00000000000E+00 -0.00000000000E+00 -0.18561673475E+03  0.18561673475E+03  0.00000000000E+00 0.  1.
         -6    2    1    2    0  503  0.12407302268E+03  0.25498780483E+02 -0.58737365184E+02  0.22623297950E+03  0.17800837110E+03 0.  0.
        -24    2    3    3    0    0  0.12473591612E+02  0.36853681849E+02 -0.69152787452E+02  0.11347688068E+03  0.81124041343E+02 0.  0.
          6    2    1    2  501    0 -0.12407302268E+03 -0.25498780483E+02  0.24151571451E+03  0.32777883932E+03  0.18183735698E+03 0.  0.
         24    2    5    5    0    0 -0.14130310083E+03  0.16031264765E+02  0.22743855327E+03  0.28043037874E+03  0.81788349127E+02 0.  0.
          5    1    5    5  501    0  0.17230078145E+02 -0.41530045248E+02  0.14077161232E+02  0.47348460582E+02  0.47000000000E+01 0. -1.
        -11    1    6    6    0    0 -0.13473168927E+03  0.38510495460E+02  0.18665253481E+03  0.23339848993E+03  0.00000000000E+00 0.  1.
         12    1    6    6    0    0 -0.65714115590E+01 -0.22479230695E+02  0.40786018467E+02  0.47031888808E+02  0.00000000000E+00 0. -1.
         -5    1    3    3    0  503  0.11159943107E+03 -0.11354901366E+02  0.10415422268E+02  0.11275609882E+03  0.47000000000E+01 0.  1.
         13    1    4    4    0    0 -0.91205421128E+01  0.40683088835E+02 -0.80923305477E+00  0.41700753755E+02  0.00000000000E+00 0. -1.
        -14    1    4    4    0    0  0.21594133725E+02 -0.38294069862E+01 -0.68343554397E+02  0.71776126928E+02  0.00000000000E+00 0.  1.
<mgrwt>
<rscale>  2 0.22081889E+03</rscale>
<asrwt>0</asrwt>
<pdfrwt beam="1">  1       21 0.56676167E-01 0.22160579E+03</pdfrwt>
<pdfrwt beam="2">  1       21 0.28556421E-01 0.22160579E+03</pdfrwt>
<totfact> 0.33813221E+04</totfact>
</mgrwt>
</event>
<event>
12    1  0.1019868E-001  0.1978040E+03  0.7546771E-02  0.1151702E+00
         21   -1    0    0  501  502  0.00000000000E+00  0.00000000000E+00  0.96430171869E+03  0.96430171869E+03  0.00000000000E+00 0.  1.
         21   -1    0    0  502  503 -0.00000000000E+00 -0.00000000000E+00 -0.40929196374E+02  0.40929196374E+02  0.00000000000E+00 0.  1.
         -6    2    1    2    0  503  0.37871533653E+02  0.86095736795E+02  0.40863102499E+03  0.45379167700E+03  0.17349594399E+03 0.  0.
        -24    2    3    3    0    0  0.74394099790E+02  0.26024428012E+01  0.21711262273E+03  0.24164451963E+03  0.75583914463E+02 0.  0.
          6    2    1    2  501    0 -0.37871533653E+02 -0.86095736795E+02  0.51474149733E+03  0.55143923806E+03  0.17401061820E+03 0.  0.
         24    2    5    5    0    0 -0.52424473328E+02  0.11903214321E+02  0.23171766434E+03  0.25153898379E+03  0.81784915992E+02 0.  0.
          5    1    5    5  501    0  0.14552939676E+02 -0.97998951116E+02  0.28302383299E+03  0.29990025428E+03  0.47000000000E+01 0. -1.
        -11    1    6    6    0    0  0.18031184017E+02 -0.13817101711E+02  0.48148664222E+02  0.53238423748E+02  0.00000000000E+00 0.  1.
         12    1    6    6    0    0 -0.70455657345E+02  0.25720316032E+02  0.18356900012E+03  0.19830056004E+03  0.00000000000E+00 0. -1.
         -5    1    3    3    0  503 -0.36522566137E+02  0.83493293993E+02  0.19151840226E+03  0.21214715738E+03  0.47000000000E+01 0.  1.
         13    1    4    4    0    0  0.58470160604E+02  0.27172605218E+02  0.87051749772E+02  0.10832874639E+03  0.00000000000E+00 0. -1.
        -14    1    4    4    0    0  0.15923939186E+02 -0.24570162417E+02  0.13006087296E+03  0.13331577324E+03  0.00000000000E+00 0.  1.
<mgrwt>
<rscale>  2 0.19769075E+03</rscale>
<asrwt>0</asrwt>
<pdfrwt beam="1">  1       21 0.14835409E+00 0.19780400E+03</pdfrwt>
<pdfrwt beam="2">  1       21 0.62968002E-02 0.19780400E+03</pdfrwt>
<totfact> 0.55692475E+04</totfact>
</mgrwt>
</event>
<event>
12    1  0.1019868E-001  0.2017476E+03  0.7546771E-02  0.1148624E+00
         21   -1    0    0  501  502  0.00000000000E+00  0.00000000000E+00  0.23031114641E+03  0.23031114641E+03  0.00000000000E+00 0.  1.
         21   -1    0    0  502  503 -0.00000000000E+00 -0.00000000000E+00 -0.18146040569E+03  0.18146040569E+03  0.00000000000E+00 0. -1.
         -6    2    1    2    0  503 -0.38509473738E+02  0.93097382519E+02  0.62583111502E+02  0.21123149582E+03  0.17479129492E+03 0.  0.
        -24    2    3    3    0    0  0.29503123080E+02  0.64128611047E+02 -0.11425052747E+02  0.10652141310E+03  0.78951672515E+02 0.  0.
          6    2    1    2  501    0  0.38509473738E+02 -0.93097382519E+02 -0.13732370785E+02  0.20054005629E+03  0.17285147951E+03 0.  0.
         24    2    5    5    0    0  0.35480635471E+02  0.13911794512E+02  0.70653528190E+01  0.91385243581E+02  0.82758262512E+02 0.  0.
          5    1    5    5  501    0  0.30288382668E+01 -0.10700917703E+03 -0.20797723604E+02  0.10915481271E+03  0.47000000000E+01 0. -1.
        -11    1    6    6    0    0  0.41793226471E+02  0.32679059738E+02  0.30110594025E+02  0.61001988465E+02  0.00000000000E+00 0.  1.
         12    1    6    6    0    0 -0.63125909998E+01 -0.18767265226E+02 -0.23045241206E+02  0.30383255116E+02  0.00000000000E+00 0. -1.
         -5    1    3    3    0  503 -0.68012596817E+02  0.28968771471E+02  0.74008164249E+02  0.10471008271E+03  0.47000000000E+01 0.  1.
         11    1    4    4    0    0 -0.38976370977E+01  0.67990142687E+02 -0.21510508775E+02  0.71418156412E+02  0.00000000000E+00 0. -1.
        -12    1    4    4    0    0  0.33400760177E+02 -0.38615316401E+01  0.10085456028E+02  0.35103256691E+02  0.00000000000E+00 0.  1.
<mgrwt>
<rscale>  2 0.20132673E+03</rscale>
<asrwt>0</asrwt>
<pdfrwt beam="1">  1       21 0.35432484E-01 0.20174761E+03</pdfrwt>
<pdfrwt beam="2">  1       21 0.27916985E-01 0.20174761E+03</pdfrwt>
<totfact> 0.93754247E+04</totfact>
</mgrwt>
</event>
<event>
12    1  0.1019868E-001  0.2442420E+03  0.7546771E-02  0.1117207E+00
         21   -1    0    0  501  502  0.00000000000E+00  0.00000000000E+00  0.17444947752E+04  0.17444947752E+04  0.00000000000E+00 0. -1.
         21   -1    0    0  502  503 -0.00000000000E+00 -0.00000000000E+00 -0.35910792295E+02  0.35910792295E+02  0.00000000000E+00 0.  1.
         -6    2    1    2    0  503  0.11047391537E+03  0.13146921861E+03  0.64777731667E+03  0.69184461307E+03  0.17188622753E+03 0.  0.
        -24    2    3    3    0    0  0.80388229920E+02  0.57499720608E+02  0.22368284332E+03  0.26027208448E+03  0.89101392716E+02 0.  0.
          6    2    1    2  501    0 -0.11047391537E+03 -0.13146921861E+03  0.10608066662E+04  0.10885609544E+04  0.17368225862E+03 0.  0.
         24    2    5    5    0    0 -0.44292847564E+02 -0.16073705993E+01  0.53604890963E+03  0.54391719340E+03  0.80827221783E+02 0.  0.
          5    1    5    5  501    0 -0.66181067808E+02 -0.12986184801E+03  0.52475775656E+03  0.54464376098E+03  0.47000000000E+01 0. -1.
        -13    1    6    6    0    0 -0.27724621208E+02  0.19405970217E+02  0.77236573679E+02  0.84325171894E+02  0.00000000000E+00 0.  1.
         14    1    6    6    0    0 -0.16568226356E+02 -0.21013340816E+02  0.45881233595E+03  0.45959202151E+03  0.00000000000E+00 0. -1.
         -5    1    3    3    0  503  0.30085685453E+02  0.73969498000E+02  0.42409447335E+03  0.43157252858E+03  0.47000000000E+01 0.  1.
         13    1    4    4    0    0  0.16349690132E+02  0.15221329258E+02  0.15708875763E+03  0.15866908648E+03  0.00000000000E+00 0. -1.
        -14    1    4    4    0    0  0.64038539788E+02  0.42278391350E+02  0.66594085699E+02  0.10160299800E+03  0.00000000000E+00 0.  1.
<mgrwt>
<rscale>  2 0.24392293E+03</rscale>
<asrwt>0</asrwt>
<pdfrwt beam="1">  1       21 0.26838375E+00 0.24424203E+03</pdfrwt>
<pdfrwt beam="2">  1       21 0.55247386E-02 0.24424203E+03</pdfrwt>
<totfact> 0.11263526E+04</totfact>
</mgrwt>
</event>
<event>
12    1  0.1019868E-001  0.2199981E+03  0.7546771E-02  0.1133900E+00
         21   -1    0    0  503  502  0.00000000000E+00  0.00000000000E+00  0.28808621958E+03  0.28808621958E+03  0.00000000000E+00 0.  1.
         21   -1    0    0  501  503 -0.00000000000E+00 -0.00000000000E+00 -0.17061057839E+03  0.17061057839E+03  0.00000000000E+00 0.  1.
          6    2    1    2  501    0  0.13363271163E+03 -0.19938598374E+02  0.30039307259E+02  0.22203949576E+03  0.17362006904E+03 0.  0.
         24    2    3    3    0    0  0.93449159525E+02 -0.36534122567E+02  0.84103346183E+02  0.15250432777E+03  0.78209395987E+02 0.  0.
         -6    2    1    2    0  502 -0.13363271163E+03  0.19938598374E+02  0.87436333929E+02  0.23665730220E+03  0.17351171970E+03 0.  0.
        -24    2    5    5    0    0 -0.82664654738E+00  0.87463950429E+01  0.12713572771E+02  0.83790375198E+02  0.82352955456E+02 0.  0.
          5    1    3    3  501    0  0.40183552102E+02  0.16595524194E+02 -0.54064038924E+02  0.69535167991E+02  0.47000000000E+01 0. -1.
        -11    1    4    4    0    0  0.93744703749E+02 -0.53721014967E+02  0.62233666549E+02  0.12468779484E+03  0.00000000000E+00 0.  1.
         12    1    4    4    0    0 -0.29554422349E+00  0.17186892400E+02  0.21869679634E+02  0.27816532926E+02  0.00000000000E+00 0. -1.
         -5    1    5    5    0  502 -0.13280606508E+03  0.11192203331E+02  0.74722761159E+02  0.15286692701E+03  0.47000000000E+01 0.  1.
         11    1    6    6    0    0 -0.21464493239E+02  0.11659957187E+02 -0.28542738309E+02  0.37568164472E+02  0.00000000000E+00 0. -1.
        -12    1    6    6    0    0  0.20637846692E+02 -0.29135621442E+01  0.41256311080E+02  0.46222210725E+02  0.00000000000E+00 0.  1.
<mgrwt>
<rscale>  2 0.21997675E+03</rscale>
<asrwt>0</asrwt>
<pdfrwt beam="1">  1       21 0.44320957E-01 0.21999813E+03</pdfrwt>
<pdfrwt beam="2">  1       21 0.26247781E-01 0.21999813E+03</pdfrwt>
<totfact> 0.66651532E+04</totfact>
</mgrwt>
</event>
<event>
12    1  0.1019868E-001  0.1754504E+03  0.7546771E-02  0.1172446E+00
         21   -1    0    0  503  502  0.00000000000E+00  0.00000000000E+00  0.19320378324E+03  0.19320378324E+03  0.00000000000E+00 0.  1.
         21   -1    0    0  501  503 -0.00000000000E+00 -0.00000000000E+00 -0.29658326052E+03  0.29658326052E+03  0.00000000000E+00 0.  1.
          6    2    1    2  501    0 -0.13999447853E+02  0.22346324939E+02 -0.21870373640E+03  0.28038220943E+03  0.17345753449E+03 0.  0.
         24    2    3    3    0    0 -0.75994548384E+02 -0.16018305369E+02 -0.14642111878E+03  0.17761011128E+03  0.63831419480E+02 0.  0.
         -6    2    1    2    0  502  0.13999447853E+02 -0.22346324939E+02  0.11532425912E+03  0.20940483434E+03  0.17278702823E+03 0.  0.
        -24    2    5    5    0    0 -0.45513469389E+02  0.80437062603E+01  0.26343537349E+02  0.98027097954E+02  0.82335611172E+02 0.  0.
          5    1    3    3  501    0  0.61995100530E+02  0.38364630308E+02 -0.72282617625E+02  0.10277209816E+03  0.47000000000E+01 0. -1.
        -11    1    4    4    0    0 -0.71670990110E+02 -0.26527663474E+01 -0.14698723389E+03  0.16355126083E+03  0.00000000000E+00 0.  1.
         12    1    4    4    0    0 -0.43235582732E+01 -0.13365539022E+02  0.56611511502E+00  0.14058850444E+02  0.00000000000E+00 0. -1.
         -5    1    5    5    0  502  0.59512917243E+02 -0.30390031199E+02  0.88980721771E+02  0.11137773638E+03  0.47000000000E+01 0.  1.
         13    1    6    6    0    0  0.16075521810E+02  0.24470634529E+02  0.60538300272E+00  0.29284822763E+02  0.00000000000E+00 0. -1.
        -14    1    6    6    0    0 -0.61588991199E+02 -0.16426928269E+02  0.25738154347E+02  0.68742275191E+02  0.00000000000E+00 0.  1.
<mgrwt>
<rscale>  2 0.17528450E+03</rscale>
<asrwt>0</asrwt>
<pdfrwt beam="1">  1       21 0.29723659E-01 0.17545045E+03</pdfrwt>
<pdfrwt beam="2">  1       21 0.45628194E-01 0.17545045E+03</pdfrwt>
<totfact> 0.50379102E+04</totfact>
</mgrwt>
</event>
<event>
12    1  0.1019868E-001  0.2485851E+03  0.7546771E-02  0.1114341E+00
         21   -1    0    0  503  502  0.00000000000E+00  0.00000000000E+00  0.41241248146E+03  0.41241248146E+03  0.00000000000E+00 0. -1.
         21   -1    0    0  501  503 -0.00000000000E+00 -0.00000000000E+00 -0.25656496923E+03  0.25656496923E+03  0.00000000000E+00 0.  1.
          6    2    1    2  501    0 -0.17627419455E+03 -0.26308324481E+02 -0.13842218090E+03  0.28376424303E+03  0.17203698980E+03 0.  0.
         24    2    3    3    0    0 -0.14805319358E+03 -0.50971417953E+02 -0.43647336644E+02  0.18173947066E+03  0.81279220112E+02 0.  0.
         -6    2    1    2    0  502  0.17627419455E+03  0.26308324481E+02  0.29426969313E+03  0.38521320766E+03  0.17329121000E+03 0.  0.
        -24    2    5    5    0    0  0.19141557317E+03  0.40830607790E+02  0.29582204123E+03  0.36365728403E+03  0.80180296602E+02 0.  0.
          5    1    3    3  501    0 -0.28221000972E+02  0.24663093472E+02 -0.94774844253E+02  0.10202477238E+03  0.47000000000E+01 0. -1.
        -13    1    4    4    0    0  0.96700071912E+01 -0.79607040071E+01  0.20930124988E-01  0.12525265883E+02  0.00000000000E+00 0.  1.
         14    1    4    4    0    0 -0.15772320077E+03 -0.43010713946E+02 -0.43668266769E+02  0.16921420477E+03  0.00000000000E+00 0. -1.
         -5    1    5    5    0  502 -0.15141378621E+02 -0.14522283309E+02 -0.15523481069E+01  0.21555923634E+02  0.47000000000E+01 0.  1.
         11    1    6    6    0    0  0.71876454335E+02  0.48740593397E+02  0.16369170628E+03  0.18530203678E+03  0.00000000000E+00 0. -1.
        -12    1    6    6    0    0  0.11953911883E+03 -0.79099856066E+01  0.13213033496E+03  0.17835524725E+03  0.00000000000E+00 0.  1.
<mgrwt>
<rscale>  2 0.24836666E+03</rscale>
<asrwt>0</asrwt>
<pdfrwt beam="1">  1       21 0.63448074E-01 0.24858512E+03</pdfrwt>
<pdfrwt beam="2">  1       21 0.39471534E-01 0.24858512E+03</pdfrwt>
<totfact> 0.13751029E+04</totfact>
</mgrwt>
</event>
<event>
12    1  0.1019868E-001  0.1868119E+03  0.7546771E-02  0.1162631E+00
         21   -1    0    0  501  502  0.00000000000E+00  0.00000000000E+00  0.35426241349E+02  0.35426241349E+02  0.00000000000E+00 0.  1.
         21   -1    0    0  502  503 -0.00000000000E+00 -0.00000000000E+00 -0.10168041135E+04  0.10168041135E+04  0.00000000000E+00 0.  1.
         -6    2    1    2    0  503  0.45803344045E+02 -0.42083718495E+02 -0.35623189287E+03  0.39976872734E+03  0.17042560892E+03 0.  0.
        -24    2    3    3    0    0  0.71842630653E+02 -0.12164173292E+02 -0.33963757396E+03  0.35651731058E+03  0.80259456769E+02 0.  0.
          6    2    1    2  501    0 -0.45803344045E+02  0.42083718495E+02 -0.62514597926E+03  0.65246162749E+03  0.17615247449E+03 0.  0.
         24    2    5    5    0    0 -0.82571811767E+02 -0.14439184830E+02 -0.33574656427E+03  0.35527335346E+03  0.80416454206E+02 0.  0.
          5    1    5    5  501    0  0.36768467723E+02  0.56522903325E+02 -0.28939941500E+03  0.29718827403E+03  0.47000000000E+01 0. -1.
        -13    1    6    6    0    0 -0.13241949143E+02 -0.38066627583E+02 -0.15725583228E+03  0.16233857872E+03  0.00000000000E+00 0.  1.
         14    1    6    6    0    0 -0.69329862625E+02  0.23627442753E+02 -0.17849073199E+03  0.19293477475E+03  0.00000000000E+00 0. -1.
         -5    1    3    3    0  503 -0.26039286608E+02 -0.29919545202E+02 -0.16594318903E+02  0.43251416763E+02  0.47000000000E+01 0.  1.
         13    1    4    4    0    0 -0.15396239868E+02 -0.51729547884E+01 -0.24061802980E+02  0.29030570541E+02  0.00000000000E+00 0. -1.
        -14    1    4    4    0    0  0.87238870521E+02 -0.69912185039E+01 -0.31557577099E+03  0.32748674003E+03  0.00000000000E+00 0.  1.
<mgrwt>
<rscale>  2 0.18544954E+03</rscale>
<asrwt>0</asrwt>
<pdfrwt beam="1">  1       21 0.54501913E-02 0.18681188E+03</pdfrwt>
<pdfrwt beam="2">  1       21 0.15643139E+00 0.18681188E+03</pdfrwt>
<totfact> 0.62329226E+04</totfact>
</mgrwt>
</event>
<event>
12    1  0.1019868E-001  0.1891923E+03  0.7546771E-02  0.1159877E+00
         21   -1    0    0  503  502  0.00000000000E+00  0.00000000000E+00  0.86855828594E+03  0.86855828594E+03  0.00000000000E+00 0. -1.
         21   -1    0    0  501  503 -0.00000000000E+00 -0.00000000000E+00 -0.41168275524E+02  0.41168275524E+02  0.00000000000E+00 0. -1.
          6    2    1    2  501    0  0.70338475352E+01  0.78366266952E+02  0.35515499046E+03  0.40100302518E+03  0.16875311004E+03 0.  0.
         24    2    3    3    0    0  0.11519904748E+02 -0.17779125717E+02  0.12507847054E+03  0.15156093519E+03  0.82929414362E+02 0.  0.
         -6    2    1    2    0  502 -0.70338475352E+01 -0.78366266952E+02  0.47223501995E+03  0.50872353628E+03  0.17205515246E+03 0.  0.
        -24    2    5    5    0    0 -0.95488068380E+01 -0.47521594529E+02  0.10728444367E+03  0.14243303413E+03  0.80173160713E+02 0.  0.
          5    1    3    3  501    0 -0.44860572124E+01  0.96145392670E+02  0.23007651992E+03  0.24944208999E+03  0.47000000000E+01 0. -1.
        -11    1    4    4    0    0  0.22841544013E+02 -0.46455556992E+02  0.96568537723E+02  0.10956887052E+03  0.00000000000E+00 0.  1.
         12    1    4    4    0    0 -0.11321639266E+02  0.28676431275E+02  0.28509932818E+02  0.41992064674E+02  0.00000000000E+00 0. -1.
         -5    1    5    5    0  502  0.25149593028E+01 -0.30844672423E+02  0.36495057628E+03  0.36629050215E+03  0.47000000000E+01 0.  1.
         11    1    6    6    0    0  0.93827383491E+01 -0.60423437394E+02  0.10199551969E+03  0.11892061891E+03  0.00000000000E+00 0. -1.
        -12    1    6    6    0    0 -0.18931545187E+02  0.12901842865E+02  0.52889239818E+01  0.23512415218E+02  0.00000000000E+00 0.  1.
<mgrwt>
<rscale>  2 0.18843832E+03</rscale>
<asrwt>0</asrwt>
<pdfrwt beam="1">  1       21 0.13362434E+00 0.18919229E+03</pdfrwt>
<pdfrwt beam="2">  1       21 0.63335815E-02 0.18919229E+03</pdfrwt>
<totfact> 0.72581274E+04</totfact>
</mgrwt>
</event>
<event>
12    1  0.1019868E-001  0.2154830E+03  0.7546771E-02  0.1137463E+00
         21   -1    0    0  503  502  0.00000000000E+00  0.00000000000E+00  0.86210505582E+03  0.86210505582E+03  0.00000000000E+00 0.  1.
         21   -1    0    0  501  503 -0.00000000000E+00 -0.00000000000E+00 -0.53909442715E+02  0.53909442715E+02  0.00000000000E+00 0. -1.
          6    2    1    2  501    0  0.76901538916E+02  0.10206056200E+03  0.43709266372E+03  0.48732221336E+03  0.17350140620E+03 0.  0.
         24    2    3    3    0    0  0.11439076319E+03  0.10058331661E+03  0.31152503709E+03  0.35618509791E+03  0.81349400473E+02 0.  0.
         -6    2    1    2    0  502 -0.76901538916E+02 -0.10206056200E+03  0.37110294939E+03  0.42869228518E+03  0.17242236318E+03 0.  0.
        -24    2    5    5    0    0 -0.74333869991E+02 -0.94997583281E+01  0.13006719130E+03  0.17043965309E+03  0.80724416744E+02 0.  0.
          5    1    3    3  501    0 -0.37489224271E+02  0.14772453855E+01  0.12556762663E+03  0.13113711545E+03  0.47000000000E+01 0. -1.
        -11    1    4    4    0    0  0.11482675473E+03  0.66215023411E+02  0.27889933183E+03  0.30879515900E+03  0.00000000000E+00 0.  1.
         12    1    4    4    0    0 -0.43599154043E+00  0.34368293203E+02  0.32625705256E+02  0.47389938909E+02  0.00000000000E+00 0. -1.
         -5    1    5    5    0  502 -0.25676689248E+01 -0.92560803672E+02  0.24103575809E+03  0.25825263208E+03  0.47000000000E+01 0.  1.
         11    1    6    6    0    0 -0.50894143873E+02 -0.35806155723E+02  0.11762860330E+03  0.13307435133E+03  0.00000000000E+00 0. -1.
        -12    1    6    6    0    0 -0.23439726118E+02  0.26306397395E+02  0.12438587998E+02  0.37365301762E+02  0.00000000000E+00 0.  1.
<mgrwt>
<rscale>  2 0.21526575E+03</rscale>
<asrwt>0</asrwt>
<pdfrwt beam="1">  1       21 0.13263154E+00 0.21548305E+03</pdfrwt>
<pdfrwt beam="2">  1       21 0.82937611E-02 0.21548305E+03</pdfrwt>
<totfact> 0.45732914E+04</totfact>
</mgrwt>
</event>
<event>
12    1  0.1019868E-001  0.1997095E+03  0.7546771E-02  0.1150071E+00
         21   -1    0    0  501  502  0.00000000000E+00  0.00000000000E+00  0.21232952898E+03  0.21232952898E+03  0.00000000000E+00 0.  1.
         21   -1    0    0  502  503 -0.00000000000E+00 -0.00000000000E+00 -0.19069822020E+03  0.19069822020E+03  0.00000000000E+00 0.  1.
         -6    2    1    2    0  503  0.97631866477E+02 -0.15186370964E+02  0.37093016367E+02  0.20272061616E+03  0.17308133677E+03 0.  0.
        -24    2    3    3    0    0  0.30653661128E+02 -0.56423393930E+02 -0.20051209028E+02  0.10538550147E+03  0.81122170914E+02 0.  0.
          6    2    1    2  501    0 -0.97631866477E+02  0.15186370964E+02 -0.15461707584E+02  0.20030713302E+03  0.17355482108E+03 0.  0.
         24    2    5    5    0    0 -0.41342623867E+02 -0.63736511830E+01 -0.72663953547E+02  0.11707552645E+03  0.81711644034E+02 0.  0.
          5    1    5    5  501    0 -0.56289242610E+02  0.21560022147E+02  0.57202245964E+02  0.83231606568E+02  0.47000000000E+01 0. -1.
        -11    1    6    6    0    0 -0.48089972928E+02  0.26222755284E+02 -0.60558088059E+02  0.81655131010E+02  0.00000000000E+00 0.  1.
         12    1    6    6    0    0  0.67473490609E+01 -0.32596406467E+02 -0.12105865489E+02  0.35420395440E+02  0.00000000000E+00 0. -1.
         -5    1    3    3    0  503  0.66978205349E+02  0.41237022966E+02  0.57144225395E+02  0.97335114685E+02  0.47000000000E+01 0.  1.
         13    1    4    4    0    0  0.41099018906E+01  0.19027379916E+02 -0.16172620372E+02  0.25307827439E+02  0.00000000000E+00 0. -1.
        -14    1    4    4    0    0  0.26543759238E+02 -0.75450773846E+02 -0.38785886559E+01  0.80077674032E+02  0.00000000000E+00 0.  1.
<mgrwt>
<rscale>  2 0.19960658E+03</rscale>
<asrwt>0</asrwt>
<pdfrwt beam="1">  1       21 0.32666081E-01 0.19970950E+03</pdfrwt>
<pdfrwt beam="2">  1       21 0.29338188E-01 0.19970950E+03</pdfrwt>
<totfact> 0.10009447E+05</totfact>
</mgrwt>
</event>
<event>
12    1  0.1019868E-001  0.1746511E+03  0.7546771E-02  0.1174831E+00
         21   -1    0    0  503  502  0.00000000000E+00  0.00000000000E+00  0.21913492183E+03  0.21913492183E+03  0.00000000000E+00 0. -1.
         21   -1    0    0  501  503 -0.00000000000E+00 -0.00000000000E+00 -0.13384934599E+03  0.13384934599E+03  0.00000000000E+00 0. -1.
          6    2    1    2  501    0  0.17646234586E+02 -0.79370684036E+00  0.43890067565E+02  0.17349443691E+03  0.16691902840E+03 0.  0.
         24    2    3    3    0    0 -0.42234536584E+02  0.40918368414E+02  0.34368701799E+02  0.99749264969E+02  0.72874132889E+02 0.  0.
         -6    2    1    2    0  502 -0.17646234586E+02  0.79370684036E+00  0.41395508272E+02  0.17948983091E+03  0.17375555165E+03 0.  0.
        -24    2    5    5    0    0 -0.25031762590E+02  0.64279912399E+02  0.42952680040E+02  0.11538398793E+03  0.81914807403E+02 0.  0.
          5    1    3    3  501    0  0.59880771170E+02 -0.41712075255E+02  0.95213657667E+01  0.73745171937E+02  0.47000000000E+01 0. -1.
        -13    1    4    4    0    0 -0.53930403497E+02  0.35096974842E+01  0.15337056853E+02  0.56178569852E+02  0.00000000000E+00 0.  1.
         14    1    4    4    0    0  0.11695866913E+02  0.37408670930E+02  0.19031644945E+02  0.43570695116E+02  0.00000000000E+00 0. -1.
         -5    1    5    5    0  502  0.73855280036E+01 -0.63486205558E+02 -0.15571717679E+01  0.64105842979E+02  0.47000000000E+01 0.  1.
         13    1    6    6    0    0 -0.12059791327E+02  0.15908902223E+02 -0.24353652900E+02  0.31490191272E+02  0.00000000000E+00 0. -1.
        -14    1    6    6    0    0 -0.12971971263E+02  0.48371010176E+02  0.67306332941E+02  0.83893796659E+02  0.00000000000E+00 0.  1.
<mgrwt>
<rscale>  2 0.17292570E+03</rscale>
<asrwt>0</asrwt>
<pdfrwt beam="1">  1       21 0.33713065E-01 0.17465111E+03</pdfrwt>
<pdfrwt beam="2">  1       21 0.20592207E-01 0.17465111E+03</pdfrwt>
<totfact> 0.18623308E+05</totfact>
</mgrwt>
</event>
<event>
12    1  0.1019868E-001  0.1827315E+03  0.7546771E-02  0.1165304E+00
         21   -1    0    0  503  502  0.00000000000E+00  0.00000000000E+00  0.10088097957E+03  0.10088097957E+03  0.00000000000E+00 0.  1.
         21   -1    0    0  501  503 -0.00000000000E+00 -0.00000000000E+00 -0.33049946469E+03  0.33049946469E+03  0.00000000000E+00 0.  1.
          6    2    1    2  501    0  0.52148094041E+02  0.23459275538E+02 -0.10733272099E+03  0.21192242753E+03  0.17355414422E+03 0.  0.
         24    2    3    3    0    0  0.89470929426E+02 -0.15907560207E+02 -0.10025923362E+03  0.15701463190E+03  0.79646613364E+02 0.  0.
         -6    2    1    2    0  502 -0.52148094041E+02 -0.23459275538E+02 -0.12228576413E+03  0.21945801673E+03  0.17302673689E+03 0.  0.
        -24    2    5    5    0    0  0.34839140366E+02 -0.28151561532E+02 -0.76084487910E+02  0.12073899920E+03  0.82357637833E+02 0.  0.
          5    1    3    3  501    0 -0.37322835385E+02  0.39366835744E+02 -0.70734873695E+01  0.54907795633E+02  0.47000000000E+01 0. -1.
        -13    1    4    4    0    0  0.65950487283E+02  0.15455419792E+02 -0.96125808564E+02  0.11759467610E+03  0.00000000000E+00 0.  1.
         14    1    4    4    0    0  0.23520442144E+02 -0.31362979999E+02 -0.41334250585E+01  0.39419955806E+02  0.00000000000E+00 0. -1.
         -5    1    5    5    0  502 -0.86987234407E+02  0.46922859938E+01 -0.46201276220E+02  0.98719017530E+02  0.47000000000E+01 0.  1.
         11    1    6    6    0    0 -0.90935631846E+01 -0.39131078029E+02 -0.60938551483E+02  0.72989322616E+02  0.00000000000E+00 0. -1.
        -12    1    6    6    0    0  0.43932703551E+02  0.10979516497E+02 -0.15145936427E+02  0.47749676586E+02  0.00000000000E+00 0.  1.
<mgrwt>
<rscale>  2 0.18260616E+03</rscale>
<asrwt>0</asrwt>
<pdfrwt beam="1">  1       21 0.15520151E-01 0.18273150E+03</pdfrwt>
<pdfrwt beam="2">  1       21 0.50846072E-01 0.18273150E+03</pdfrwt>
<totfact> 0.13608761E+05</totfact>
</mgrwt>
</event>
<event>
12    1  0.1019868E-001  0.2031643E+03  0.7546771E-02  0.1147097E+00
         21   -1    0    0  501  502  0.00000000000E+00  0.00000000000E+00  0.71524697818E+02  0.71524697818E+02  0.00000000000E+00 0. -1.
         21   -1    0    0  502  503 -0.00000000000E+00 -0.00000000000E+00 -0.70408049650E+03  0.70408049650E+03  0.00000000000E+00 0. -1.
         -6    2    1    2    0  503 -0.84036156169E+02 -0.63044363200E+02 -0.48098092360E+03  0.52212801315E+03  0.17389176509E+03 0.  0.
        -24    2    3    3    0    0 -0.12329376142E+03 -0.69478063109E+02 -0.36145819362E+03  0.39607118054E+03  0.78688000737E+02 0.  0.
          6    2    1    2  501    0  0.84036156169E+02  0.63044363200E+02 -0.15157487508E+03  0.25347718118E+03  0.17389385080E+03 0.  0.
         24    2    5    5    0    0  0.79678721030E+02  0.81348612150E+02 -0.17442570698E+03  0.22350580668E+03  0.81019893106E+02 0.  0.
          5    1    5    5  501    0  0.43574351386E+01 -0.18304248950E+02  0.22850831902E+02  0.29971374497E+02  0.47000000000E+01 0. -1.
        -11    1    6    6    0    0  0.53787782842E+02  0.26099897660E+00 -0.79717954526E+02  0.96167281221E+02  0.00000000000E+00 0.  1.
         12    1    6    6    0    0  0.25890938188E+02  0.81087613174E+02 -0.94707752457E+02  0.12733852546E+03  0.00000000000E+00 0. -1.
         -5    1    3    3    0  503  0.39257605248E+02  0.64336999080E+01 -0.11952272999E+03  0.12605683261E+03  0.47000000000E+01 0.  1.
         11    1    4    4    0    0 -0.95681076097E+02 -0.65255634028E+02 -0.34437445020E+03  0.36332757678E+03  0.00000000000E+00 0. -1.
        -12    1    4    4    0    0 -0.27612685320E+02 -0.42224290804E+01 -0.17083743414E+02  0.32743603756E+02  0.00000000000E+00 0.  1.
<mgrwt>
<rscale>  2 0.20316387E+03</rscale>
<asrwt>0</asrwt>
<pdfrwt beam="1">  1       21 0.11003800E-01 0.20316431E+03</pdfrwt>
<pdfrwt beam="2">  1       21 0.10832007E+00 0.20316431E+03</pdfrwt>
<totfact> 0.46169354E+04</totfact>
</mgrwt>
</event>
<event>
12    1  0.1019868E-001  0.2102024E+03  0.7546771E-02  0.1141512E+00
         21   -1    0    0  501  502  0.00000000000E+00  0.00000000000E+00  0.58150517141E+02  0.58150517141E+02  0.00000000000E+00 0.  1.
         21   -1    0    0  502  503 -0.00000000000E+00 -0.00000000000E+00 -0.78304794775E+03  0.78304794775E+03  0.00000000000E+00 0.  1.
         -6    2    1    2    0  503 -0.11273267777E+03 -0.21636119456E+02 -0.43827781166E+03  0.48607867616E+03  0.17609162650E+03 0.  0.
        -24    2    3    3    0    0 -0.79189772833E+01 -0.58726471736E+02 -0.21876406399E+03  0.23996898221E+03  0.78840903371E+02 0.  0.
          6    2    1    2  501    0  0.11273267777E+03  0.21636119456E+02 -0.28661961895E+03  0.35511978873E+03  0.17544936613E+03 0.  0.
         24    2    5    5    0    0  0.11118357020E+03 -0.80090971251E+01 -0.11083753248E+03  0.17678675611E+03  0.80886751760E+02 0.  0.
          5    1    5    5  501    0  0.15491075784E+01  0.29645216581E+02 -0.17578208647E+03  0.17833303262E+03  0.47000000000E+01 0. -1.
        -13    1    6    6    0    0  0.62591533822E+02  0.25744727584E+02 -0.92945569480E+02  0.11497551909E+03  0.00000000000E+00 0.  1.
         14    1    6    6    0    0  0.48592036375E+02 -0.33753824709E+02 -0.17891963004E+02  0.61811237017E+02  0.00000000000E+00 0. -1.
         -5    1    3    3    0  503 -0.10481370049E+03  0.37090352280E+02 -0.21951374767E+03  0.24610969395E+03  0.47000000000E+01 0.  1.
         11    1    4    4    0    0 -0.45596665574E+01 -0.26583250343E+01  0.61748995769E+01  0.81232158587E+01  0.00000000000E+00 0. -1.
        -12    1    4    4    0    0 -0.33593107259E+01 -0.56068146702E+02 -0.22493896357E+03  0.23184576635E+03  0.00000000000E+00 0.  1.
<mgrwt>
<rscale>  2 0.21006781E+03</rscale>
<asrwt>0</asrwt>
<pdfrwt beam="1">  1       21 0.89462332E-02 0.21020238E+03</pdfrwt>
<pdfrwt beam="2">  1       21 0.12046892E+00 0.21020238E+03</pdfrwt>
<totfact> 0.51156821E+04</totfact>
</mgrwt>
</event>
<event>
12    1  0.1019868E-001  0.1971229E+03  0.7546771E-02  0.1152598E+00
         21   -1    0    0  503  502  0.00000000000E+00  0.00000000000E+00  0.23065825376E+03  0.23065825376E+03  0.00000000000E+00 0.  1.
         21   -1    0    0  501  503 -0.00000000000E+00 -0.00000000000E+00 -0.21161119829E+03  0.21161119829E+03  0.00000000000E+00 0. -1.
          6    2    1    2  501    0  0.58964116713E+02 -0.71948373853E+02 -0.92215975166E+02  0.21591375523E+03  0.17164389899E+03 0.  0.
         24    2    3    3    0    0  0.63208636344E+02  0.13674168041E+02 -0.20625612278E+02  0.10412598449E+03  0.78958787890E+02 0.  0.
         -6    2    1    2    0  502 -0.58964116713E+02  0.71948373853E+02  0.11126303064E+03  0.22635569683E+03  0.17379327933E+03 0.  0.
        -24    2    5    5    0    0 -0.88226016096E+02  0.45024786502E+02  0.20391224897E+02  0.12705356498E+03  0.76913880450E+02 0.  0.
          5    1    3    3  501    0 -0.42445196318E+01 -0.85622541894E+02 -0.71590362888E+02  0.11178777073E+03  0.47000000000E+01 0. -1.
        -13    1    4    4    0    0  0.33766319745E+02  0.13275350875E+02  0.28982838454E+02  0.46437099552E+02  0.00000000000E+00 0.  1.
         14    1    4    4    0    0  0.29442316599E+02  0.39881716585E+00 -0.49608450732E+02  0.57688884942E+02  0.00000000000E+00 0. -1.
         -5    1    5    5    0  502  0.29261899383E+02  0.26923587351E+02  0.90871805739E+02  0.99302131848E+02  0.47000000000E+01 0.  1.
         11    1    6    6    0    0 -0.48455179069E+00  0.37283155411E+02  0.46387567577E+01  0.37573747911E+02  0.00000000000E+00 0. -1.
        -12    1    6    6    0    0 -0.87741464305E+02  0.77416310913E+01  0.15752468140E+02  0.89479817070E+02  0.00000000000E+00 0.  1.
<mgrwt>
<rscale>  2 0.19664810E+03</rscale>
<asrwt>0</asrwt>
<pdfrwt beam="1">  1       21 0.35485885E-01 0.19712290E+03</pdfrwt>
<pdfrwt beam="2">  1       21 0.32555569E-01 0.19712290E+03</pdfrwt>
<totfact> 0.69384888E+04</totfact>
</mgrwt>
</event>
<event>
12    1  0.1019868E-001  0.1895789E+03  0.7546771E-02  0.1158949E+00
         21   -1    0    0  501  502  0.00000000000E+00  0.00000000000E+00  0.36042352153E+02  0.36042352153E+02  0.00000000000E+00 0. -1.
         21   -1    0    0  502  503 -0.00000000000E+00 -0.00000000000E+00 -0.11043471490E+04  0.11043471490E+04  0.00000000000E+00 0. -1.
         -6    2    1    2    0  503 -0.77382229092E+02 -0.40173199198E+01 -0.71323346845E+03  0.73787761475E+03  0.17250288576E+03 0.  0.
        -24    2    3    3    0    0 -0.95784164969E+02  0.39498887777E+02 -0.41569916952E+03  0.43657869239E+03  0.84026107341E+02 0.  0.
          6    2    1    2  501    0  0.77382229092E+02  0.40173199198E+01 -0.35507132838E+03  0.40251188638E+03  0.17302029420E+03 0.  0.
         24    2    5    5    0    0  0.49374025575E+01  0.58011534735E+02 -0.19730829592E+03  0.22064684704E+03  0.79779391848E+02 0.  0.
          5    1    5    5  501    0  0.72444826534E+02 -0.53994214815E+02 -0.15776303246E+03  0.18186503934E+03  0.47000000000E+01 0. -1.
        -11    1    6    6    0    0 -0.23953698087E+02  0.20477218993E+02 -0.15153787661E+03  0.15477992182E+03  0.00000000000E+00 0.  1.
         12    1    6    6    0    0  0.28891100645E+02  0.37534315742E+02 -0.45770419307E+02  0.65866925222E+02  0.00000000000E+00 0. -1.
         -5    1    3    3    0  503  0.18401935878E+02 -0.43516207697E+02 -0.29753429893E+03  0.30129892236E+03  0.47000000000E+01 0.  1.
         11    1    4    4    0    0 -0.73269037623E+02 -0.76055302252E+01 -0.16804370615E+03  0.18347992571E+03  0.00000000000E+00 0. -1.
        -12    1    4    4    0    0 -0.22515127347E+02  0.47104418002E+02 -0.24765546338E+03  0.25309876668E+03  0.00000000000E+00 0.  1.
<mgrwt>
<rscale>  2 0.18946079E+03</rscale>
<asrwt>0</asrwt>
<pdfrwt beam="1">  1       21 0.55449778E-02 0.18957893E+03</pdfrwt>
<pdfrwt beam="2">  1       21 0.16989955E+00 0.18957893E+03</pdfrwt>
<totfact> 0.48308041E+04</totfact>
</mgrwt>
</event>
<event>
12    1  0.1019868E-001  0.2292927E+03  0.7546771E-02  0.1127265E+00
         21   -1    0    0  503  502  0.00000000000E+00  0.00000000000E+00  0.94315310171E+02  0.94315310171E+02  0.00000000000E+00 0. -1.
         21   -1    0    0  501  503 -0.00000000000E+00 -0.00000000000E+00 -0.56365876999E+03  0.56365876999E+03  0.00000000000E+00 0.  1.
          6    2    1    2  501    0  0.15017324326E+03 -0.82908605060E+01 -0.27339369650E+03  0.35635932378E+03  0.17212528284E+03 0.  0.
         24    2    3    3    0    0  0.10461682312E+03  0.39669644391E+01 -0.72496573205E+02  0.14994375789E+03  0.79164139097E+02 0.  0.
         -6    2    1    2    0  502 -0.15017324326E+03  0.82908605060E+01 -0.19594976332E+03  0.30161475639E+03  0.17307342420E+03 0.  0.
        -24    2    5    5    0    0 -0.71947024602E+02  0.28067861206E+02 -0.28205966888E+02  0.11541448173E+03  0.80998437281E+02 0.  0.
          5    1    3    3  501    0  0.45556420148E+02 -0.12257824945E+02 -0.20089712330E+03  0.20641556588E+03  0.47000000000E+01 0. -1.
        -11    1    4    4    0    0  0.49864989615E+02 -0.28750554146E+02 -0.61117327277E+01  0.57883199893E+02  0.00000000000E+00 0.  1.
         12    1    4    4    0    0  0.54751833502E+02  0.32717518585E+02 -0.66384840477E+02  0.92060558001E+02  0.00000000000E+00 0. -1.
         -5    1    5    5    0  502 -0.78226218663E+02 -0.19777000700E+02 -0.16774379643E+03  0.18620027466E+03  0.47000000000E+01 0.  1.
         11    1    6    6    0    0 -0.52899897677E+02  0.54448071095E+02 -0.62697392338E+01  0.76172838009E+02  0.00000000000E+00 0. -1.
        -12    1    6    6    0    0 -0.19047126925E+02 -0.26380209889E+02 -0.21936227654E+02  0.39241643716E+02  0.00000000000E+00 0.  1.
<mgrwt>
<rscale>  2 0.22911380E+03</rscale>
<asrwt>0</asrwt>
<pdfrwt beam="1">  1       21 0.14510048E-01 0.22929272E+03</pdfrwt>
<pdfrwt beam="2">  1       21 0.86716733E-01 0.22929272E+03</pdfrwt>
<totfact> 0.46850628E+04</totfact>
</mgrwt>
</event>
<event>
12    1  0.1019868E-001  0.1846101E+03  0.7546771E-02  0.1163994E+00
         21   -1    0    0  501  502  0.00000000000E+00  0.00000000000E+00  0.59922577952E+02  0.59922577952E+02  0.00000000000E+00 0. -1.
         21   -1    0    0  502  503 -0.00000000000E+00 -0.00000000000E+00 -0.58117293870E+03  0.58117293870E+03  0.00000000000E+00 0. -1.
         -6    2    1    2    0  503 -0.93185556951E+01 -0.42693031750E+02 -0.32172831866E+03  0.37093126162E+03  0.17936376272E+03 0.  0.
        -24    2    3    3    0    0  0.41664849419E+02  0.20680749820E+02 -0.22930782981E+03  0.24772744453E+03  0.81382755349E+02 0.  0.
          6    2    1    2  501    0  0.93185556951E+01  0.42693031750E+02 -0.19952204208E+03  0.27016425502E+03  0.17683367603E+03 0.  0.
         24    2    5    5    0    0 -0.47211322917E+02 -0.90789210984E+01 -0.61913461433E+02  0.11257563315E+03  0.80800127796E+02 0.  0.
          5    1    5    5  501    0  0.56529878612E+02  0.51771952849E+02 -0.13760858065E+03  0.15758862188E+03  0.47000000000E+01 0. -1.
        -13    1    6    6    0    0  0.22418565911E-01 -0.30873562061E+02 -0.50701130680E+02  0.59361452047E+02  0.00000000000E+00 0.  1.
         14    1    6    6    0    0 -0.47233741483E+02  0.21794640963E+02 -0.11212330753E+02  0.53214181099E+02  0.00000000000E+00 0. -1.
         -5    1    3    3    0  503 -0.50983405114E+02 -0.63373781570E+02 -0.92420488852E+02  0.12320381710E+03  0.47000000000E+01 0.  1.
         11    1    4    4    0    0 -0.15030278136E+02 -0.10258745495E+02 -0.11502980545E+03  0.11646032484E+03  0.00000000000E+00 0. -1.
        -12    1    4    4    0    0  0.56695127554E+02  0.30939495315E+02 -0.11427802437E+03  0.13126711969E+03  0.00000000000E+00 0.  1.
<mgrwt>
<rscale>  2 0.18399271E+03</rscale>
<asrwt>0</asrwt>
<pdfrwt beam="1">  1       21 0.92188582E-02 0.18461010E+03</pdfrwt>
<pdfrwt beam="2">  1       21 0.89411220E-01 0.18461010E+03</pdfrwt>
<totfact> 0.10021072E+05</totfact>
</mgrwt>
</event>
<event>
12    1  0.1019868E-001  0.2324475E+03  0.7546771E-02  0.1127838E+00
         21   -1    0    0  503  502  0.00000000000E+00  0.00000000000E+00  0.13998963576E+03  0.13998963576E+03  0.00000000000E+00 0.  1.
         21   -1    0    0  501  503 -0.00000000000E+00 -0.00000000000E+00 -0.43048187782E+03  0.43048187782E+03  0.00000000000E+00 0.  1.
          6    2    1    2  501    0  0.39627861037E+02 -0.12421593647E+03 -0.25652224538E+03  0.33555488838E+03  0.17260780543E+03 0.  0.
         24    2    3    3    0    0  0.41960909506E+02 -0.10507271620E+03 -0.78221646481E+02  0.15615282717E+03  0.73919455082E+02 0.  0.
         -6    2    1    2    0  502 -0.39627861037E+02  0.12421593647E+03 -0.33969996676E+02  0.23491662520E+03  0.19243672695E+03 0.  0.
        -24    2    5    5    0    0 -0.24046831773E+02 -0.18167026294E+02 -0.29536093993E+02  0.91538014345E+02  0.81231374845E+02 0.  0.
          5    1    3    3  501    0 -0.23330484690E+01 -0.19143220271E+02 -0.17830059890E+03  0.17940206121E+03  0.47000000000E+01 0. -1.
        -13    1    4    4    0    0  0.15850589271E+02 -0.37457235129E+02 -0.72896600938E+02  0.83475745412E+02  0.00000000000E+00 0.  1.
         14    1    4    4    0    0  0.26110320235E+02 -0.67615481071E+02 -0.53250455429E+01  0.72677081761E+02  0.00000000000E+00 0. -1.
         -5    1    5    5    0  502 -0.15581029264E+02  0.14238296277E+03 -0.44339026831E+01  0.14337861086E+03  0.47000000000E+01 0.  1.
         11    1    6    6    0    0  0.61657675307E+01 -0.42390638441E+02 -0.24959542862E-02  0.42836700654E+02  0.00000000000E+00 0. -1.
        -12    1    6    6    0    0 -0.30212599303E+02  0.24223612147E+02 -0.29533598039E+02  0.48701313691E+02  0.00000000000E+00 0.  1.
<mgrwt>
<rscale>  2 0.22830573E+03</rscale>
<asrwt>0</asrwt>
<pdfrwt beam="1">  1       21 0.21536867E-01 0.23244754E+03</pdfrwt>
<pdfrwt beam="2">  1       21 0.66227981E-01 0.23244754E+03</pdfrwt>
<totfact> 0.41230625E+04</totfact>
</mgrwt>
</event>
<event>
12    1  0.1019868E-001  0.1888897E+03  0.7546771E-02  0.1159727E+00
         21   -1    0    0  503  502  0.00000000000E+00  0.00000000000E+00  0.46680579358E+03  0.46680579358E+03  0.00000000000E+00 0.  1.
         21   -1    0    0  501  503 -0.00000000000E+00 -0.00000000000E+00 -0.91789956005E+02  0.91789956005E+02  0.00000000000E+00 0. -1.
          6    2    1    2  501    0 -0.70543510319E+02 -0.78527388419E+01  0.72032220583E+02  0.20215825653E+03  0.17504647248E+03 0.  0.
         24    2    3    3    0    0 -0.42119122365E+02  0.97532231017E+01  0.11545246376E+03  0.14715531803E+03  0.80350920371E+02 0.  0.
         -6    2    1    2    0  502  0.70543510319E+02  0.78527388419E+01  0.30298361699E+03  0.35643749305E+03  0.17381185786E+03 0.  0.
        -24    2    5    5    0    0  0.72435171348E+02  0.39440363358E+02  0.10591786234E+03  0.15679191194E+03  0.81010578169E+02 0.  0.
          5    1    3    3  501    0 -0.28424387954E+02 -0.17605961944E+02 -0.43420243181E+02  0.55002938507E+02  0.47000000000E+01 0. -1.
        -13    1    4    4    0    0 -0.19500685803E+02 -0.34062305653E+02  0.33938814992E+02  0.51887961766E+02  0.00000000000E+00 0.  1.
         14    1    4    4    0    0 -0.22618436562E+02  0.43815528755E+02  0.81513648772E+02  0.95267356260E+02  0.00000000000E+00 0. -1.
         -5    1    5    5    0  502 -0.18916610289E+01 -0.31587624516E+02  0.19706575465E+03  0.19964558112E+03  0.47000000000E+01 0.  1.
         13    1    6    6    0    0  0.37827176149E+02  0.41244159665E+02  0.10845637035E+03  0.12204409135E+03  0.00000000000E+00 0. -1.
        -14    1    6    6    0    0  0.34607995199E+02 -0.18037963076E+01 -0.25385080126E+01  0.34747820590E+02  0.00000000000E+00 0.  1.
<mgrwt>
<rscale>  2 0.18860316E+03</rscale>
<asrwt>0</asrwt>
<pdfrwt beam="1">  1       21 0.71816275E-01 0.18888970E+03</pdfrwt>
<pdfrwt beam="2">  1       21 0.14121532E-01 0.18888970E+03</pdfrwt>
<totfact> 0.76766805E+04</totfact>
</mgrwt>
</event>
<event>
12    1  0.1019868E-001  0.2513069E+03  0.7546771E-02  0.1112569E+00
         21   -1    0    0  501  502  0.00000000000E+00  0.00000000000E+00  0.14653382113E+04  0.14653382113E+04  0.00000000000E+00 0. -1.
         21   -1    0    0  502  503 -0.00000000000E+00 -0.00000000000E+00 -0.56604124906E+02  0.56604124906E+02  0.00000000000E+00 0. -1.
         -6    2    1    2    0  503  0.18066585502E+03  0.12786530890E+02  0.33077337267E+03  0.41507537846E+03  0.17341539492E+03 0.  0.
        -24    2    3    3    0    0  0.62417009129E+02 -0.33905793344E+02  0.81462499706E+02  0.13518081961E+03  0.81192544489E+02 0.  0.
          6    2    1    2  501    0 -0.18066585502E+03 -0.12786530890E+02  0.10779607137E+04  0.11068669577E+04  0.17421686277E+03 0.  0.
         24    2    5    5    0    0 -0.90862676851E+02  0.43065925720E+02  0.38738356839E+03  0.40822327791E+03  0.80433298857E+02 0.  0.
          5    1    5    5  501    0 -0.89803178170E+02 -0.55852456609E+02  0.69057714529E+03  0.69864367979E+03  0.47000000000E+01 0. -1.
        -11    1    6    6    0    0 -0.39634675774E+02 -0.21289187618E+01  0.26592583475E+03  0.26887169693E+03  0.00000000000E+00 0.  1.
         12    1    6    6    0    0 -0.51228001077E+02  0.45194844481E+02  0.12145773364E+03  0.13935158098E+03  0.00000000000E+00 0. -1.
         -5    1    3    3    0  503  0.11824884589E+03  0.46692324234E+02  0.24931087296E+03  0.27989455885E+03  0.47000000000E+01 0.  1.
         13    1    4    4    0    0  0.41564919415E+02  0.28101795199E+01  0.83064840703E+02  0.92926354690E+02  0.00000000000E+00 0. -1.
        -14    1    4    4    0    0  0.20852089713E+02 -0.36715972864E+02 -0.16023409973E+01  0.42254464917E+02  0.00000000000E+00 0.  1.
<mgrwt>
<rscale>  2 0.25116806E+03</rscale>
<asrwt>0</asrwt>
<pdfrwt beam="1">  1       21 0.22543662E+00 0.25130691E+03</pdfrwt>
<pdfrwt beam="2">  1       21 0.87083280E-02 0.25130691E+03</pdfrwt>
<totfact> 0.91978459E+03</totfact>
</mgrwt>
</event>
<event>
12    1  0.1019868E-001  0.1899046E+03  0.7546771E-02  0.1158810E+00
         21   -1    0    0  503  502  0.00000000000E+00  0.00000000000E+00  0.55106255464E+03  0.55106255464E+03  0.00000000000E+00 0. -1.
         21   -1    0    0  501  503 -0.00000000000E+00 -0.00000000000E+00 -0.13323950554E+03  0.13323950554E+03  0.00000000000E+00 0. -1.
          6    2    1    2  501    0 -0.33774777883E+02 -0.66148529868E+02 -0.35555103131E+02  0.19320430678E+03  0.17477807406E+03 0.  0.
         24    2    3    3    0    0  0.38573837581E+02 -0.38036647681E+02  0.18491187252E+02  0.98506410371E+02  0.80167707748E+02 0.  0.
         -6    2    1    2    0  502  0.33774777883E+02  0.66148529868E+02  0.45337815223E+03  0.49109775340E+03  0.17351913683E+03 0.  0.
        -24    2    5    5    0    0  0.64081778053E+02  0.85018993881E+02  0.42438540024E+03  0.44486704564E+03  0.80430198080E+02 0.  0.
          5    1    3    3  501    0 -0.72348615464E+02 -0.28111882187E+02 -0.54046290382E+02  0.94697896406E+02  0.47000000000E+01 0. -1.
        -13    1    4    4    0    0  0.37313109391E+01  0.49737880663E+01 -0.26472423601E+02  0.27192838402E+02  0.00000000000E+00 0.  1.
         14    1    4    4    0    0  0.34842526642E+02 -0.43010435747E+02  0.44963610853E+02  0.71313571968E+02  0.00000000000E+00 0. -1.
         -5    1    5    5    0  502 -0.30307000170E+02 -0.18870464013E+02  0.28992751995E+02  0.46230707756E+02  0.47000000000E+01 0.  1.
         11    1    6    6    0    0 -0.33995437104E+01 -0.12181571477E+02  0.21293158739E+02  0.24765827065E+02  0.00000000000E+00 0. -1.
        -12    1    6    6    0    0  0.67481321764E+02  0.97200565359E+02  0.40309224150E+03  0.42010121858E+03  0.00000000000E+00 0.  1.
<mgrwt>
<rscale>  2 0.18961438E+03</rscale>
<asrwt>0</asrwt>
<pdfrwt beam="1">  1       21 0.84778853E-01 0.18990455E+03</pdfrwt>
<pdfrwt beam="2">  1       21 0.20498386E-01 0.18990455E+03</pdfrwt>
<totfact> 0.26614873E+04</totfact>
</mgrwt>
</event>
<event>
12    1  0.1019868E-001  0.1777057E+03  0.7546771E-02  0.1170159E+00
         21   -1    0    0  501  502  0.00000000000E+00  0.00000000000E+00  0.91475776409E+03  0.91475776409E+03  0.00000000000E+00 0. -1.
         21   -1    0    0  502  503 -0.00000000000E+00 -0.00000000000E+00 -0.95538625914E+02  0.95538625914E+02  0.00000000000E+00 0. -1.
         -6    2    1    2    0  503 -0.62273510849E+01  0.42263941764E+02  0.58076624778E+01  0.17780052704E+03  0.17249428338E+03 0.  0.
        -24    2    3    3    0    0  0.32068407421E+02 -0.18659529053E+02  0.40550243797E+02  0.97754469221E+02  0.80839675913E+02 0.  0.
          6    2    1    2  501    0  0.62273510849E+01 -0.42263941764E+02  0.81341147570E+03  0.83249586296E+03  0.17200614053E+03 0.  0.
         24    2    5    5    0    0  0.51130688839E+02 -0.50763785699E+02  0.72423926189E+03  0.73218469308E+03  0.79878702013E+02 0.  0.
          5    1    5    5  501    0 -0.44903337754E+02  0.84998439348E+01  0.89172213810E+02  0.10031116989E+03  0.47000000000E+01 0. -1.
        -13    1    6    6    0    0  0.17901550522E+02  0.18056071712E+02  0.95836722041E+02  0.99152229064E+02  0.00000000000E+00 0.  1.
         14    1    6    6    0    0  0.33229138316E+02 -0.68819857411E+02  0.62840253985E+03  0.63303246401E+03  0.00000000000E+00 0. -1.
         -5    1    3    3    0  503 -0.38295758506E+02  0.60923470817E+02 -0.34742581319E+02  0.80046057821E+02  0.47000000000E+01 0.  1.
         13    1    4    4    0    0  0.36150557487E+02  0.13266667164E+01 -0.14556200945E+02  0.38993664065E+02  0.00000000000E+00 0. -1.
        -14    1    4    4    0    0 -0.40821500667E+01 -0.19986195769E+02  0.55106444742E+02  0.58760805156E+02  0.00000000000E+00 0.  1.
<mgrwt>
<rscale>  2 0.17758709E+03</rscale>
<asrwt>0</asrwt>
<pdfrwt beam="1">  1       21 0.14073196E+00 0.17770565E+03</pdfrwt>
<pdfrwt beam="2">  1       21 0.14698251E-01 0.17770565E+03</pdfrwt>
<totfact> 0.14523780E+04</totfact>
</mgrwt>
</event>
<event>
12    1  0.1019868E-001  0.1794988E+03  0.7546771E-02  0.1168385E+00
         21   -1    0    0  503  502  0.00000000000E+00  0.00000000000E+00  0.74117753846E+02  0.74117753846E+02  0.00000000000E+00 0. -1.
         21   -1    0    0  501  503 -0.00000000000E+00 -0.00000000000E+00 -0.47221917989E+03  0.47221917989E+03  0.00000000000E+00 0. -1.
          6    2    1    2  501    0  0.21444627805E+02  0.43496631853E+02 -0.27721395346E+03  0.33025354211E+03  0.17282360094E+03 0.  0.
         24    2    3    3    0    0 -0.44805638552E+01  0.90815567461E+02 -0.22407711766E+03  0.25437989353E+03  0.78936891446E+02 0.  0.
         -6    2    1    2    0  502 -0.21444627805E+02 -0.43496631853E+02 -0.12088747259E+03  0.21608339162E+03  0.17241352053E+03 0.  0.
        -24    2    5    5    0    0  0.40808798022E+02 -0.66307922032E+02 -0.73112899174E+02  0.13422776352E+03  0.81298818900E+02 0.  0.
          5    1    3    3  501    0  0.25925191660E+02 -0.47318935608E+02 -0.53136835801E+02  0.75873648579E+02  0.47000000000E+01 0. -1.
        -13    1    4    4    0    0  0.32510431062E+02  0.15173613533E+02 -0.75822816269E+02  0.83882454318E+02  0.00000000000E+00 0.  1.
         14    1    4    4    0    0 -0.36990994917E+02  0.75641953929E+02 -0.14825430139E+03  0.17049743921E+03  0.00000000000E+00 0. -1.
         -5    1    5    5    0  502 -0.62253425828E+02  0.22811290179E+02 -0.47774573412E+02  0.81855628100E+02  0.47000000000E+01 0.  1.
         13    1    6    6    0    0 -0.11786610076E+01  0.51332594740E+01  0.13420006957E+02  0.14416524592E+02  0.00000000000E+00 0. -1.
        -14    1    6    6    0    0  0.41987459030E+02 -0.71441181506E+02 -0.86532906130E+02  0.11981123893E+03  0.00000000000E+00 0.  1.
<mgrwt>
<rscale>  2 0.17940004E+03</rscale>
<asrwt>0</asrwt>
<pdfrwt beam="1">  1       21 0.11402732E-01 0.17949882E+03</pdfrwt>
<pdfrwt beam="2">  1       21 0.72649103E-01 0.17949882E+03</pdfrwt>
<totfact> 0.11026078E+05</totfact>
</mgrwt>
</event>
<event>
12    1  0.1019868E-001  0.1770904E+03  0.7546771E-02  0.1171627E+00
         21   -1    0    0  501  502  0.00000000000E+00  0.00000000000E+00  0.10441034773E+03  0.10441034773E+03  0.00000000000E+00 0.  1.
         21   -1    0    0  502  503 -0.00000000000E+00 -0.00000000000E+00 -0.29915491519E+03  0.29915491519E+03  0.00000000000E+00 0.  1.
         -6    2    1    2    0  503 -0.16389742883E+02 -0.25679568039E+02 -0.69229818783E+02  0.18650543274E+03  0.17048004207E+03 0.  0.
        -24    2    3    3    0    0  0.16595518751E+02  0.42631535177E+02 -0.63408950711E+02  0.11027940822E+03  0.77768848608E+02 0.  0.
          6    2    1    2  501    0  0.16389742883E+02  0.25679568039E+02 -0.12551474867E+03  0.21705983018E+03  0.17445043382E+03 0.  0.
         24    2    5    5    0    0 -0.82032422213E+01  0.82973492882E+02 -0.99212063014E+02  0.14922672608E+03  0.73984380944E+02 0.  0.
          5    1    5    5  501    0  0.24592985105E+02 -0.57293924843E+02 -0.26302685655E+02  0.67833104108E+02  0.47000000000E+01 0. -1.
        -13    1    6    6    0    0  0.22626427748E+02  0.40855045189E+02 -0.13055747506E+02  0.48492705564E+02  0.00000000000E+00 0.  1.
         14    1    6    6    0    0 -0.30829669969E+02  0.42118447693E+02 -0.86156315508E+02  0.10073402051E+03  0.00000000000E+00 0. -1.
         -5    1    3    3    0  503 -0.32985261635E+02 -0.68311103216E+02 -0.58208680719E+01  0.76226024511E+02  0.47000000000E+01 0.  1.
         13    1    4    4    0    0  0.36078383906E+02  0.46598244857E+01 -0.32548314599E+01  0.36523385349E+02  0.00000000000E+00 0. -1.
        -14    1    4    4    0    0 -0.19482865155E+02  0.37971710692E+02 -0.60154119251E+02  0.73756022875E+02  0.00000000000E+00 0.  1.
<mgrwt>
<rscale>  2 0.17610476E+03</rscale>
<asrwt>0</asrwt>
<pdfrwt beam="1">  1       21 0.16063130E-01 0.17709042E+03</pdfrwt>
<pdfrwt beam="2">  1       21 0.46023833E-01 0.17709042E+03</pdfrwt>
<totfact> 0.15740379E+05</totfact>
</mgrwt>
</event>
<event>
12    1  0.1019868E-001  0.3633504E+03  0.7546771E-02  0.1057296E+00
         21   -1    0    0  503  502  0.00000000000E+00  0.00000000000E+00  0.62031570647E+03  0.62031570647E+03  0.00000000000E+00 0.  1.
         21   -1    0    0  501  503 -0.00000000000E+00 -0.00000000000E+00 -0.27576613572E+03  0.27576613572E+03  0.00000000000E+00 0. -1.
          6    2    1    2  501    0  0.28908850807E+03 -0.13575270671E+03  0.38668326212E+03  0.53061043668E+03  0.17327009965E+03 0.  0.
         24    2    3    3    0    0  0.27922661538E+03 -0.16293658477E+03  0.36495567298E+03  0.49413581148E+03  0.80384846566E+02 0.  0.
         -6    2    1    2    0  502 -0.28908850807E+03  0.13575270671E+03 -0.42133691368E+02  0.36547140552E+03  0.17260688695E+03 0.  0.
        -24    2    5    5    0    0 -0.19478663382E+03  0.16257039353E+03 -0.23355470671E+02  0.26553771056E+03  0.74791925744E+02 0.  0.
          5    1    3    3  501    0  0.98618926904E+01  0.27183878053E+02  0.21727589142E+02  0.36474625198E+02  0.47000000000E+01 0. -1.
        -13    1    4    4    0    0  0.74662018917E+02 -0.35036396101E+02  0.14919264045E+03  0.17047114150E+03  0.00000000000E+00 0.  1.
         14    1    4    4    0    0  0.20456459646E+03 -0.12790018867E+03  0.21576303252E+03  0.32366466998E+03  0.00000000000E+00 0. -1.
         -5    1    5    5    0  502 -0.94301874257E+02 -0.26817686814E+02 -0.18778220698E+02  0.99933694953E+02  0.47000000000E+01 0.  1.
         11    1    6    6    0    0 -0.15933479648E+03  0.99231402625E+02 -0.37932796758E+02  0.19150286083E+03  0.00000000000E+00 0. -1.
        -12    1    6    6    0    0 -0.35451837332E+02  0.63338990904E+02  0.14577326088E+02  0.74034849732E+02  0.00000000000E+00 0.  1.
<mgrwt>
<rscale>  2 0.36327139E+03</rscale>
<asrwt>0</asrwt>
<pdfrwt beam="1">  1       21 0.95433185E-01 0.36335037E+03</pdfrwt>
<pdfrwt beam="2">  1       21 0.42425560E-01 0.36335037E+03</pdfrwt>
<totfact> 0.44351115E+03</totfact>
</mgrwt>
</event>
<event>
12    1  0.1019868E-001  0.1830238E+03  0.7546771E-02  0.1165714E+00
         21   -1    0    0  503  502  0.00000000000E+00  0.00000000000E+00  0.83311756201E+03  0.83311756201E+03  0.00000000000E+00 0.  1.
         21   -1    0    0  501  503 -0.00000000000E+00 -0.00000000000E+00 -0.61721260349E+02  0.61721260349E+02  0.00000000000E+00 0.  1.
          6    2    1    2  501    0 -0.45485337195E+02 -0.14820876580E+02  0.65661860021E+03  0.68164923590E+03  0.17666103244E+03 0.  0.
         24    2    3    3    0    0  0.39304153562E+02  0.17691887559E+02  0.34938115496E+03  0.36123813226E+03  0.81043058829E+02 0.  0.
         -6    2    1    2    0  502  0.45485337195E+02  0.14820876580E+02  0.11477770146E+03  0.21318958646E+03  0.17316842882E+03 0.  0.
        -24    2    5    5    0    0  0.89742407692E+01  0.35871618622E+02  0.13926549462E+03  0.16422086259E+03  0.78780097096E+02 0.  0.
          5    1    3    3  501    0 -0.84789490757E+02 -0.32512764139E+02  0.30723744525E+03  0.32041110364E+03  0.47000000000E+01 0. -1.
        -11    1    4    4    0    0  0.18706514562E+02 -0.55066162366E+01  0.31222542285E+03  0.31283377565E+03  0.00000000000E+00 0.  1.
         12    1    4    4    0    0  0.20597638999E+02  0.23198503796E+02  0.37155732108E+02  0.48404356614E+02  0.00000000000E+00 0. -1.
         -5    1    5    5    0  502  0.36511096426E+02 -0.21050742042E+02 -0.24487793169E+02  0.48968723866E+02  0.47000000000E+01 0.  1.
         11    1    6    6    0    0  0.30519503599E+02  0.49721996727E+02  0.11493174425E+03  0.12889151599E+03  0.00000000000E+00 0. -1.
        -12    1    6    6    0    0 -0.21545262830E+02 -0.13850378105E+02  0.24333750373E+02  0.35329346601E+02  0.00000000000E+00 0.  1.
<mgrwt>
<rscale>  2 0.18217566E+03</rscale>
<asrwt>0</asrwt>
<pdfrwt beam="1">  1       21 0.12817192E+00 0.18302375E+03</pdfrwt>
<pdfrwt beam="2">  1       21 0.94955791E-02 0.18302375E+03</pdfrwt>
<totfact> 0.40036927E+04</totfact>
</mgrwt>
</event>
<event>
12    1  0.1019868E-001  0.2225526E+03  0.7546771E-02  0.1132005E+00
         21   -1    0    0  503  502  0.00000000000E+00  0.00000000000E+00  0.35254484169E+02  0.35254484169E+02  0.00000000000E+00 0.  1.
         21   -1    0    0  501  503 -0.00000000000E+00 -0.00000000000E+00 -0.14345238783E+04  0.14345238783E+04  0.00000000000E+00 0.  1.
          6    2    1    2  501    0 -0.13519105384E+03 -0.33592821033E+02 -0.80579269771E+03  0.83594536623E+03  0.17348684382E+03 0.  0.
         24    2    3    3    0    0 -0.47332578628E+02 -0.45584381689E+02 -0.63228775782E+03  0.64103778978E+03  0.82603452582E+02 0.  0.
         -6    2    1    2    0  502  0.13519105384E+03  0.33592821033E+02 -0.59347669642E+03  0.63383299624E+03  0.17356433752E+03 0.  0.
        -24    2    5    5    0    0  0.30011093543E+02 -0.35748216124E+02 -0.19678396425E+03  0.21759001763E+03  0.80267593053E+02 0.  0.
          5    1    3    3  501    0 -0.87858475212E+02  0.11991560656E+02 -0.17350493988E+03  0.19490757645E+03  0.47000000000E+01 0. -1.
        -13    1    4    4    0    0 -0.56594490600E+02 -0.11701280233E+01 -0.26638784516E+03  0.27233580304E+03  0.00000000000E+00 0.  1.
         14    1    4    4    0    0  0.92619119724E+01 -0.44414253666E+02 -0.36589991266E+03  0.36870198674E+03  0.00000000000E+00 0. -1.
         -5    1    5    5    0  502  0.10517996030E+03  0.69341037157E+02 -0.39669273217E+03  0.41624297861E+03  0.47000000000E+01 0.  1.
         11    1    6    6    0    0  0.24454526337E+02 -0.11262044857E+02 -0.18956050024E+03  0.19146289657E+03  0.00000000000E+00 0. -1.
        -12    1    6    6    0    0  0.55565672065E+01 -0.24486171267E+02 -0.72234640098E+01  0.26127121057E+02  0.00000000000E+00 0.  1.
<mgrwt>
<rscale>  2 0.22253753E+03</rscale>
<asrwt>0</asrwt>
<pdfrwt beam="1">  1       21 0.54237660E-02 0.22255264E+03</pdfrwt>
<pdfrwt beam="2">  1       21 0.22069601E+00 0.22255264E+03</pdfrwt>
<totfact> 0.22814555E+04</totfact>
</mgrwt>
</event>
<event>
12    1  0.1019868E-001  0.2298293E+03  0.7546771E-02  0.1127183E+00
         21   -1    0    0  501  502  0.00000000000E+00  0.00000000000E+00  0.21624975896E+03  0.21624975896E+03  0.00000000000E+00 0. -1.
         21   -1    0    0  502  503 -0.00000000000E+00 -0.00000000000E+00 -0.36658623973E+03  0.36658623973E+03  0.00000000000E+00 0.  1.
         -6    2    1    2    0  503 -0.36992770159E+02 -0.14531015270E+03 -0.24497958267E+03  0.33428255326E+03  0.17101556644E+03 0.  0.
        -24    2    3    3    0    0 -0.64844089377E+02 -0.58705301080E+02 -0.20065905655E+03  0.23297857830E+03  0.79774009982E+02 0.  0.
          6    2    1    2  501    0  0.36992770159E+02  0.14531015270E+03  0.94643101897E+02  0.24855344543E+03  0.17417804964E+03 0.  0.
         24    2    5    5    0    0  0.12685977285E+01  0.41645520336E+02  0.10564817671E+03  0.13825487712E+03  0.78847416570E+02 0.  0.
          5    1    5    5  501    0  0.35724172430E+02  0.10366463237E+03 -0.11005074817E+02  0.11029856831E+03  0.47000000000E+01 0. -1.
        -11    1    6    6    0    0 -0.71866275494E+00 -0.17349990738E+02  0.15022618142E+00  0.17365518209E+02  0.00000000000E+00 0.  1.
         12    1    6    6    0    0  0.19872604835E+01  0.58995511074E+02  0.10549795053E+03  0.12088935891E+03  0.00000000000E+00 0. -1.
         -5    1    3    3    0  503  0.27851319218E+02 -0.86604851622E+02 -0.44320526113E+02  0.10130397495E+03  0.47000000000E+01 0.  1.
         13    1    4    4    0    0 -0.23351175299E+02  0.18494779228E+02 -0.38826288928E+02  0.48936846633E+02  0.00000000000E+00 0. -1.
        -14    1    4    4    0    0 -0.41492914078E+02 -0.77200080308E+02 -0.16183276763E+03  0.18404173167E+03  0.00000000000E+00 0.  1.
<mgrwt>
<rscale>  2 0.22923010E+03</rscale>
<asrwt>0</asrwt>
<pdfrwt beam="1">  1       21 0.33269194E-01 0.22982928E+03</pdfrwt>
<pdfrwt beam="2">  1       21 0.56397883E-01 0.22982928E+03</pdfrwt>
<totfact> 0.25215666E+04</totfact>
</mgrwt>
</event>
<event>
12    1  0.1019868E-001  0.1766936E+03  0.7546771E-02  0.1171249E+00
         21   -1    0    0  503  502  0.00000000000E+00  0.00000000000E+00  0.61937983621E+02  0.61937983621E+02  0.00000000000E+00 0.  1.
         21   -1    0    0  501  503 -0.00000000000E+00 -0.00000000000E+00 -0.13445298046E+04  0.13445298046E+04  0.00000000000E+00 0.  1.
          6    2    1    2  501    0 -0.26370949147E+02 -0.20465788789E+02 -0.11975145004E+04  0.12103586684E+04  0.17266398636E+03 0.  0.
         24    2    3    3    0    0  0.45284507103E+02 -0.96613411964E+01 -0.87167629543E+03  0.87652657547E+03  0.79594254702E+02 0.  0.
         -6    2    1    2    0  502  0.26370949147E+02  0.20465788789E+02 -0.85077320585E+02  0.19610911976E+03  0.17351184659E+03 0.  0.
        -24    2    5    5    0    0 -0.33935292333E+02  0.24269867832E+02 -0.98425106800E+02  0.13404812416E+03  0.80875010920E+02 0.  0.
          5    1    3    3  501    0 -0.71655456250E+02 -0.10804447592E+02 -0.32583820492E+03  0.33383209295E+03  0.47000000000E+01 0. -1.
        -11    1    4    4    0    0  0.10637499595E+01  0.29654847038E+02 -0.41025791499E+03  0.41132967110E+03  0.00000000000E+00 0.  1.
         12    1    4    4    0    0  0.44220757144E+02 -0.39316188234E+02 -0.46141838044E+03  0.46519690437E+03  0.00000000000E+00 0. -1.
         -5    1    5    5    0  502  0.60306241480E+02 -0.38040790435E+01  0.13347786214E+02  0.62060995606E+02  0.47000000000E+01 0.  1.
         11    1    6    6    0    0 -0.39747652100E+02  0.47409508326E+02 -0.89010555719E+02  0.10839933744E+03  0.00000000000E+00 0. -1.
        -12    1    6    6    0    0  0.58123597667E+01 -0.23139640494E+02 -0.94145510802E+01  0.25648786721E+02  0.00000000000E+00 0.  1.
<mgrwt>
<rscale>  2 0.17648512E+03</rscale>
<asrwt>0</asrwt>
<pdfrwt beam="1">  1       21 0.95289204E-02 0.17669362E+03</pdfrwt>
<pdfrwt beam="2">  1       21 0.20685074E+00 0.17669362E+03</pdfrwt>
<totfact> 0.10880593E+04</totfact>
</mgrwt>
</event>
<event>
12    1  0.1019868E-001  0.1980501E+03  0.7546771E-02  0.1151634E+00
         21   -1    0    0  501  502  0.00000000000E+00  0.00000000000E+00  0.13266326161E+02  0.13266326161E+02  0.00000000000E+00 0.  1.
         21   -1    0    0  502  503 -0.00000000000E+00 -0.00000000000E+00 -0.30432877729E+04  0.30432877729E+04  0.00000000000E+00 0.  1.
         -6    2    1    2    0  503 -0.21779920041E+02  0.92810059468E+02 -0.18007358390E+04  0.18115941611E+04  0.17359657356E+03 0.  0.
        -24    2    3    3    0    0 -0.48213653069E+02  0.11294221987E+03 -0.10746615880E+04  0.10847448272E+04  0.81812652054E+02 0.  0.
          6    2    1    2  501    0  0.21779920041E+02 -0.92810059468E+02 -0.12292856077E+04  0.12449599380E+04  0.17231967346E+03 0.  0.
         24    2    5    5    0    0  0.32663276489E+02 -0.11768675159E+03 -0.11744900923E+04  0.11836253167E+04  0.81393196002E+02 0.  0.
          5    1    5    5  501    0 -0.10883356448E+02  0.24876692123E+02 -0.54795515424E+02  0.61334621293E+02  0.47000000000E+01 0. -1.
        -11    1    6    6    0    0  0.13830124409E+02 -0.31633578673E+02 -0.10536133709E+03  0.11087365329E+03  0.00000000000E+00 0.  1.
         12    1    6    6    0    0  0.18833152080E+02 -0.86053172918E+02 -0.10691287552E+04  0.10727516634E+04  0.00000000000E+00 0. -1.
         -5    1    3    3    0  503  0.26433733029E+02 -0.20132160397E+02 -0.72607425104E+03  0.72684933387E+03  0.47000000000E+01 0.  1.
         11    1    4    4    0    0  0.59637868356E+01 -0.93766269329E+01 -0.15577157317E+03  0.15616744505E+03  0.00000000000E+00 0. -1.
        -12    1    4    4    0    0 -0.54177439905E+02  0.12231884680E+03 -0.91889001484E+03  0.92857738215E+03  0.00000000000E+00 0.  1.
<mgrwt>
<rscale>  2 0.19776994E+03</rscale>
<asrwt>0</asrwt>
<pdfrwt beam="1">  1       21 0.20409706E-02 0.19805010E+03</pdfrwt>
<pdfrwt beam="2">  1       21 0.46819873E+00 0.19805010E+03</pdfrwt>
<totfact> 0.37124230E+03</totfact>
</mgrwt>
</event>
<event>
12    1  0.1019868E-001  0.1808251E+03  0.7546771E-02  0.1167377E+00
         21   -1    0    0  501  502  0.00000000000E+00  0.00000000000E+00  0.17306932609E+03  0.17306932609E+03  0.00000000000E+00 0. -1.
         21   -1    0    0  502  503 -0.00000000000E+00 -0.00000000000E+00 -0.19786259028E+03  0.19786259028E+03  0.00000000000E+00 0. -1.
         -6    2    1    2    0  503  0.24685475631E+02 -0.39951977720E+02 -0.55135011016E+02  0.18757888844E+03  0.17303305094E+03 0.  0.
        -24    2    3    3    0    0 -0.16866935977E+02 -0.68965673130E+02  0.70650538306E+01  0.10720889716E+03  0.80019216722E+02 0.  0.
          6    2    1    2  501    0 -0.24685475631E+02  0.39951977720E+02  0.30341746823E+02  0.18335302794E+03  0.17462009627E+03 0.  0.
         24    2    5    5    0    0 -0.24245944600E+02 -0.43154166868E+02  0.33176525750E+02  0.10006467084E+03  0.80387241166E+02 0.  0.
          5    1    5    5  501    0 -0.43953103182E+00  0.83106144588E+02 -0.28347789269E+01  0.83288357094E+02  0.47000000000E+01 0. -1.
        -13    1    6    6    0    0 -0.33594620286E+02 -0.20338863696E+02  0.54698573482E+02  0.67336482159E+02  0.00000000000E+00 0.  1.
         14    1    6    6    0    0  0.93486756866E+01 -0.22815303172E+02 -0.21522047732E+02  0.32728188683E+02  0.00000000000E+00 0. -1.
         -5    1    3    3    0  503  0.41552411608E+02  0.29013695410E+02 -0.62200064847E+02  0.80369991282E+02  0.47000000000E+01 0.  1.
         11    1    4    4    0    0 -0.37194985770E+02 -0.10702147409E+02 -0.15235859546E+02  0.41594883600E+02  0.00000000000E+00 0. -1.
        -12    1    4    4    0    0  0.20328049793E+02 -0.58263525721E+02  0.22300913376E+02  0.65614013558E+02  0.00000000000E+00 0.  1.
<mgrwt>
<rscale>  2 0.18044083E+03</rscale>
<asrwt>0</asrwt>
<pdfrwt beam="1">  1       21 0.26626050E-01 0.18082508E+03</pdfrwt>
<pdfrwt beam="2">  1       21 0.30440398E-01 0.18082508E+03</pdfrwt>
<totfact> 0.13958907E+05</totfact>
</mgrwt>
</event>
<event>
12    1  0.1019868E-001  0.3306296E+03  0.7546771E-02  0.1071595E+00
         21   -1    0    0  501  502  0.00000000000E+00  0.00000000000E+00  0.11421697928E+04  0.11421697928E+04  0.00000000000E+00 0. -1.
         21   -1    0    0  502  503 -0.00000000000E+00 -0.00000000000E+00 -0.25631746022E+03  0.25631746022E+03  0.00000000000E+00 0. -1.
         -6    2    1    2    0  503 -0.78157640695E+02 -0.26362467341E+03 -0.11547016867E+03  0.34399082706E+03  0.17143437233E+03 0.  0.
        -24    2    3    3    0    0 -0.34508177582E+02 -0.20387491948E+03 -0.19638592762E+02  0.22282528053E+03  0.80682304154E+02 0.  0.
          6    2    1    2  501    0  0.78157640695E+02  0.26362467341E+03  0.10013225012E+04  0.10544964259E+04  0.18360113181E+03 0.  0.
         24    2    5    5    0    0  0.79837396040E+02  0.77446607134E+02  0.29916184691E+03  0.32805525941E+03  0.75831759954E+02 0.  0.
          5    1    5    5  501    0 -0.16797553446E+01  0.18617806628E+03  0.70216065433E+03  0.72644116653E+03  0.47000000000E+01 0. -1.
        -11    1    6    6    0    0  0.50401623606E+02  0.23006590050E+02  0.22370969463E+03  0.23046833691E+03  0.00000000000E+00 0.  1.
         12    1    6    6    0    0  0.29435772434E+02  0.54440017085E+02  0.75452152277E+02  0.97586922496E+02  0.00000000000E+00 0. -1.
         -5    1    3    3    0  503 -0.43649463113E+02 -0.59749753929E+02 -0.95831575909E+02  0.12116554653E+03  0.47000000000E+01 0.  1.
         13    1    4    4    0    0 -0.23350568858E+02 -0.15343322307E+03 -0.49812539335E+02  0.16299782846E+03  0.00000000000E+00 0. -1.
        -14    1    4    4    0    0 -0.11157608724E+02 -0.50441696410E+02  0.30173946573E+02  0.59827452068E+02  0.00000000000E+00 0.  1.
<mgrwt>
<rscale>  2 0.32896758E+03</rscale>
<asrwt>0</asrwt>
<pdfrwt beam="1">  1       21 0.17571843E+00 0.33062964E+03</pdfrwt>
<pdfrwt beam="2">  1       21 0.39433456E-01 0.33062964E+03</pdfrwt>
<totfact> 0.10789205E+03</totfact>
</mgrwt>
</event>
<event>
12    1  0.1019868E-001  0.1836374E+03  0.7546771E-02  0.1164389E+00
         21   -1    0    0  501  502  0.00000000000E+00  0.00000000000E+00  0.30148340507E+03  0.30148340507E+03  0.00000000000E+00 0. -1.
         21   -1    0    0  502  503 -0.00000000000E+00 -0.00000000000E+00 -0.11189209440E+03  0.11189209440E+03  0.00000000000E+00 0.  1.
         -6    2    1    2    0  503  0.55506485295E+01  0.59490490032E+02  0.86312119160E+02  0.20291004744E+03  0.17364555086E+03 0.  0.
        -24    2    3    3    0    0 -0.18911765056E+02  0.54439872757E+02  0.12254830023E+03  0.15864867340E+03  0.82643578563E+02 0.  0.
          6    2    1    2  501    0 -0.55506485295E+01 -0.59490490032E+02  0.10327919151E+03  0.21046545203E+03  0.17337585471E+03 0.  0.
         24    2    5    5    0    0  0.60901329951E+02 -0.47879565190E+02  0.45386753316E+02  0.12144689542E+03  0.81779987032E+02 0.  0.
          5    1    5    5  501    0 -0.66451978481E+02 -0.11610924841E+02  0.57892438194E+02  0.89018556603E+02  0.47000000000E+01 0. -1.
        -11    1    6    6    0    0  0.22907330609E+02 -0.52981894025E+02 -0.52224702674E+01  0.57957752595E+02  0.00000000000E+00 0.  1.
         12    1    6    6    0    0  0.37993999342E+02  0.51023288346E+01  0.50609223583E+02  0.63489142829E+02  0.00000000000E+00 0. -1.
         -5    1    3    3    0  503  0.24462413586E+02  0.50506172749E+01 -0.36236181071E+02  0.44261374040E+02  0.47000000000E+01 0.  1.
         11    1    4    4    0    0 -0.35464467156E+02 -0.44338685430E+01  0.67443252319E+02  0.76328106909E+02  0.00000000000E+00 0. -1.
        -12    1    4    4    0    0  0.16552702100E+02  0.58873741300E+02  0.55105047911E+02  0.82320566487E+02  0.00000000000E+00 0.  1.
<mgrwt>
<rscale>  2 0.18357365E+03</rscale>
<asrwt>0</asrwt>
<pdfrwt beam="1">  1       21 0.46382062E-01 0.18363743E+03</pdfrwt>
<pdfrwt beam="2">  1       21 0.17214168E-01 0.18363743E+03</pdfrwt>
<totfact> 0.13615581E+05</totfact>
</mgrwt>
</event>
<event>
12    1  0.1019868E-001  0.2126049E+03  0.7546771E-02  0.1139790E+00
         21   -1    0    0  501  502  0.00000000000E+00  0.00000000000E+00  0.28976671017E+03  0.28976671017E+03  0.00000000000E+00 0.  1.
         21   -1    0    0  502  503 -0.00000000000E+00 -0.00000000000E+00 -0.17756534780E+03  0.17756534780E+03  0.00000000000E+00 0. -1.
         -6    2    1    2    0  503 -0.10431188229E+03 -0.60334764601E+02 -0.27077598406E+02  0.21432232884E+03  0.17515596393E+03 0.  0.
        -24    2    3    3    0    0  0.34487572075E+01  0.41995184351E+01 -0.34490626439E+02  0.88409374402E+02  0.81222437101E+02 0.  0.
          6    2    1    2  501    0  0.10431188229E+03  0.60334764601E+02  0.13927896077E+03  0.25300972912E+03  0.17347634279E+03 0.  0.
         24    2    5    5    0    0  0.62969252665E+02  0.10003407716E+03  0.73795568406E+02  0.16585806179E+03  0.89950916456E+02 0.  0.
          5    1    5    5  501    0  0.41342629624E+02 -0.39699312558E+02  0.65483392368E+02  0.87151667326E+02  0.47000000000E+01 0. -1.
        -11    1    6    6    0    0 -0.13829578958E+01  0.34569764011E+02  0.65007665019E+02  0.73640869547E+02  0.00000000000E+00 0.  1.
         12    1    6    6    0    0  0.64352210561E+02  0.65464313147E+02  0.87879033868E+01  0.92217192247E+02  0.00000000000E+00 0. -1.
         -5    1    3    3    0  503 -0.10776063950E+03 -0.64534283036E+02  0.74130280324E+01  0.12591295444E+03  0.47000000000E+01 0.  1.
         13    1    4    4    0    0  0.41207854717E+02 -0.74565045221E+01 -0.17061869410E+02  0.45219400016E+02  0.00000000000E+00 0. -1.
        -14    1    4    4    0    0 -0.37759097509E+02  0.11656022957E+02 -0.17428757028E+02  0.43189974386E+02  0.00000000000E+00 0.  1.
<mgrwt>
<rscale>  2 0.21225870E+03</rscale>
<asrwt>0</asrwt>
<pdfrwt beam="1">  1       21 0.44579494E-01 0.21260495E+03</pdfrwt>
<pdfrwt beam="2">  1       21 0.27317746E-01 0.21260495E+03</pdfrwt>
<totfact> 0.61168498E+04</totfact>
</mgrwt>
</event>
<event>
12    1  0.1019868E-001  0.2112264E+03  0.7546771E-02  0.1140770E+00
         21   -1    0    0  501  502  0.00000000000E+00  0.00000000000E+00  0.52017295960E+03  0.52017295960E+03  0.00000000000E+00 0. -1.
         21   -1    0    0  502  503 -0.00000000000E+00 -0.00000000000E+00 -0.85419812173E+02  0.85419812173E+02  0.00000000000E+00 0. -1.
         -6    2    1    2    0  503 -0.70951503812E+00  0.11965072599E+03  0.21664285195E+03  0.30257348236E+03  0.17406834086E+03 0.  0.
        -24    2    3    3    0    0  0.63280780432E+00 -0.95685231683E+01  0.96234411230E+02  0.12588251265E+03  0.80581561191E+02 0.  0.
          6    2    1    2  501    0  0.70951503812E+00 -0.11965072599E+03  0.21811029548E+03  0.30301928941E+03  0.17300806084E+03 0.  0.
         24    2    5    5    0    0 -0.23932073938E+02 -0.22312153704E+02  0.35423967737E+02  0.94504565932E+02  0.81275329134E+02 0.  0.
          5    1    5    5  501    0  0.24641588976E+02 -0.97338572286E+02  0.18268632774E+03  0.20851472348E+03  0.47000000000E+01 0. -1.
        -13    1    6    6    0    0  0.13728918252E+02  0.23388109207E+01  0.46172978575E+02  0.48227556266E+02  0.00000000000E+00 0.  1.
         14    1    6    6    0    0 -0.37660992190E+02 -0.24650964625E+02 -0.10749010838E+02  0.46277009666E+02  0.00000000000E+00 0. -1.
         -5    1    3    3    0  503 -0.13423228424E+01  0.12921924916E+03  0.12040844072E+03  0.17669096972E+03  0.47000000000E+01 0.  1.
         13    1    4    4    0    0  0.33269787762E+02  0.52629102865E+01  0.14576822949E+02  0.36702326489E+02  0.00000000000E+00 0. -1.
        -14    1    4    4    0    0 -0.32636979958E+02 -0.14831433455E+02  0.81657588281E+02  0.89180186157E+02  0.00000000000E+00 0.  1.
<mgrwt>
<rscale>  2 0.21100782E+03</rscale>
<asrwt>0</asrwt>
<pdfrwt beam="1">  1       21 0.80026607E-01 0.21122639E+03</pdfrwt>
<pdfrwt beam="2">  1       21 0.13141510E-01 0.21122639E+03</pdfrwt>
<totfact> 0.67928139E+04</totfact>
</mgrwt>
</event>
<event>
12    1  0.1019868E-001  0.1756795E+03  0.7546771E-02  0.1172976E+00
         21   -1    0    0  503  502  0.00000000000E+00  0.00000000000E+00  0.39099802348E+03  0.39099802348E+03  0.00000000000E+00 0.  1.
         21   -1    0    0  501  503 -0.00000000000E+00 -0.00000000000E+00 -0.11468234246E+03  0.11468234246E+03  0.00000000000E+00 0.  1.
          6    2    1    2  501    0 -0.11642742936E+02 -0.22358191161E+02 -0.71778093592E+01  0.17216596128E+03  0.17015920516E+03 0.  0.
         24    2    3    3    0    0 -0.48721122593E+02  0.34126495730E+02  0.22147791639E+02  0.98359410318E+02  0.75137762983E+02 0.  0.
         -6    2    1    2    0  502  0.11642742936E+02  0.22358191161E+02  0.28349349038E+03  0.33351440465E+03  0.17386160256E+03 0.  0.
        -24    2    5    5    0    0 -0.20243993199E+02 -0.29592894777E+02  0.72688052889E+02  0.11402248738E+03  0.80199849833E+02 0.  0.
          5    1    3    3  501    0  0.37078379657E+02 -0.56484686891E+02 -0.29325600998E+02  0.73806550963E+02  0.47000000000E+01 0. -1.
        -13    1    4    4    0    0 -0.37027822140E+02  0.10877037921E+02 -0.23952089173E+02  0.45421053952E+02  0.00000000000E+00 0.  1.
         14    1    4    4    0    0 -0.11693300453E+02  0.23249457808E+02  0.46099880811E+02  0.52938356366E+02  0.00000000000E+00 0. -1.
         -5    1    5    5    0  502  0.31886736136E+02  0.51951085939E+02  0.21080543749E+03  0.21949191727E+03  0.47000000000E+01 0.  1.
         13    1    6    6    0    0 -0.19565389370E+02 -0.21350204618E+02  0.90157427381E+02  0.94694231136E+02  0.00000000000E+00 0. -1.
        -14    1    6    6    0    0 -0.67860382950E+00 -0.82426901595E+01 -0.17469374492E+02  0.19328256243E+02  0.00000000000E+00 0.  1.
<mgrwt>
<rscale>  2 0.17475647E+03</rscale>
<asrwt>0</asrwt>
<pdfrwt beam="1">  1       21 0.60153541E-01 0.17567954E+03</pdfrwt>
<pdfrwt beam="2">  1       21 0.17643438E-01 0.17567954E+03</pdfrwt>
<totfact> 0.75616889E+04</totfact>
</mgrwt>
</event>
<event>
12    1  0.1019868E-001  0.2068525E+03  0.7546771E-02  0.1144099E+00
         21   -1    0    0  501  502  0.00000000000E+00  0.00000000000E+00  0.14565898270E+03  0.14565898270E+03  0.00000000000E+00 0. -1.
         21   -1    0    0  502  503 -0.00000000000E+00 -0.00000000000E+00 -0.14988491100E+04  0.14988491100E+04  0.00000000000E+00 0.  1.
         -6    2    1    2    0  503  0.11350679157E+03 -0.72404884437E+01 -0.14139443692E+04  0.14289949747E+04  0.17277656703E+03 0.  0.
        -24    2    3    3    0    0 -0.30986743361E-01  0.23933749919E+02 -0.76180516872E+03  0.76629573141E+03  0.79304524180E+02 0.  0.
          6    2    1    2  501    0 -0.11350679157E+03  0.72404884437E+01  0.60754241885E+02  0.21551311802E+03  0.17268065823E+03 0.  0.
         24    2    5    5    0    0  0.11109219468E+02  0.55203357709E+01  0.84780899462E+01  0.80283701132E+02  0.78865111387E+02 0.  0.
          5    1    5    5  501    0 -0.12461601103E+03  0.17201526728E+01  0.52276151938E+02  0.13522941689E+03  0.47000000000E+01 0. -1.
        -11    1    6    6    0    0  0.35125168756E+01  0.71745621255E+01 -0.35110193195E+02  0.36007468429E+02  0.00000000000E+00 0.  1.
         12    1    6    6    0    0  0.75967025923E+01 -0.16542263547E+01  0.43588283141E+02  0.44276232702E+02  0.00000000000E+00 0. -1.
         -5    1    3    3    0  503  0.11353777831E+03 -0.31174238362E+02 -0.65213920046E+03  0.66269924326E+03  0.47000000000E+01 0.  1.
         11    1    4    4    0    0 -0.30304383724E+01 -0.25310507862E+02 -0.12444531722E+03  0.12702929718E+03  0.00000000000E+00 0. -1.
        -12    1    4    4    0    0  0.29994516290E+01  0.49244257781E+02 -0.63735985150E+03  0.63926643423E+03  0.00000000000E+00 0.  1.
<mgrwt>
<rscale>  2 0.20683248E+03</rscale>
<asrwt>0</asrwt>
<pdfrwt beam="1">  1       21 0.22409073E-01 0.20685250E+03</pdfrwt>
<pdfrwt beam="2">  1       21 0.23059219E+00 0.20685250E+03</pdfrwt>
<totfact> 0.15919286E+03</totfact>
</mgrwt>
</event>
<event>
12    1  0.1019868E-001  0.1998931E+03  0.7546771E-02  0.1149857E+00
         21   -1    0    0  503  502  0.00000000000E+00  0.00000000000E+00  0.10589589641E+03  0.10589589641E+03  0.00000000000E+00 0.  1.
         21   -1    0    0  501  503 -0.00000000000E+00 -0.00000000000E+00 -0.66570398931E+03  0.66570398931E+03  0.00000000000E+00 0. -1.
          6    2    1    2  501    0 -0.97252798626E+02 -0.30067105980E+01 -0.53388392703E+03  0.57003269238E+03  0.17446511309E+03 0.  0.
         24    2    3    3    0    0 -0.41748887138E+02  0.48714912721E+02 -0.17471555850E+03  0.20290898371E+03  0.80810995476E+02 0.  0.
         -6    2    1    2    0  502  0.97252798626E+02  0.30067105980E+01 -0.25924165867E+02  0.20156719334E+03  0.17461421451E+03 0.  0.
        -24    2    5    5    0    0  0.12511832591E+03  0.10230771572E+01 -0.56810869047E+02  0.15965656408E+03  0.81284078678E+02 0.  0.
          5    1    3    3  501    0 -0.55503911488E+02 -0.51721623319E+02 -0.35916836854E+03  0.36712370867E+03  0.47000000000E+01 0. -1.
        -13    1    4    4    0    0  0.22533829054E+02  0.37853806736E+01 -0.57519439076E+02  0.61891747675E+02  0.00000000000E+00 0.  1.
         14    1    4    4    0    0 -0.64282716192E+02  0.44929532048E+02 -0.11719611942E+03  0.14101723603E+03  0.00000000000E+00 0. -1.
         -5    1    5    5    0  502 -0.27865527280E+02  0.19836334408E+01  0.30886703180E+02  0.41910629267E+02  0.47000000000E+01 0.  1.
         11    1    6    6    0    0  0.10249197255E+03 -0.22364183938E+02 -0.68264049772E+02  0.12515886565E+03  0.00000000000E+00 0. -1.
        -12    1    6    6    0    0  0.22626353355E+02  0.23387261096E+02  0.11453180725E+02  0.34497698422E+02  0.00000000000E+00 0.  1.
<mgrwt>
<rscale>  2 0.19986058E+03</rscale>
<asrwt>0</asrwt>
<pdfrwt beam="1">  1       21 0.16291677E-01 0.19989315E+03</pdfrwt>
<pdfrwt beam="2">  1       21 0.10241600E+00 0.19989315E+03</pdfrwt>
<totfact> 0.26049632E+04</totfact>
</mgrwt>
</event>
<event>
12    1  0.1019868E-001  0.1949081E+03  0.7546771E-02  0.1154678E+00
         21   -1    0    0  503  502  0.00000000000E+00  0.00000000000E+00  0.20698561453E+03  0.20698561453E+03  0.00000000000E+00 0. -1.
         21   -1    0    0  501  503 -0.00000000000E+00 -0.00000000000E+00 -0.30169397694E+03  0.30169397694E+03  0.00000000000E+00 0. -1.
          6    2    1    2  501    0  0.60152967545E+02  0.66032404741E+02 -0.20834525876E+03  0.28530141761E+03  0.17323537187E+03 0.  0.
         24    2    3    3    0    0  0.86233375340E+02  0.22968065498E+02 -0.81004902944E+02  0.14828907801E+03  0.86395192582E+02 0.  0.
         -6    2    1    2    0  502 -0.60152967545E+02 -0.66032404741E+02  0.11363689635E+03  0.22337817385E+03  0.17031091087E+03 0.  0.
        -24    2    5    5    0    0 -0.89482149715E+02 -0.88117338762E+02  0.11124906442E+03  0.18628724533E+03  0.80962107983E+02 0.  0.
          5    1    3    3  501    0 -0.26080407795E+02  0.43064339243E+02 -0.12734035581E+03  0.13701233960E+03  0.47000000000E+01 0. -1.
        -11    1    4    4    0    0 -0.84245890224E+01  0.91366221211E+01  0.10228779959E+02  0.16095946801E+02  0.00000000000E+00 0.  1.
         12    1    4    4    0    0  0.94657964363E+02  0.13831443377E+02 -0.91233682903E+02  0.13219313121E+03  0.00000000000E+00 0. -1.
         -5    1    5    5    0  502  0.29329182170E+02  0.22084934021E+02  0.23878319269E+01  0.37090928524E+02  0.47000000000E+01 0.  1.
         13    1    6    6    0    0 -0.65744225458E+02 -0.84759836299E+01  0.47551421390E+02  0.81579918826E+02  0.00000000000E+00 0. -1.
        -14    1    6    6    0    0 -0.23737924257E+02 -0.79641355132E+02  0.63697643030E+02  0.10470732650E+03  0.00000000000E+00 0.  1.
<mgrwt>
<rscale>  2 0.19425615E+03</rscale>
<asrwt>0</asrwt>
<pdfrwt beam="1">  1       21 0.31843941E-01 0.19490806E+03</pdfrwt>
<pdfrwt beam="2">  1       21 0.46414458E-01 0.19490806E+03</pdfrwt>
<totfact> 0.42116496E+04</totfact>
</mgrwt>
</event>
<event>
12    1  0.1019868E-001  0.2162552E+03  0.7546771E-02  0.1136823E+00
         21   -1    0    0  501  502  0.00000000000E+00  0.00000000000E+00  0.11822936560E+03  0.11822936560E+03  0.00000000000E+00 0. -1.
         21   -1    0    0  502  503 -0.00000000000E+00 -0.00000000000E+00 -0.40046857693E+03  0.40046857693E+03  0.00000000000E+00 0.  1.
         -6    2    1    2    0  503  0.54339218457E+02 -0.11682770564E+03 -0.10908120824E+03  0.24166005366E+03  0.17291445306E+03 0.  0.
        -24    2    3    3    0    0 -0.96553615527E+00 -0.12595312836E+03 -0.10939526683E+03  0.18540991717E+03  0.80897405253E+02 0.  0.
          6    2    1    2  501    0 -0.54339218457E+02  0.11682770564E+03 -0.17315800309E+03  0.27703788887E+03  0.17368026476E+03 0.  0.
         24    2    5    5    0    0 -0.68787728345E+01  0.41350550699E+02 -0.16396943537E+03  0.18728369904E+03  0.80199891710E+02 0.  0.
          5    1    5    5  501    0 -0.47460445623E+02  0.75477154937E+02 -0.91885677237E+01  0.89754189835E+02  0.47000000000E+01 0. -1.
        -11    1    6    6    0    0 -0.42179377262E+02  0.31216477622E+02 -0.80513519317E+02  0.96104084898E+02  0.00000000000E+00 0.  1.
         12    1    6    6    0    0  0.35300604428E+02  0.10134073078E+02 -0.83455916054E+02  0.91179614139E+02  0.00000000000E+00 0. -1.
         -5    1    3    3    0  503  0.55304754613E+02  0.91254227195E+01  0.31405859328E+00  0.56250136492E+02  0.47000000000E+01 0.  1.
         11    1    4    4    0    0 -0.24491713235E+02 -0.23714068502E+02 -0.35152033042E+00  0.34092882375E+02  0.00000000000E+00 0. -1.
        -12    1    4    4    0    0  0.23526177079E+02 -0.10223905985E+03 -0.10904374650E+03  0.15131703479E+03  0.00000000000E+00 0.  1.
<mgrwt>
<rscale>  2 0.21610136E+03</rscale>
<asrwt>0</asrwt>
<pdfrwt beam="1">  1       21 0.18189133E-01 0.21625517E+03</pdfrwt>
<pdfrwt beam="2">  1       21 0.61610550E-01 0.21625517E+03</pdfrwt>
<totfact> 0.66694322E+04</totfact>
</mgrwt>
</event>
<event>
12    1  0.1019868E-001  0.2590750E+03  0.7546771E-02  0.1107990E+00
         21   -1    0    0  503  502  0.00000000000E+00  0.00000000000E+00  0.18102000985E+03  0.18102000985E+03  0.00000000000E+00 0.  1.
         21   -1    0    0  501  503 -0.00000000000E+00 -0.00000000000E+00 -0.39140976257E+03  0.39140976257E+03  0.00000000000E+00 0. -1.
          6    2    1    2  501    0 -0.51449542712E+02  0.18380522102E+03 -0.17474819346E+03  0.31091462162E+03  0.17233559150E+03 0.  0.
         24    2    3    3    0    0 -0.84839644982E+02  0.66202677471E+02 -0.10855285712E+03  0.17181332855E+03  0.78457231757E+02 0.  0.
         -6    2    1    2    0  502  0.51449542712E+02 -0.18380522102E+03 -0.35641559255E+02  0.26151515080E+03  0.17518115946E+03 0.  0.
        -24    2    5    5    0    0 -0.17484848936E+02 -0.25608175911E+02 -0.50969450873E+01  0.86205941431E+02  0.80274447199E+02 0.  0.
          5    1    3    3  501    0  0.33390102270E+02  0.11760254355E+03 -0.66195336341E+02  0.13910129307E+03  0.47000000000E+01 0. -1.
        -13    1    4    4    0    0 -0.42832672278E+00 -0.26187813521E+01  0.10282467774E+02  0.10619351349E+02  0.00000000000E+00 0.  1.
         14    1    4    4    0    0 -0.84411318259E+02  0.68821458824E+02 -0.11883532489E+03  0.16119397720E+03  0.00000000000E+00 0. -1.
         -5    1    5    5    0  502  0.68934391648E+02 -0.15819704511E+03 -0.30544614168E+02  0.17530920937E+03  0.47000000000E+01 0.  1.
         11    1    6    6    0    0  0.30792536558E+02  0.10014912606E+01 -0.40228076543E+01  0.31070343961E+02  0.00000000000E+00 0. -1.
        -12    1    6    6    0    0 -0.48277385495E+02 -0.26609667172E+02 -0.10741374330E+01  0.55135597470E+02  0.00000000000E+00 0.  1.
<mgrwt>
<rscale>  2 0.25859477E+03</rscale>
<asrwt>0</asrwt>
<pdfrwt beam="1">  1       21 0.27849233E-01 0.25907500E+03</pdfrwt>
<pdfrwt beam="2">  1       21 0.60216886E-01 0.25907500E+03</pdfrwt>
<totfact> 0.30640266E+04</totfact>
</mgrwt>
</event>
<event>
12    1  0.1019868E-001  0.1900304E+03  0.7546771E-02  0.1158534E+00
         21   -1    0    0  503  502  0.00000000000E+00  0.00000000000E+00  0.27660050102E+03  0.27660050102E+03  0.00000000000E+00 0.  1.
         21   -1    0    0  501  503 -0.00000000000E+00 -0.00000000000E+00 -0.13028625408E+03  0.13028625408E+03  0.00000000000E+00 0. -1.
          6    2    1    2  501    0  0.10253836727E+02  0.76068749244E+02  0.76443430973E+02  0.20441830876E+03  0.17335412034E+03 0.  0.
         24    2    3    3    0    0 -0.20077327612E+02  0.20803130643E+02  0.10448703286E+03  0.13526050561E+03  0.80882600191E+02 0.  0.
         -6    2    1    2    0  502 -0.10253836727E+02 -0.76068749244E+02  0.69870815962E+02  0.20246844634E+03  0.17383884796E+03 0.  0.
        -24    2    5    5    0    0 -0.17108394383E+02 -0.11715173985E+03  0.33250036806E+02  0.14680904871E+03  0.80187932550E+02 0.  0.
          5    1    3    3  501    0  0.30331164339E+02  0.55265618600E+02 -0.28043601889E+02  0.69157803149E+02  0.47000000000E+01 0. -1.
        -11    1    4    4    0    0 -0.18425822022E+02  0.49041836178E+02  0.88293683473E+02  0.10266638766E+03  0.00000000000E+00 0.  1.
         12    1    4    4    0    0 -0.16515055905E+01 -0.28238705535E+02  0.16193349389E+02  0.32594117958E+02  0.00000000000E+00 0. -1.
         -5    1    5    5    0  502  0.68545576565E+01  0.41082990610E+02  0.36620779157E+02  0.55659397626E+02  0.47000000000E+01 0.  1.
         13    1    6    6    0    0  0.32407464972E+02 -0.47758290213E+02  0.14905219313E+02  0.59609257945E+02  0.00000000000E+00 0. -1.
        -14    1    6    6    0    0 -0.49515859355E+02 -0.69393449641E+02  0.18344817492E+02  0.87199790766E+02  0.00000000000E+00 0.  1.
<mgrwt>
<rscale>  2 0.18991944E+03</rscale>
<asrwt>0</asrwt>
<pdfrwt beam="1">  1       21 0.42553923E-01 0.19003037E+03</pdfrwt>
<pdfrwt beam="2">  1       21 0.20044039E-01 0.19003037E+03</pdfrwt>
<totfact> 0.12224394E+05</totfact>
</mgrwt>
</event>
<event>
12    1  0.1019868E-001  0.2216948E+03  0.7546771E-02  0.1132865E+00
         21   -1    0    0  501  502  0.00000000000E+00  0.00000000000E+00  0.76728616561E+03  0.76728616561E+03  0.00000000000E+00 0. -1.
         21   -1    0    0  502  503 -0.00000000000E+00 -0.00000000000E+00 -0.89396928459E+02  0.89396928459E+02  0.00000000000E+00 0.  1.
         -6    2    1    2    0  503  0.30497690910E+02  0.13282411871E+03  0.10992106150E+03  0.24744939526E+03  0.17486053813E+03 0.  0.
        -24    2    3    3    0    0  0.41480200642E+02  0.10684680969E+03  0.14578312264E+03  0.20158422838E+03  0.79035653352E+02 0.  0.
          6    2    1    2  501    0 -0.30497690910E+02 -0.13282411871E+03  0.56796817566E+03  0.60923369881E+03  0.17322094430E+03 0.  0.
         24    2    5    5    0    0 -0.59656590520E+01  0.10487311862E+02  0.24564109934E+03  0.25559996054E+03  0.69614778185E+02 0.  0.
          5    1    5    5  501    0 -0.24532031858E+02 -0.14331143057E+03  0.32232707631E+03  0.35363373827E+03  0.47000000000E+01 0. -1.
        -13    1    6    6    0    0  0.13994819189E+02  0.30253071374E+02  0.67766506257E+02  0.75520875671E+02  0.00000000000E+00 0.  1.
         14    1    6    6    0    0 -0.19960478241E+02 -0.19765759512E+02  0.17787459309E+03  0.18007908487E+03  0.00000000000E+00 0. -1.
         -5    1    3    3    0  503 -0.10982509732E+02  0.25977309023E+02 -0.35862061138E+02  0.45865166883E+02  0.47000000000E+01 0.  1.
         11    1    4    4    0    0  0.52758795335E+02  0.51586065153E+02  0.45962097650E+02  0.86931737723E+02  0.00000000000E+00 0. -1.
        -12    1    4    4    0    0 -0.11278594693E+02  0.55260744533E+02  0.99821024987E+02  0.11465249066E+03  0.00000000000E+00 0.  1.
<mgrwt>
<rscale>  2 0.22137132E+03</rscale>
<asrwt>0</asrwt>
<pdfrwt beam="1">  1       21 0.11804402E+00 0.22169475E+03</pdfrwt>
<pdfrwt beam="2">  1       21 0.13753374E-01 0.22169475E+03</pdfrwt>
<totfact> 0.24825283E+04</totfact>
</mgrwt>
</event>
<event>
12    1  0.1019868E-001  0.1936668E+03  0.7546771E-02  0.1155210E+00
         21   -1    0    0  501  502  0.00000000000E+00  0.00000000000E+00  0.31487148739E+03  0.31487148739E+03  0.00000000000E+00 0.  1.
         21   -1    0    0  502  503 -0.00000000000E+00 -0.00000000000E+00 -0.19639216775E+03  0.19639216775E+03  0.00000000000E+00 0.  1.
         -6    2    1    2    0  503 -0.12811734315E+02 -0.88345556557E+02 -0.10114750663E+03  0.21848947964E+03  0.17186551928E+03 0.  0.
        -24    2    3    3    0    0  0.22665151092E+02 -0.17409624862E+02  0.56887516555E+01  0.85348231759E+02  0.80219415712E+02 0.  0.
          6    2    1    2  501    0  0.12811734315E+02  0.88345556557E+02  0.21962682627E+03  0.29277417550E+03  0.17178968863E+03 0.  0.
         24    2    5    5    0    0  0.51147306774E+02  0.11185729716E+03  0.16602739882E+03  0.22264995226E+03  0.82944572838E+02 0.  0.
          5    1    5    5  501    0 -0.38335572459E+02 -0.23511740602E+02  0.53599427451E+02  0.70124223239E+02  0.47000000000E+01 0. -1.
        -13    1    6    6    0    0  0.19742810726E+02  0.90132462136E+02  0.60269557317E+02  0.11020915953E+03  0.00000000000E+00 0.  1.
         14    1    6    6    0    0  0.31404496049E+02  0.21724835022E+02  0.10575784150E+03  0.11244079272E+03  0.00000000000E+00 0. -1.
         -5    1    3    3    0  503 -0.35476885407E+02 -0.70935931694E+02 -0.10683625829E+03  0.13314124789E+03  0.47000000000E+01 0.  1.
         13    1    4    4    0    0  0.50062197476E+02 -0.65746200476E+01 -0.10731074260E+02  0.51619814022E+02  0.00000000000E+00 0. -1.
        -14    1    4    4    0    0 -0.27397046384E+02 -0.10835004815E+02  0.16419825916E+02  0.33728417737E+02  0.00000000000E+00 0.  1.
<mgrwt>
<rscale>  2 0.19364999E+03</rscale>
<asrwt>0</asrwt>
<pdfrwt beam="1">  1       21 0.48441767E-01 0.19366681E+03</pdfrwt>
<pdfrwt beam="2">  1       21 0.30214180E-01 0.19366681E+03</pdfrwt>
<totfact> 0.42752512E+04</totfact>
</mgrwt>
</event>
<event>
12    1  0.1019868E-001  0.1991441E+03  0.7546771E-02  0.1150479E+00
         21   -1    0    0  503  502  0.00000000000E+00  0.00000000000E+00  0.13990052853E+02  0.13990052853E+02  0.00000000000E+00 0.  1.
         21   -1    0    0  501  503 -0.00000000000E+00 -0.00000000000E+00 -0.31254272740E+04  0.31254272740E+04  0.00000000000E+00 0.  1.
          6    2    1    2  501    0 -0.47727257349E+02 -0.86479146512E+02 -0.10764016386E+04  0.10946683714E+04  0.17292143263E+03 0.  0.
         24    2    3    3    0    0  0.62664305819E+01 -0.58825406462E+02 -0.33473657879E+03  0.35051166839E+03  0.85499449708E+02 0.  0.
         -6    2    1    2    0  502  0.47727257349E+02  0.86479146512E+02 -0.20350355825E+04  0.20447489555E+04  0.17283499287E+03 0.  0.
        -24    2    5    5    0    0  0.14237523496E+01 -0.42744425165E+01 -0.54960998102E+03  0.55582601045E+03  0.82771521267E+02 0.  0.
          5    1    3    3  501    0 -0.53993687931E+02 -0.27653740049E+02 -0.74166505978E+03  0.74415670297E+03  0.47000000000E+01 0. -1.
        -11    1    4    4    0    0 -0.37689158668E+02 -0.42881390824E+02 -0.17552401400E+03  0.18457509543E+03  0.00000000000E+00 0.  1.
         12    1    4    4    0    0  0.43955589249E+02 -0.15944015638E+02 -0.15921256479E+03  0.16593657296E+03  0.00000000000E+00 0. -1.
         -5    1    5    5    0  502  0.46303504999E+02  0.90753589028E+02 -0.14854256015E+04  0.14889229450E+04  0.47000000000E+01 0.  1.
         11    1    6    6    0    0  0.41777787651E+02  0.19551142845E+01 -0.25701759992E+03  0.26039825784E+03  0.00000000000E+00 0. -1.
        -12    1    6    6    0    0 -0.40354035302E+02 -0.62295568009E+01 -0.29259238109E+03  0.29542775262E+03  0.00000000000E+00 0.  1.
<mgrwt>
<rscale>  2 0.19912529E+03</rscale>
<asrwt>0</asrwt>
<pdfrwt beam="1">  1       21 0.21523132E-02 0.19914406E+03</pdfrwt>
<pdfrwt beam="2">  1       21 0.48083555E+00 0.19914406E+03</pdfrwt>
<totfact> 0.27854529E+03</totfact>
</mgrwt>
</event>
<event>
12    1  0.1019868E-001  0.1887114E+03  0.7546771E-02  0.1159807E+00
         21   -1    0    0  501  502  0.00000000000E+00  0.00000000000E+00  0.42009716092E+03  0.42009716092E+03  0.00000000000E+00 0.  1.
         21   -1    0    0  502  503 -0.00000000000E+00 -0.00000000000E+00 -0.84443874763E+02  0.84443874763E+02  0.00000000000E+00 0.  1.
         -6    2    1    2    0  503  0.59669489948E+02 -0.45183640289E+02  0.17250461875E+03  0.25567523364E+03  0.17323386570E+03 0.  0.
        -24    2    3    3    0    0  0.97754891425E+01 -0.15134012169E+02  0.17894196647E+03  0.19688815247E+03  0.80125643259E+02 0.  0.
          6    2    1    2  501    0 -0.59669489948E+02  0.45183640289E+02  0.16314866740E+03  0.24886580204E+03  0.17237949521E+03 0.  0.
         24    2    5    5    0    0 -0.99581973102E+02  0.13364062661E+02  0.92801648770E+02  0.16182394508E+03  0.86485118083E+02 0.  0.
          5    1    5    5  501    0  0.39912483154E+02  0.31819577628E+02  0.70347018633E+02  0.87041856957E+02  0.47000000000E+01 0. -1.
        -11    1    6    6    0    0 -0.83571820891E+02  0.21569730427E+02  0.10801499313E+03  0.13826330409E+03  0.00000000000E+00 0.  1.
         12    1    6    6    0    0 -0.16010152211E+02 -0.82056677661E+01 -0.15213344359E+02  0.23560640990E+02  0.00000000000E+00 0. -1.
         -5    1    3    3    0  503  0.49894000806E+02 -0.30049628120E+02 -0.64373477200E+01  0.58787081168E+02  0.47000000000E+01 0.  1.
         11    1    4    4    0    0  0.85122501408E+01  0.20397074606E+02  0.10023630471E+02  0.24268749922E+02  0.00000000000E+00 0. -1.
        -12    1    4    4    0    0  0.12632390016E+01 -0.35531086776E+02  0.16891833600E+03  0.17261940255E+03  0.00000000000E+00 0.  1.
<mgrwt>
<rscale>  2 0.18851507E+03</rscale>
<asrwt>0</asrwt>
<pdfrwt beam="1">  1       21 0.64630331E-01 0.18871137E+03</pdfrwt>
<pdfrwt beam="2">  1       21 0.12991366E-01 0.18871137E+03</pdfrwt>
<totfact> 0.11246794E+05</totfact>
</mgrwt>
</event>
<event>
12    1  0.1019868E-001  0.3104004E+03  0.7546771E-02  0.1080759E+00
         21   -1    0    0  503  502  0.00000000000E+00  0.00000000000E+00  0.66042219076E+03  0.66042219076E+03  0.00000000000E+00 0.  1.
         21   -1    0    0  501  503 -0.00000000000E+00 -0.00000000000E+00 -0.31430837651E+03  0.31430837651E+03  0.00000000000E+00 0.  1.
          6    2    1    2  501    0 -0.21311353017E+03  0.13426331678E+03 -0.18681282299E+03  0.35799790298E+03  0.17268309915E+03 0.  0.
         24    2    3    3    0    0 -0.20215373036E+03  0.16758106890E+03 -0.17857901525E+03  0.32166506097E+03  0.51267937453E+02 0.  0.
         -6    2    1    2    0  502  0.21311353017E+03 -0.13426331678E+03  0.53292663724E+03  0.61673266429E+03  0.18139559961E+03 0.  0.
        -24    2    5    5    0    0  0.17318213479E+03 -0.16113246888E+03  0.36779894001E+03  0.44466955359E+03  0.80617785143E+02 0.  0.
          5    1    3    3  501    0 -0.10959799807E+02 -0.33317752124E+02 -0.82338077391E+01  0.36332842006E+02  0.47000000000E+01 0. -1.
        -11    1    4    4    0    0 -0.22527740662E+02  0.73378797143E+01 -0.32061848289E+02  0.39866097046E+02  0.00000000000E+00 0.  1.
         12    1    4    4    0    0 -0.17962598970E+03  0.16024318919E+03 -0.14651716696E+03  0.28179896393E+03  0.00000000000E+00 0. -1.
         -5    1    5    5    0  502  0.39931395376E+02  0.26869152108E+02  0.16512769723E+03  0.17206311070E+03  0.47000000000E+01 0.  1.
         13    1    6    6    0    0  0.13616737196E+03 -0.94027687048E+02  0.19573358887E+03  0.25630918230E+03  0.00000000000E+00 0. -1.
        -14    1    6    6    0    0  0.37014762837E+02 -0.67104781836E+02  0.17206535114E+03  0.18836037130E+03  0.00000000000E+00 0.  1.
<mgrwt>
<rscale>  2 0.30914028E+03</rscale>
<asrwt>0</asrwt>
<pdfrwt beam="1">  1       21 0.10160341E+00 0.31040035E+03</pdfrwt>
<pdfrwt beam="2">  1       21 0.48355135E-01 0.31040035E+03</pdfrwt>
<totfact> 0.29799651E+03</totfact>
</mgrwt>
</event>
<event>
12    1  0.1019868E-001  0.1948618E+03  0.7546771E-02  0.1154196E+00
         21   -1    0    0  501  502  0.00000000000E+00  0.00000000000E+00  0.24984558514E+03  0.24984558514E+03  0.00000000000E+00 0. -1.
         21   -1    0    0  502  503 -0.00000000000E+00 -0.00000000000E+00 -0.17747276316E+03  0.17747276316E+03  0.00000000000E+00 0.  1.
         -6    2    1    2    0  503 -0.83406394402E+02 -0.33754528959E+02  0.11745664113E+03  0.22752401558E+03  0.17284420809E+03 0.  0.
        -24    2    3    3    0    0  0.26674175670E+01 -0.24864573773E+02  0.11355370933E+03  0.14077693905E+03  0.79362078608E+02 0.  0.
          6    2    1    2  501    0  0.83406394402E+02  0.33754528959E+02 -0.45083819148E+02  0.19979433272E+03  0.17259556711E+03 0.  0.
         24    2    5    5    0    0  0.79690153188E+02  0.51795626347E+02 -0.88711518210E+02  0.15220486152E+03  0.79140880614E+02 0.  0.
          5    1    5    5  501    0  0.37162412146E+01 -0.18041097388E+02  0.43627699063E+02  0.47589471202E+02  0.47000000000E+01 0. -1.
        -13    1    6    6    0    0  0.54612981087E+02  0.30834365008E+02 -0.99646478345E+02  0.11774020730E+03  0.00000000000E+00 0.  1.
         14    1    6    6    0    0  0.25077172101E+02  0.20961261339E+02  0.10934960135E+02  0.34464654222E+02  0.00000000000E+00 0. -1.
         -5    1    3    3    0  503 -0.86073811969E+02 -0.88899551856E+01  0.39029317989E+01  0.86747076531E+02  0.47000000000E+01 0.  1.
         11    1    4    4    0    0 -0.33543039534E+02 -0.31346452444E+02  0.55209693455E+02  0.71804218771E+02  0.00000000000E+00 0. -1.
        -12    1    4    4    0    0  0.36210457101E+02  0.64818786711E+01  0.58344015874E+02  0.68972720280E+02  0.00000000000E+00 0.  1.
<mgrwt>
<rscale>  2 0.19480663E+03</rscale>
<asrwt>0</asrwt>
<pdfrwt beam="1">  1       21 0.38437782E-01 0.19486178E+03</pdfrwt>
<pdfrwt beam="2">  1       21 0.27303502E-01 0.19486178E+03</pdfrwt>
<totfact> 0.83409497E+04</totfact>
</mgrwt>
</event>
<event>
12    1  0.1019868E-001  0.1789553E+03  0.7546771E-02  0.1169759E+00
         21   -1    0    0  503  502  0.00000000000E+00  0.00000000000E+00  0.16206499144E+03  0.16206499144E+03  0.00000000000E+00 0. -1.
         21   -1    0    0  501  503 -0.00000000000E+00 -0.00000000000E+00 -0.25350857376E+03  0.25350857376E+03  0.00000000000E+00 0. -1.
          6    2    1    2  501    0  0.15202118494E+02 -0.22198187187E+02 -0.14725984468E+03  0.23175516572E+03  0.17692125666E+03 0.  0.
         24    2    3    3    0    0  0.42980819419E+02  0.43072813323E+02 -0.74130687382E+02  0.12976534573E+03  0.87413202986E+02 0.  0.
         -6    2    1    2    0  502 -0.15202118494E+02  0.22198187187E+02  0.55816262357E+02  0.18381839948E+03  0.17306035052E+03 0.  0.
        -24    2    5    5    0    0  0.28154151639E+02 -0.44712448049E+02  0.29554757473E+02  0.99743695159E+02  0.79268289812E+02 0.  0.
          5    1    3    3  501    0 -0.27778700925E+02 -0.65271000510E+02 -0.73129157298E+02  0.10198981998E+03  0.47000000000E+01 0. -1.
        -11    1    4    4    0    0 -0.11588876011E+02 -0.19813449610E+02 -0.12183354265E+02  0.25986707252E+02  0.00000000000E+00 0.  1.
         12    1    4    4    0    0  0.54569695430E+02  0.62886262933E+02 -0.61947333117E+02  0.10377863848E+03  0.00000000000E+00 0. -1.
         -5    1    5    5    0  502 -0.43356270134E+02  0.66910635236E+02  0.26261504885E+02  0.84074704319E+02  0.47000000000E+01 0.  1.
         11    1    6    6    0    0 -0.13635281316E+02 -0.32730575985E+02  0.41572852281E+02  0.54639853108E+02  0.00000000000E+00 0. -1.
        -12    1    6    6    0    0  0.41789432956E+02 -0.11981872064E+02 -0.12018094809E+02  0.45103842051E+02  0.00000000000E+00 0.  1.
<mgrwt>
<rscale>  2 0.17799355E+03</rscale>
<asrwt>0</asrwt>
<pdfrwt beam="1">  1       21 0.24933076E-01 0.17895529E+03</pdfrwt>
<pdfrwt beam="2">  1       21 0.39001319E-01 0.17895529E+03</pdfrwt>
<totfact> 0.97006363E+04</totfact>
</mgrwt>
</event>
<event>
12    1  0.1019868E-001  0.2230383E+03  0.7546771E-02  0.1131741E+00
         21   -1    0    0  503  502  0.00000000000E+00  0.00000000000E+00  0.10852703104E+03  0.10852703104E+03  0.00000000000E+00 0.  1.
         21   -1    0    0  501  503 -0.00000000000E+00 -0.00000000000E+00 -0.12312962904E+04  0.12312962904E+04  0.00000000000E+00 0. -1.
          6    2    1    2  501    0  0.71270061396E+02 -0.12078192798E+03 -0.10922841784E+04  0.11147112779E+04  0.17271019346E+03 0.  0.
         24    2    3    3    0    0  0.91513801332E+02 -0.38804619950E+02 -0.50929768772E+03  0.52562263742E+03  0.83752300756E+02 0.  0.
         -6    2    1    2    0  502 -0.71270061396E+02  0.12078192798E+03 -0.30485080972E+02  0.22511204354E+03  0.17343124346E+03 0.  0.
        -24    2    5    5    0    0 -0.32995552738E+02  0.53469215724E+02  0.50470286421E+02  0.11298800172E+03  0.79192014693E+02 0.  0.
          5    1    3    3  501    0 -0.20243739936E+02 -0.81977308028E+02 -0.58298649069E+03  0.58908864050E+03  0.47000000000E+01 0. -1.
        -11    1    4    4    0    0  0.56831786259E+02 -0.54078575218E+02 -0.21443482164E+03  0.22833448482E+03  0.00000000000E+00 0.  1.
         12    1    4    4    0    0  0.34682015073E+02  0.15273955268E+02 -0.29486286609E+03  0.29728815260E+03  0.00000000000E+00 0. -1.
         -5    1    5    5    0  502 -0.38274508658E+02  0.67312712254E+02 -0.80955367392E+02  0.11212404182E+03  0.47000000000E+01 0.  1.
         13    1    6    6    0    0 -0.20629666281E+02 -0.13554459536E+02 -0.49123160372E+01  0.25168181361E+02  0.00000000000E+00 0. -1.
        -14    1    6    6    0    0 -0.12365886457E+02  0.67023675260E+02  0.55382602458E+02  0.87819820361E+02  0.00000000000E+00 0.  1.
<mgrwt>
<rscale>  2 0.22289813E+03</rscale>
<asrwt>0</asrwt>
<pdfrwt beam="1">  1       21 0.16696466E-01 0.22303832E+03</pdfrwt>
<pdfrwt beam="2">  1       21 0.18943020E+00 0.22303832E+03</pdfrwt>
<totfact> 0.49417429E+03</totfact>
</mgrwt>
</event>
<event>
12    1  0.1019868E-001  0.1787410E+03  0.7546771E-02  0.1170053E+00
         21   -1    0    0  503  502  0.00000000000E+00  0.00000000000E+00  0.10612883016E+04  0.10612883016E+04  0.00000000000E+00 0. -1.
         21   -1    0    0  501  503 -0.00000000000E+00 -0.00000000000E+00 -0.33457254363E+02  0.33457254363E+02  0.00000000000E+00 0. -1.
          6    2    1    2  501    0 -0.41716609143E+02 -0.30652936861E+02  0.31820744385E+03  0.36295732932E+03  0.16673981999E+03 0.  0.
         24    2    3    3    0    0 -0.35408423338E+02 -0.60059533913E+01  0.32458195875E+03  0.33631166471E+03  0.80388182922E+02 0.  0.
         -6    2    1    2    0  502  0.41716609143E+02  0.30652936861E+02  0.70962360340E+03  0.73178822665E+03  0.17108030905E+03 0.  0.
        -24    2    5    5    0    0  0.68831207378E+02  0.10343329837E+02  0.67340580096E+03  0.68197356226E+03  0.82266926955E+02 0.  0.
          5    1    3    3  501    0 -0.63081858052E+01 -0.24646983470E+02 -0.63745149041E+01  0.26645664612E+02  0.47000000000E+01 0. -1.
        -13    1    4    4    0    0 -0.10524757645E+02  0.22112627366E+02  0.27327395822E+02  0.36695032020E+02  0.00000000000E+00 0.  1.
         14    1    4    4    0    0 -0.24883665693E+02 -0.28118580757E+02  0.29725456293E+03  0.29961663269E+03  0.00000000000E+00 0. -1.
         -5    1    5    5    0  502 -0.27114598235E+02  0.20309607024E+02  0.36217802435E+02  0.49814664389E+02  0.47000000000E+01 0.  1.
         11    1    6    6    0    0  0.62984933470E+02 -0.24488949772E+02  0.52958951396E+03  0.53388375495E+03  0.00000000000E+00 0. -1.
        -12    1    6    6    0    0  0.58462739082E+01  0.34832279609E+02  0.14381628700E+03  0.14808980731E+03  0.00000000000E+00 0.  1.
<mgrwt>
<rscale>  2 0.17769437E+03</rscale>
<asrwt>0</asrwt>
<pdfrwt beam="1">  1       21 0.16327510E+00 0.17874101E+03</pdfrwt>
<pdfrwt beam="2">  1       21 0.51472707E-02 0.17874101E+03</pdfrwt>
<totfact> 0.61488858E+04</totfact>
</mgrwt>
</event>
<event>
12    1  0.1019868E-001  0.1747136E+03  0.7546771E-02  0.1173187E+00
         21   -1    0    0  501  502  0.00000000000E+00  0.00000000000E+00  0.66095101890E+03  0.66095101890E+03  0.00000000000E+00 0. -1.
         21   -1    0    0  502  503 -0.00000000000E+00 -0.00000000000E+00 -0.90435625301E+02  0.90435625301E+02  0.00000000000E+00 0. -1.
         -6    2    1    2    0  503  0.30806986873E+01  0.16418702926E+02  0.21655863498E+02  0.17539044753E+03  0.17324482142E+03 0.  0.
        -24    2    3    3    0    0 -0.45040605283E+01  0.27307664288E+02 -0.52048533156E+02  0.10035361565E+03  0.81214550917E+02 0.  0.
          6    2    1    2  501    0 -0.30806986873E+01 -0.16418702926E+02  0.54885953010E+03  0.57599619667E+03  0.17391311131E+03 0.  0.
         24    2    5    5    0    0 -0.62847414822E+02 -0.37962810194E+02  0.29364670365E+03  0.31295269133E+03  0.79498603386E+02 0.  0.
          5    1    5    5  501    0  0.59766716134E+02  0.21544107268E+02  0.25521282645E+03  0.26304350534E+03  0.47000000000E+01 0. -1.
        -13    1    6    6    0    0  0.10732282335E+02 -0.27997597066E+02  0.50597724384E+02  0.58814768880E+02  0.00000000000E+00 0.  1.
         14    1    6    6    0    0 -0.73579697157E+02 -0.99652131284E+01  0.24304897926E+03  0.25413792245E+03  0.00000000000E+00 0. -1.
         -5    1    3    3    0  503  0.75847592157E+01 -0.10888961362E+02  0.73704396655E+02  0.75036831877E+02  0.47000000000E+01 0.  1.
         11    1    4    4    0    0 -0.34527176241E+02 -0.14340408011E+00 -0.48476971676E+02  0.59516075532E+02  0.00000000000E+00 0. -1.
        -12    1    4    4    0    0  0.30023115713E+02  0.27451068368E+02 -0.35715614809E+01  0.40837540120E+02  0.00000000000E+00 0.  1.
<mgrwt>
<rscale>  2 0.17454704E+03</rscale>
<asrwt>0</asrwt>
<pdfrwt beam="1">  1       21 0.10168477E+00 0.17471358E+03</pdfrwt>
<pdfrwt beam="2">  1       21 0.13913174E-01 0.17471358E+03</pdfrwt>
<totfact> 0.35828750E+04</totfact>
</mgrwt>
</event>
<event>
12    1  0.1019868E-001  0.2108640E+03  0.7546771E-02  0.1141021E+00
         21   -1    0    0  501  502  0.00000000000E+00  0.00000000000E+00  0.47362364035E+03  0.47362364035E+03  0.00000000000E+00 0.  1.
         21   -1    0    0  502  503 -0.00000000000E+00 -0.00000000000E+00 -0.11697445144E+03  0.11697445144E+03  0.00000000000E+00 0.  1.
         -6    2    1    2    0  503  0.11851356614E+03 -0.11452926786E+02  0.46000784657E+02  0.21514361896E+03  0.17318796060E+03 0.  0.
        -24    2    3    3    0    0  0.82676933614E+02  0.41535096869E+02  0.75805443163E+02  0.14441595428E+03  0.80925045653E+02 0.  0.
          6    2    1    2  501    0 -0.11851356614E+03  0.11452926786E+02  0.31064840425E+03  0.37545447284E+03  0.17403159260E+03 0.  0.
         24    2    5    5    0    0 -0.89077479785E+02  0.73517307942E+02  0.16781356837E+03  0.21689107565E+03  0.74436234425E+02 0.  0.
          5    1    5    5  501    0 -0.29436086356E+02 -0.62064381156E+02  0.14283483588E+03  0.15856339719E+03  0.47000000000E+01 0. -1.
        -13    1    6    6    0    0 -0.92542431518E+02  0.68283360165E+02  0.17367560222E+03  0.20830250530E+03  0.00000000000E+00 0.  1.
         14    1    6    6    0    0  0.34649517337E+01  0.52339477766E+01 -0.58620338491E+01  0.85885703521E+01  0.00000000000E+00 0. -1.
         -5    1    3    3    0  503  0.35836632527E+02 -0.52988023655E+02 -0.29804658506E+02  0.70727664675E+02  0.47000000000E+01 0.  1.
         11    1    4    4    0    0 -0.12754985731E+02  0.19234807702E+02  0.25008628082E+02  0.34030853161E+02  0.00000000000E+00 0. -1.
        -12    1    4    4    0    0  0.95431919345E+02  0.22300289167E+02  0.50796815081E+02  0.11038510112E+03  0.00000000000E+00 0.  1.
<mgrwt>
<rscale>  2 0.21068986E+03</rscale>
<asrwt>0</asrwt>
<pdfrwt beam="1">  1       21 0.72865175E-01 0.21086401E+03</pdfrwt>
<pdfrwt beam="2">  1       21 0.17996070E-01 0.21086401E+03</pdfrwt>
<totfact> 0.47192757E+04</totfact>
</mgrwt>
</event>
<event>
12    1  0.1019868E-001  0.1805247E+03  0.7546771E-02  0.1167423E+00
         21   -1    0    0  501  502  0.00000000000E+00  0.00000000000E+00  0.16918215126E+03  0.16918215126E+03  0.00000000000E+00 0. -1.
         21   -1    0    0  502  503 -0.00000000000E+00 -0.00000000000E+00 -0.20162669486E+03  0.20162669486E+03  0.00000000000E+00 0. -1.
         -6    2    1    2    0  503  0.50986767463E+02 -0.99123812727E+01 -0.56615461108E+02  0.18919430552E+03  0.17289091661E+03 0.  0.
        -24    2    3    3    0    0  0.65234192413E+02 -0.56968322737E+02 -0.71468102470E+02  0.13761968288E+03  0.79565053827E+02 0.  0.
          6    2    1    2  501    0 -0.50986767463E+02  0.99123812727E+01  0.24170917508E+02  0.18161454059E+03  0.17234181832E+03 0.  0.
         24    2    5    5    0    0 -0.57184929570E+02  0.26943500866E+02  0.75750584062E+02  0.12674170351E+03  0.79556520873E+02 0.  0.
          5    1    5    5  501    0  0.61981621066E+01 -0.17031119593E+02 -0.51579666554E+02  0.54872837087E+02  0.47000000000E+01 0. -1.
        -13    1    6    6    0    0  0.50428894830E+01 -0.21915810028E+02  0.16117627180E+02  0.27667876128E+02  0.00000000000E+00 0.  1.
         14    1    6    6    0    0 -0.62227819053E+02  0.48859310894E+02  0.59632956882E+02  0.99073827380E+02  0.00000000000E+00 0. -1.
         -5    1    3    3    0  503 -0.14247424950E+02  0.47055941464E+02  0.14852641362E+02  0.51574622638E+02  0.47000000000E+01 0.  1.
         13    1    4    4    0    0  0.40607445705E+02 -0.51270340229E+02 -0.39472510009E+01  0.65522463509E+02  0.00000000000E+00 0. -1.
        -14    1    4    4    0    0  0.24626746708E+02 -0.56979825083E+01 -0.67520851469E+02  0.72097219372E+02  0.00000000000E+00 0.  1.
<mgrwt>
<rscale>  2 0.18039312E+03</rscale>
<asrwt>0</asrwt>
<pdfrwt beam="1">  1       21 0.26028023E-01 0.18052472E+03</pdfrwt>
<pdfrwt beam="2">  1       21 0.31019491E-01 0.18052472E+03</pdfrwt>
<totfact> 0.14055048E+05</totfact>
</mgrwt>
</event>
<event>
12    1  0.1019868E-001  0.2512168E+03  0.7546771E-02  0.1112830E+00
         21   -1    0    0  501  502  0.00000000000E+00  0.00000000000E+00  0.74796618862E+02  0.74796618862E+02  0.00000000000E+00 0.  1.
         21   -1    0    0  502  503 -0.00000000000E+00 -0.00000000000E+00 -0.92042961500E+03  0.92042961500E+03  0.00000000000E+00 0.  1.
         -6    2    1    2    0  503 -0.17315532115E+03 -0.55870134764E+02 -0.57071979215E+03  0.62281902856E+03  0.17052338251E+03 0.  0.
        -24    2    3    3    0    0 -0.94344201818E+02  0.25796915449E+02 -0.38822171618E+03  0.40785778239E+03  0.77881708250E+02 0.  0.
          6    2    1    2  501    0  0.17315532115E+03  0.55870134764E+02 -0.27491320399E+03  0.37240720531E+03  0.17322130248E+03 0.  0.
         24    2    5    5    0    0  0.16297655363E+03  0.55496273910E+02 -0.13744247822E+03  0.23447955208E+03  0.80305865746E+02 0.  0.
          5    1    5    5  501    0  0.10178767523E+02  0.37386085315E+00 -0.13747072577E+03  0.13792765323E+03  0.47000000000E+01 0. -1.
        -11    1    6    6    0    0  0.12845496828E+03  0.72217837503E+02 -0.87068320483E+02  0.17116362745E+03  0.00000000000E+00 0.  1.
         12    1    6    6    0    0  0.34521585346E+02 -0.16721563593E+02 -0.50374157740E+02  0.63315924630E+02  0.00000000000E+00 0. -1.
         -5    1    3    3    0  503 -0.78811119336E+02 -0.81667050212E+02 -0.18249807596E+03  0.21496124616E+03  0.47000000000E+01 0.  1.
         13    1    4    4    0    0 -0.23458274060E+02 -0.82336509658E+00 -0.24253904539E+03  0.24367223291E+03  0.00000000000E+00 0. -1.
        -14    1    4    4    0    0 -0.70885927758E+02  0.26620280545E+02 -0.14568267079E+03  0.16418554948E+03  0.00000000000E+00 0.  1.
<mgrwt>
<rscale>  2 0.25075231E+03</rscale>
<asrwt>0</asrwt>
<pdfrwt beam="1">  1       21 0.11507171E-01 0.25121675E+03</pdfrwt>
<pdfrwt beam="2">  1       21 0.14160456E+00 0.25121675E+03</pdfrwt>
<totfact> 0.21223285E+04</totfact>
</mgrwt>
</event>
<event>
12    1  0.1019868E-001  0.1904832E+03  0.7546771E-02  0.1158844E+00
         21   -1    0    0  503  502  0.00000000000E+00  0.00000000000E+00  0.77663417182E+02  0.77663417182E+02  0.00000000000E+00 0. -1.
         21   -1    0    0  501  503 -0.00000000000E+00 -0.00000000000E+00 -0.52135566349E+03  0.52135566349E+03  0.00000000000E+00 0.  1.
          6    2    1    2  501    0 -0.19292711559E+02  0.68671814740E+02 -0.32405945723E+03  0.37408383012E+03  0.17273144842E+03 0.  0.
         24    2    3    3    0    0 -0.69000765277E+02  0.49508922279E+02 -0.28196336878E+03  0.30602299179E+03  0.83273592279E+02 0.  0.
         -6    2    1    2    0  502  0.19292711559E+02 -0.68671814740E+02 -0.11963278907E+03  0.22493525055E+03  0.17662342953E+03 0.  0.
        -24    2    5    5    0    0  0.48209949943E+02 -0.10396792487E+03 -0.10730561818E+03  0.17743713261E+03  0.82679572209E+02 0.  0.
          5    1    3    3  501    0  0.49708053717E+02  0.19162892461E+02 -0.42096088449E+02  0.68060838333E+02  0.47000000000E+01 0. -1.
        -13    1    4    4    0    0 -0.55227110509E+02  0.69642517914E+02 -0.17458118911E+03  0.19590483819E+03  0.00000000000E+00 0.  1.
         14    1    4    4    0    0 -0.13773654767E+02 -0.20133595635E+02 -0.10738217968E+03  0.11011815359E+03  0.00000000000E+00 0. -1.
         -5    1    5    5    0  502 -0.28917238384E+02  0.35296110128E+02 -0.12327170893E+02  0.47498117943E+02  0.47000000000E+01 0.  1.
         11    1    6    6    0    0  0.44012411559E+02 -0.67315030937E+02 -0.20323316011E+02  0.82954463020E+02  0.00000000000E+00 0. -1.
        -12    1    6    6    0    0  0.41975383847E+01 -0.36652893930E+02 -0.86982302169E+02  0.94482669588E+02  0.00000000000E+00 0.  1.
<mgrwt>
<rscale>  2 0.18957600E+03</rscale>
<asrwt>0</asrwt>
<pdfrwt beam="1">  1       21 0.11948218E-01 0.19048323E+03</pdfrwt>
<pdfrwt beam="2">  1       21 0.80208564E-01 0.19048323E+03</pdfrwt>
<totfact> 0.80933944E+04</totfact>
</mgrwt>
</event>
<event>
12    1  0.1019868E-001  0.2560250E+03  0.7546771E-02  0.1111734E+00
         21   -1    0    0  503  502  0.00000000000E+00  0.00000000000E+00  0.13026667266E+04  0.13026667266E+04  0.00000000000E+00 0. -1.
         21   -1    0    0  501  503 -0.00000000000E+00 -0.00000000000E+00 -0.53239513315E+02  0.53239513315E+02  0.00000000000E+00 0.  1.
          6    2    1    2  501    0 -0.16469505007E+03  0.38853382220E+02  0.42046066234E+03  0.49227633545E+03  0.19213218639E+03 0.  0.
         24    2    3    3    0    0 -0.15946378455E+03  0.14052267310E+01  0.19674955144E+03  0.26534356650E+03  0.79159011129E+02 0.  0.
         -6    2    1    2    0  502  0.16469505007E+03 -0.38853382220E+02  0.82896655090E+03  0.86362990442E+03  0.17331192821E+03 0.  0.
        -24    2    5    5    0    0  0.46824020136E+02  0.12551766896E+02  0.46785821101E+03  0.48027968308E+03  0.97093937319E+02 0.  0.
          5    1    3    3  501    0 -0.52312655175E+01  0.37448155489E+02  0.22371111089E+03  0.22693276895E+03  0.47000000000E+01 0. -1.
        -11    1    4    4    0    0 -0.20002296286E+02 -0.13480220216E+02  0.49738185570E+00  0.24125828121E+02  0.00000000000E+00 0.  1.
         12    1    4    4    0    0 -0.13946148826E+03  0.14885446947E+02  0.19625216959E+03  0.24121773838E+03  0.00000000000E+00 0. -1.
         -5    1    5    5    0  502  0.11787102993E+03 -0.51405149116E+02  0.36110833990E+03  0.38335022133E+03  0.47000000000E+01 0.  1.
         13    1    6    6    0    0  0.51791449393E+02  0.48274451071E+02  0.34724939279E+03  0.35439373252E+03  0.00000000000E+00 0. -1.
        -14    1    6    6    0    0 -0.49674292572E+01 -0.35722684175E+02  0.12060881821E+03  0.12588595056E+03  0.00000000000E+00 0.  1.
<mgrwt>
<rscale>  2 0.25250201E+03</rscale>
<asrwt>0</asrwt>
<pdfrwt beam="1">  1       21 0.20041024E+00 0.25602504E+03</pdfrwt>
<pdfrwt beam="2">  1       21 0.81906953E-02 0.25602504E+03</pdfrwt>
<totfact> 0.14696444E+04</totfact>
</mgrwt>
</event>
<event>
12    1  0.1019868E-001  0.1958337E+03  0.7546771E-02  0.1154059E+00
         21   -1    0    0  503  502  0.00000000000E+00  0.00000000000E+00  0.53938678924E+03  0.53938678924E+03  0.00000000000E+00 0. -1.
         21   -1    0    0  501  503 -0.00000000000E+00 -0.00000000000E+00 -0.74264356420E+02  0.74264356420E+02  0.00000000000E+00 0. -1.
          6    2    1    2  501    0 -0.57350804931E+02  0.62454838994E+02  0.15972003079E+03  0.25270796965E+03  0.17652509157E+03 0.  0.
         24    2    3    3    0    0 -0.18738194671E+02  0.12571075621E+01  0.16040041946E+03  0.18019142718E+03  0.79924687092E+02 0.  0.
         -6    2    1    2    0  502  0.57350804931E+02 -0.62454838994E+02  0.30540240203E+03  0.36094317600E+03  0.17268360488E+03 0.  0.
        -24    2    5    5    0    0  0.55091639344E+02 -0.10856665329E+03  0.22988468723E+03  0.27230673601E+03  0.80511999852E+02 0.  0.
          5    1    3    3  501    0 -0.38612610260E+02  0.61197731432E+02 -0.68038867750E+00  0.72516542473E+02  0.47000000000E+01 0. -1.
        -13    1    4    4    0    0  0.30826670683E+02  0.84035560057E+01  0.66201865384E+02  0.73509117525E+02  0.00000000000E+00 0.  1.
         14    1    4    4    0    0 -0.49564865355E+02 -0.71464484437E+01  0.94198554079E+02  0.10668230966E+03  0.00000000000E+00 0. -1.
         -5    1    5    5    0  502  0.22591655872E+01  0.46111814291E+02  0.75517714802E+02  0.88636439996E+02  0.47000000000E+01 0.  1.
         13    1    6    6    0    0  0.75907129098E+02 -0.77224654631E+02  0.16745622443E+03  0.19941696676E+03  0.00000000000E+00 0. -1.
        -14    1    6    6    0    0 -0.20815489754E+02 -0.31341998654E+02  0.62428462800E+02  0.72889769247E+02  0.00000000000E+00 0.  1.
<mgrwt>
<rscale>  2 0.19496402E+03</rscale>
<asrwt>0</asrwt>
<pdfrwt beam="1">  1       21 0.82982580E-01 0.19583368E+03</pdfrwt>
<pdfrwt beam="2">  1       21 0.11425286E-01 0.19583368E+03</pdfrwt>
<totfact> 0.80970369E+04</totfact>
</mgrwt>
</event>
<event>
12    1  0.1019868E-001  0.1873990E+03  0.7546771E-02  0.1161449E+00
         21   -1    0    0  501  502  0.00000000000E+00  0.00000000000E+00  0.37137182611E+03  0.37137182611E+03  0.00000000000E+00 0. -1.
         21   -1    0    0  502  503 -0.00000000000E+00 -0.00000000000E+00 -0.99561838894E+02  0.99561838894E+02  0.00000000000E+00 0. -1.
         -6    2    1    2    0  503 -0.43418572118E+02 -0.59437757659E+02  0.77369305284E+02  0.20274222800E+03  0.17233798819E+03 0.  0.
        -24    2    3    3    0    0 -0.25662244022E+02 -0.98265060771E+01  0.11092929916E+03  0.14009299289E+03  0.81028552092E+02 0.  0.
          6    2    1    2  501    0  0.43418572118E+02  0.59437757659E+02  0.19444068193E+03  0.26819143701E+03  0.16941501897E+03 0.  0.
         24    2    5    5    0    0  0.11222840392E+02  0.99016996418E+02  0.10658132149E+03  0.16648382421E+03  0.80168372247E+02 0.  0.
          5    1    5    5  501    0  0.32195731726E+02 -0.39579238759E+02  0.87859360446E+02  0.10170761279E+03  0.47000000000E+01 0. -1.
        -13    1    6    6    0    0  0.24346908274E+02 -0.13026462601E+00  0.69626076102E+01  0.25323246555E+02  0.00000000000E+00 0.  1.
         14    1    6    6    0    0 -0.13124067882E+02  0.99147261044E+02  0.99618713876E+02  0.14116057766E+03  0.00000000000E+00 0. -1.
         -5    1    3    3    0  503 -0.17756328095E+02 -0.49611251582E+02 -0.33559993876E+02  0.62649235110E+02  0.47000000000E+01 0.  1.
         13    1    4    4    0    0 -0.50624482230E+02 -0.17512668233E+02  0.47877780487E+02  0.71845762673E+02  0.00000000000E+00 0. -1.
        -14    1    4    4    0    0  0.24962238208E+02  0.76861621560E+01  0.63051518673E+02  0.68247230214E+02  0.00000000000E+00 0.  1.
<mgrwt>
<rscale>  2 0.18672429E+03</rscale>
<asrwt>0</asrwt>
<pdfrwt beam="1">  1       21 0.57134127E-01 0.18739904E+03</pdfrwt>
<pdfrwt beam="2">  1       21 0.15317206E-01 0.18739904E+03</pdfrwt>
<totfact> 0.10885280E+05</totfact>
</mgrwt>
</event>
<event>
12    1  0.1019868E-001  0.1888642E+03  0.7546771E-02  0.1162124E+00
         21   -1    0    0  503  502  0.00000000000E+00  0.00000000000E+00  0.24946473305E+03  0.24946473305E+03  0.00000000000E+00 0.  1.
         21   -1    0    0  501  503 -0.00000000000E+00 -0.00000000000E+00 -0.15838547368E+03  0.15838547368E+03  0.00000000000E+00 0. -1.
          6    2    1    2  501    0 -0.51111867051E+02  0.39188453168E+02 -0.34610652684E+02  0.18098537885E+03  0.16555860674E+03 0.  0.
         24    2    3    3    0    0 -0.40001323952E+02  0.33087446533E+02  0.30663869176E+02  0.11432564848E+03  0.97134937023E+02 0.  0.
         -6    2    1    2    0  502  0.51111867051E+02 -0.39188453168E+02  0.12568991205E+03  0.22686482789E+03  0.17754306048E+03 0.  0.
        -24    2    5    5    0    0 -0.20604769700E+02  0.11306109617E+02  0.10988699013E+03  0.13761910418E+03  0.79444839902E+02 0.  0.
          5    1    3    3  501    0 -0.11110543099E+02  0.61010066345E+01 -0.65274521861E+02  0.66659730378E+02  0.47000000000E+01 0. -1.
        -11    1    4    4    0    0 -0.91364118669E+01  0.60583919640E+02 -0.25150517159E+01  0.61320557938E+02  0.00000000000E+00 0.  1.
         12    1    4    4    0    0 -0.30864912085E+02 -0.27496473107E+02  0.33178920892E+02  0.53005090537E+02  0.00000000000E+00 0. -1.
         -5    1    5    5    0  502  0.71716636751E+02 -0.50494562785E+02  0.15802921922E+02  0.89245723701E+02  0.47000000000E+01 0.  1.
         11    1    6    6    0    0  0.53299755612E+01  0.33851449610E+02  0.16349471857E+02  0.37968862377E+02  0.00000000000E+00 0. -1.
        -12    1    6    6    0    0 -0.25934745261E+02 -0.22545339993E+02  0.93537518276E+02  0.99650241808E+02  0.00000000000E+00 0.  1.
<mgrwt>
<rscale>  2 0.18599473E+03</rscale>
<asrwt>0</asrwt>
<pdfrwt beam="1">  1       21 0.38379190E-01 0.18886423E+03</pdfrwt>
<pdfrwt beam="2">  1       21 0.24366996E-01 0.18886423E+03</pdfrwt>
<totfact> 0.10428016E+05</totfact>
</mgrwt>
</event>
<event>
12    1  0.1019868E-001  0.2526318E+03  0.7546771E-02  0.1111660E+00
         21   -1    0    0  503  502  0.00000000000E+00  0.00000000000E+00  0.76006988249E+03  0.76006988249E+03  0.00000000000E+00 0. -1.
         21   -1    0    0  501  503 -0.00000000000E+00 -0.00000000000E+00 -0.12599676942E+03  0.12599676942E+03  0.00000000000E+00 0.  1.
          6    2    1    2  501    0 -0.18330949990E+03  0.12122578651E+02  0.61138229646E+02  0.25992447514E+03  0.17341718481E+03 0.  0.
         24    2    3    3    0    0 -0.18644272869E+03 -0.32645682400E+02  0.59592290309E+02  0.21477478800E+03  0.82160433517E+02 0.  0.
         -6    2    1    2    0  502  0.18330949990E+03 -0.12122578651E+02  0.57293488342E+03  0.62614217676E+03  0.17335026742E+03 0.  0.
        -24    2    5    5    0    0  0.18369290150E+03  0.14764759946E+02  0.36755079331E+03  0.41895194909E+03  0.80411875888E+02 0.  0.
          5    1    3    3  501    0  0.31332287922E+01  0.44768261052E+02  0.15459393367E+01  0.45149687138E+02  0.47000000000E+01 0. -1.
        -11    1    4    4    0    0 -0.99873924661E+02 -0.33601784495E+02 -0.69183485078E+01  0.10560181956E+03  0.00000000000E+00 0.  1.
         12    1    4    4    0    0 -0.86568804031E+02  0.95610209508E+00  0.66510638817E+02  0.10917296844E+03  0.00000000000E+00 0. -1.
         -5    1    5    5    0  502 -0.38340160223E+00 -0.26887338597E+02  0.20538409011E+03  0.20719022767E+03  0.47000000000E+01 0.  1.
         11    1    6    6    0    0  0.11229665921E+03 -0.16899041347E+02  0.15235642251E+03  0.19002262168E+03  0.00000000000E+00 0. -1.
        -12    1    6    6    0    0  0.71396242290E+02  0.31663801292E+02  0.21519437080E+03  0.22892932741E+03  0.00000000000E+00 0.  1.
<mgrwt>
<rscale>  2 0.25262036E+03</rscale>
<asrwt>0</asrwt>
<pdfrwt beam="1">  1       21 0.11693382E+00 0.25263185E+03</pdfrwt>
<pdfrwt beam="2">  1       21 0.19384119E-01 0.25263185E+03</pdfrwt>
<totfact> 0.13273538E+04</totfact>
</mgrwt>
</event>
<event>
12    1  0.1019868E-001  0.1907586E+03  0.7546771E-02  0.1157980E+00
         21   -1    0    0  503  502  0.00000000000E+00  0.00000000000E+00  0.75431902487E+02  0.75431902487E+02  0.00000000000E+00 0.  1.
         21   -1    0    0  501  503 -0.00000000000E+00 -0.00000000000E+00 -0.72402699210E+03  0.72402699210E+03  0.00000000000E+00 0. -1.
          6    2    1    2  501    0 -0.55241389100E+02 -0.60556212490E+02 -0.55679941927E+03  0.58856982737E+03  0.17225034818E+03 0.  0.
         24    2    3    3    0    0 -0.43181236217E+02  0.31980784016E+02 -0.26464537261E+03  0.28183766409E+03  0.80671593195E+02 0.  0.
         -6    2    1    2    0  502  0.55241389100E+02  0.60556212490E+02 -0.91795670344E+02  0.21088906722E+03  0.17125737251E+03 0.  0.
        -24    2    5    5    0    0 -0.19543666779E+02 -0.16593273447E+02 -0.22815195160E+02  0.83118790080E+02  0.75702764146E+02 0.  0.
          5    1    3    3  501    0 -0.12060152883E+02 -0.92536996505E+02 -0.29215404666E+03  0.30673216328E+03  0.47000000000E+01 0. -1.
        -11    1    4    4    0    0 -0.49796371571E+02  0.37505409289E+02 -0.10610663317E+03  0.12306482825E+03  0.00000000000E+00 0.  1.
         12    1    4    4    0    0  0.66151353543E+01 -0.55246252738E+01 -0.15853873944E+03  0.15877283585E+03  0.00000000000E+00 0. -1.
         -5    1    5    5    0  502  0.74785055879E+02  0.77149485937E+02 -0.68980475184E+02  0.12777027714E+03  0.47000000000E+01 0.  1.
         11    1    6    6    0    0  0.20427488163E+02 -0.44890615298E+00 -0.33009394824E+02  0.38821436553E+02  0.00000000000E+00 0. -1.
        -12    1    6    6    0    0 -0.39971154942E+02 -0.16144367295E+02  0.10194199664E+02  0.44297353527E+02  0.00000000000E+00 0.  1.
<mgrwt>
<rscale>  2 0.19053418E+03</rscale>
<asrwt>0</asrwt>
<pdfrwt beam="1">  1       21 0.11604908E-01 0.19075861E+03</pdfrwt>
<pdfrwt beam="2">  1       21 0.11138876E+00 0.19075861E+03</pdfrwt>
<totfact> 0.39511338E+04</totfact>
</mgrwt>
</event>
<event>
12    1  0.1019868E-001  0.2010445E+03  0.7546771E-02  0.1148881E+00
         21   -1    0    0  503  502  0.00000000000E+00  0.00000000000E+00  0.88323014188E+02  0.88323014188E+02  0.00000000000E+00 0. -1.
         21   -1    0    0  501  503 -0.00000000000E+00 -0.00000000000E+00 -0.55346923450E+03  0.55346923450E+03  0.00000000000E+00 0.  1.
          6    2    1    2  501    0  0.58151162390E+02  0.84759952841E+02 -0.36621607763E+03  0.41772510788E+03  0.17266801366E+03 0.  0.
         24    2    3    3    0    0  0.46904079349E+02  0.12647175574E+03 -0.27823131528E+03  0.31959366651E+03  0.80822949780E+02 0.  0.
         -6    2    1    2    0  502 -0.58151162390E+02 -0.84759952841E+02 -0.98930142683E+02  0.22406714081E+03  0.17278050575E+03 0.  0.
        -24    2    5    5    0    0 -0.57685808839E+02 -0.32664329134E+02  0.69057048299E+01  0.10601000557E+03  0.82436773243E+02 0.  0.
          5    1    3    3  501    0  0.11247083041E+02 -0.41711802902E+02 -0.87984762356E+02  0.98131441369E+02  0.47000000000E+01 0. -1.
        -11    1    4    4    0    0  0.44356876983E+02  0.74781606700E+02 -0.93195690778E+02  0.12745688689E+03  0.00000000000E+00 0.  1.
         12    1    4    4    0    0  0.25472023661E+01  0.51690149043E+02 -0.18503562450E+03  0.19213677962E+03  0.00000000000E+00 0. -1.
         -5    1    5    5    0  502 -0.46535355129E+00 -0.52095623707E+02 -0.10583584751E+03  0.11805713524E+03  0.47000000000E+01 0.  1.
         13    1    6    6    0    0 -0.83123836853E+01 -0.32820541791E+01  0.39128545329E+02  0.40136151556E+02  0.00000000000E+00 0. -1.
        -14    1    6    6    0    0 -0.49373425153E+02 -0.29382274955E+02 -0.32222840499E+02  0.65873854015E+02  0.00000000000E+00 0.  1.
<mgrwt>
<rscale>  2 0.20102038E+03</rscale>
<asrwt>0</asrwt>
<pdfrwt beam="1">  1       21 0.13588156E-01 0.20104455E+03</pdfrwt>
<pdfrwt beam="2">  1       21 0.85149113E-01 0.20104455E+03</pdfrwt>
<totfact> 0.55781015E+04</totfact>
</mgrwt>
</event>
<event>
12    1  0.1019868E-001  0.2585264E+03  0.7546771E-02  0.1108098E+00
         21   -1    0    0  503  502  0.00000000000E+00  0.00000000000E+00  0.24769135281E+03  0.24769135281E+03  0.00000000000E+00 0.  1.
         21   -1    0    0  501  503 -0.00000000000E+00 -0.00000000000E+00 -0.44281294528E+03  0.44281294528E+03  0.00000000000E+00 0.  1.
          6    2    1    2  501    0 -0.13481456093E+03 -0.13556886185E+03 -0.31358009731E+03  0.40613075748E+03  0.17336618067E+03 0.  0.
         24    2    3    3    0    0 -0.11128860533E+03 -0.38598917680E+02 -0.25527818212E+03  0.29046812750E+03  0.73005155325E+02 0.  0.
         -6    2    1    2    0  502  0.13481456093E+03  0.13556886185E+03  0.11845850484E+03  0.28437354060E+03  0.17401727237E+03 0.  0.
        -24    2    5    5    0    0  0.10535447581E+03  0.30532334899E+02  0.21753168938E+02  0.13851545684E+03  0.81740702072E+02 0.  0.
          5    1    3    3  501    0 -0.23525955601E+02 -0.96969944169E+02 -0.58301915191E+02  0.11566262998E+03  0.47000000000E+01 0. -1.
        -11    1    4    4    0    0 -0.66631900790E+02 -0.14471301390E+02 -0.67478742057E+02  0.95930231921E+02  0.00000000000E+00 0.  1.
         12    1    4    4    0    0 -0.44656704543E+02 -0.24127616290E+02 -0.18779944006E+03  0.19453789558E+03  0.00000000000E+00 0. -1.
         -5    1    5    5    0  502  0.29460085119E+02  0.10503652695E+03  0.96705335902E+02  0.14585808377E+03  0.47000000000E+01 0.  1.
         11    1    6    6    0    0  0.62954216845E+01 -0.74369591956E+01  0.30548592989E+02  0.32064890922E+02  0.00000000000E+00 0. -1.
        -12    1    6    6    0    0  0.99059054129E+02  0.37969294095E+02 -0.87954240508E+01  0.10645056591E+03  0.00000000000E+00 0.  1.
<mgrwt>
<rscale>  2 0.25841687E+03</rscale>
<asrwt>0</asrwt>
<pdfrwt beam="1">  1       21 0.38106363E-01 0.25852639E+03</pdfrwt>
<pdfrwt beam="2">  1       21 0.68125068E-01 0.25852639E+03</pdfrwt>
<totfact> 0.12566625E+04</totfact>
</mgrwt>
</event>
<event>
12    1  0.1019868E-001  0.2121375E+03  0.7546771E-02  0.1139982E+00
         21   -1    0    0  503  502  0.00000000000E+00  0.00000000000E+00  0.75520955365E+03  0.75520955365E+03  0.00000000000E+00 0.  1.
         21   -1    0    0  501  503 -0.00000000000E+00 -0.00000000000E+00 -0.30338063537E+03  0.30338063537E+03  0.00000000000E+00 0. -1.
          6    2    1    2  501    0 -0.15258310957E+02  0.12193601167E+03 -0.24864401873E+03  0.32684270970E+03  0.17291935068E+03 0.  0.
         24    2    3    3    0    0  0.23248972953E+01  0.10427938105E+03 -0.76051390438E+02  0.15239721346E+03  0.81003100083E+02 0.  0.
         -6    2    1    2    0  502  0.15258310957E+02 -0.12193601167E+03  0.70047293701E+03  0.73174747932E+03  0.17231027542E+03 0.  0.
        -24    2    5    5    0    0  0.28508505945E+02 -0.14832904289E+03  0.65865316737E+03  0.68033597383E+03  0.78859384433E+02 0.  0.
          5    1    3    3  501    0 -0.17583208252E+02  0.17656630615E+02 -0.17259262829E+03  0.17444549624E+03  0.47000000000E+01 0. -1.
        -13    1    4    4    0    0 -0.27027268973E+02  0.75968953342E+01 -0.41362860606E+01  0.28377719240E+02  0.00000000000E+00 0.  1.
         14    1    4    4    0    0  0.29352166269E+02  0.96682485717E+02 -0.71915104377E+02  0.12401949422E+03  0.00000000000E+00 0. -1.
         -5    1    5    5    0  502 -0.13250194989E+02  0.26393031230E+02  0.41819769635E+02  0.51411505493E+02  0.47000000000E+01 0.  1.
         11    1    6    6    0    0 -0.15286176765E+02 -0.25484073903E+02  0.52646721320E+02  0.60454797068E+02  0.00000000000E+00 0. -1.
        -12    1    6    6    0    0  0.43794682710E+02 -0.12284496899E+03  0.60600644606E+03  0.61988117676E+03  0.00000000000E+00 0.  1.
<mgrwt>
<rscale>  2 0.21201332E+03</rscale>
<asrwt>0</asrwt>
<pdfrwt beam="1">  1       21 0.11618608E+00 0.21213748E+03</pdfrwt>
<pdfrwt beam="2">  1       21 0.46673944E-01 0.21213748E+03</pdfrwt>
<totfact> 0.24707049E+03</totfact>
</mgrwt>
</event>
<event>
12    1  0.1019868E-001  0.2151171E+03  0.7546771E-02  0.1137610E+00
         21   -1    0    0  501  502  0.00000000000E+00  0.00000000000E+00  0.27796613217E+02  0.27796613217E+02  0.00000000000E+00 0. -1.
         21   -1    0    0  502  503 -0.00000000000E+00 -0.00000000000E+00 -0.34628819235E+04  0.34628819235E+04  0.00000000000E+00 0. -1.
         -6    2    1    2    0  503 -0.12584103921E+03  0.24055122571E+02 -0.29760236654E+04  0.29837882304E+04  0.17280257743E+03 0.  0.
        -24    2    3    3    0    0 -0.62348219573E+02  0.62724257667E+02 -0.11436941663E+04  0.11499452372E+04  0.80722176116E+02 0.  0.
          6    2    1    2  501    0  0.12584103921E+03 -0.24055122571E+02 -0.45906164482E+03  0.50689030625E+03  0.17258497258E+03 0.  0.
         24    2    5    5    0    0  0.12512130165E+03  0.32986413128E+02 -0.27798864599E+03  0.31698565723E+03  0.80366510507E+02 0.  0.
          5    1    5    5  501    0  0.71973756142E+00 -0.57041535699E+02 -0.18107299882E+03  0.18990464902E+03  0.47000000000E+01 0. -1.
        -13    1    6    6    0    0  0.19632629178E+02  0.65327658698E+01 -0.13886707621E+03  0.14040007840E+03  0.00000000000E+00 0.  1.
         14    1    6    6    0    0  0.10548867248E+03  0.26453647258E+02 -0.13912156978E+03  0.17658557883E+03  0.00000000000E+00 0. -1.
         -5    1    3    3    0  503 -0.63492819641E+02 -0.38669135096E+02 -0.18323294992E+04  0.18338429932E+04  0.47000000000E+01 0.  1.
         11    1    4    4    0    0 -0.47235848853E+02 -0.62342663405E+01 -0.55264961287E+03  0.55469963592E+03  0.00000000000E+00 0. -1.
        -12    1    4    4    0    0 -0.15112370720E+02  0.68958524008E+02 -0.59104455340E+03  0.59524560131E+03  0.00000000000E+00 0.  1.
<mgrwt>
<rscale>  2 0.21507335E+03</rscale>
<asrwt>0</asrwt>
<pdfrwt beam="1">  1       21 0.42763998E-02 0.21511705E+03</pdfrwt>
<pdfrwt beam="2">  1       21 0.53275134E+00 0.21511705E+03</pdfrwt>
<totfact> 0.37219559E+02</totfact>
</mgrwt>
</event>
<event>
12    1  0.1019868E-001  0.1770115E+03  0.7546771E-02  0.1170835E+00
         21   -1    0    0  503  502  0.00000000000E+00  0.00000000000E+00  0.20929731300E+03  0.20929731300E+03  0.00000000000E+00 0.  1.
         21   -1    0    0  501  503 -0.00000000000E+00 -0.00000000000E+00 -0.30284905303E+03  0.30284905303E+03  0.00000000000E+00 0.  1.
          6    2    1    2  501    0  0.29256223771E+02 -0.32807232112E+02 -0.22911885972E+03  0.28953158197E+03  0.17146674304E+03 0.  0.
         24    2    3    3    0    0  0.58603676502E+02  0.25513787819E+02 -0.18473746764E+03  0.21044673949E+03  0.77939424814E+02 0.  0.
         -6    2    1    2    0  502 -0.29256223771E+02  0.32807232112E+02  0.13556711969E+03  0.22261478406E+03  0.17101654023E+03 0.  0.
        -24    2    5    5    0    0  0.26081908043E+02  0.59852170345E+01  0.13745355541E+03  0.16091082984E+03  0.79263651927E+02 0.  0.
          5    1    3    3  501    0 -0.29347452731E+02 -0.58321019932E+02 -0.44381392079E+02  0.79084842483E+02  0.47000000000E+01 0. -1.
        -11    1    4    4    0    0  0.16329421549E+02 -0.24378814608E+02 -0.27760429300E+02  0.40393292076E+02  0.00000000000E+00 0.  1.
         12    1    4    4    0    0  0.42274254954E+02  0.49892602427E+02 -0.15697703834E+03  0.17005344741E+03  0.00000000000E+00 0. -1.
         -5    1    5    5    0  502 -0.55338131815E+02  0.26822015078E+02 -0.18864357196E+01  0.61703954211E+02  0.47000000000E+01 0.  1.
         13    1    6    6    0    0  0.16350990464E+02  0.41198414492E+01 -0.54065168341E+01  0.17707580496E+02  0.00000000000E+00 0. -1.
        -14    1    6    6    0    0  0.97309175789E+01  0.18653755853E+01  0.14286007224E+03  0.14320324935E+03  0.00000000000E+00 0.  1.
<mgrwt>
<rscale>  2 0.17690242E+03</rscale>
<asrwt>0</asrwt>
<pdfrwt beam="1">  1       21 0.32199587E-01 0.17701154E+03</pdfrwt>
<pdfrwt beam="2">  1       21 0.46592162E-01 0.17701154E+03</pdfrwt>
<totfact> 0.41250525E+04</totfact>
</mgrwt>
</event>
<event>
12    1  0.1019868E-001  0.2405334E+03  0.7546771E-02  0.1119441E+00
         21   -1    0    0  501  502  0.00000000000E+00  0.00000000000E+00  0.34412260911E+03  0.34412260911E+03  0.00000000000E+00 0.  1.
         21   -1    0    0  502  503 -0.00000000000E+00 -0.00000000000E+00 -0.26584685436E+03  0.26584685436E+03  0.00000000000E+00 0.  1.
         -6    2    1    2    0  503  0.16577192158E+03  0.11437348435E+02 -0.14577913106E+03  0.28126121976E+03  0.17391140206E+03 0.  0.
        -24    2    3    3    0    0  0.75124446588E+02  0.39557321320E+02 -0.14498592861E+03  0.18623271474E+03  0.80332063329E+02 0.  0.
          6    2    1    2  501    0 -0.16577192158E+03 -0.11437348435E+02  0.22405488581E+03  0.32870824371E+03  0.17388897234E+03 0.  0.
         24    2    5    5    0    0 -0.92612606769E+02  0.55378436571E+02  0.16520941367E+03  0.21337605366E+03  0.81186967807E+02 0.  0.
          5    1    5    5  501    0 -0.73159314811E+02 -0.66815785006E+02  0.58845472139E+02  0.11533219005E+03  0.47000000000E+01 0. -1.
        -11    1    6    6    0    0 -0.10173059235E+03  0.47219489281E+02  0.11097686351E+03  0.15778041013E+03  0.00000000000E+00 0.  1.
         12    1    6    6    0    0  0.91179855848E+01  0.81589472902E+01  0.54232550163E+02  0.55595643527E+02  0.00000000000E+00 0. -1.
         -5    1    3    3    0  503  0.90647474991E+02 -0.28119972885E+02 -0.79320245701E+00  0.95028505026E+02  0.47000000000E+01 0.  1.
         13    1    4    4    0    0  0.76873823364E+01  0.34009924292E+02 -0.11741559119E+02  0.36791779083E+02  0.00000000000E+00 0. -1.
        -14    1    4    4    0    0  0.67437064252E+02  0.55473970286E+01 -0.13324436949E+03  0.14944093565E+03  0.00000000000E+00 0.  1.
<mgrwt>
<rscale>  2 0.24052935E+03</rscale>
<asrwt>0</asrwt>
<pdfrwt beam="1">  1       21 0.52941940E-01 0.24053340E+03</pdfrwt>
<pdfrwt beam="2">  1       21 0.40899516E-01 0.24053340E+03</pdfrwt>
<totfact> 0.18948654E+04</totfact>
</mgrwt>
</event>
<event>
12    1  0.1019868E-001  0.1746818E+03  0.7546771E-02  0.1173209E+00
         21   -1    0    0  501  502  0.00000000000E+00  0.00000000000E+00  0.25025289725E+03  0.25025289725E+03  0.00000000000E+00 0. -1.
         21   -1    0    0  502  503 -0.00000000000E+00 -0.00000000000E+00 -0.16771504617E+03  0.16771504617E+03  0.00000000000E+00 0. -1.
         -6    2    1    2    0  503 -0.55983524002E+01 -0.95242082148E+01  0.15092355313E+03  0.23037710355E+03  0.17370560976E+03 0.  0.
        -24    2    3    3    0    0 -0.19764695162E+02  0.14538948977E+02  0.17407379147E+03  0.19380191611E+03  0.81581086031E+02 0.  0.
          6    2    1    2  501    0  0.55983524002E+01  0.95242082148E+01 -0.68385702050E+02  0.18759083987E+03  0.17433205920E+03 0.  0.
         24    2    5    5    0    0  0.64005408250E+02  0.25483317894E+02 -0.15667498659E+02  0.10717084034E+03  0.80585524316E+02 0.  0.
          5    1    5    5  501    0 -0.58407055850E+02 -0.15959109680E+02 -0.52718203391E+02  0.80419999525E+02  0.47000000000E+01 0. -1.
        -11    1    6    6    0    0  0.34035808535E+02  0.54416849211E+02 -0.64639189494E+01  0.64509007037E+02  0.00000000000E+00 0.  1.
         12    1    6    6    0    0  0.29969599714E+02 -0.28933531317E+02 -0.92035797097E+01  0.42661833305E+02  0.00000000000E+00 0. -1.
         -5    1    3    3    0  503  0.14166342761E+02 -0.24063157192E+02 -0.23150238342E+02  0.36575187444E+02  0.47000000000E+01 0.  1.
         11    1    4    4    0    0 -0.29192813013E+02 -0.22551656098E+02  0.40177560574E+02  0.54543871316E+02  0.00000000000E+00 0. -1.
        -12    1    4    4    0    0  0.94281178519E+01  0.37090605075E+02  0.13389623090E+03  0.13925804479E+03  0.00000000000E+00 0.  1.
<mgrwt>
<rscale>  2 0.17452526E+03</rscale>
<asrwt>0</asrwt>
<pdfrwt beam="1">  1       21 0.38500446E-01 0.17468176E+03</pdfrwt>
<pdfrwt beam="2">  1       21 0.25802315E-01 0.17468176E+03</pdfrwt>
<totfact> 0.93412203E+04</totfact>
</mgrwt>
</event>
<event>
12    1  0.1019868E-001  0.1831934E+03  0.7546771E-02  0.1164798E+00
         21   -1    0    0  503  502  0.00000000000E+00  0.00000000000E+00  0.14369758206E+04  0.14369758206E+04  0.00000000000E+00 0.  1.
         21   -1    0    0  501  503 -0.00000000000E+00 -0.00000000000E+00 -0.26427613119E+02  0.26427613119E+02  0.00000000000E+00 0.  1.
          6    2    1    2  501    0  0.55883198292E+02 -0.22060301950E+02  0.45430185746E+03  0.48976750482E+03  0.17283646119E+03 0.  0.
         24    2    3    3    0    0 -0.17292206628E+02 -0.51579792792E+02  0.30733002706E+03  0.32288776023E+03  0.82736115084E+02 0.  0.
         -6    2    1    2    0  502 -0.55883198292E+02  0.22060301950E+02  0.95624635003E+03  0.97363592891E+03  0.17306140914E+03 0.  0.
        -24    2    5    5    0    0 -0.97222419985E+02  0.42420113463E+02  0.60252031921E+03  0.61689001364E+03  0.79188944292E+02 0.  0.
          5    1    3    3  501    0  0.73175404920E+02  0.29519490842E+02  0.14697183040E+03  0.16687974459E+03  0.47000000000E+01 0. -1.
        -11    1    4    4    0    0  0.81534227758E+01  0.21837434534E+01 -0.13333562134E+01  0.85454594507E+01  0.00000000000E+00 0.  1.
         12    1    4    4    0    0 -0.25445629404E+02 -0.53763536245E+02  0.30866338328E+03  0.31434230078E+03  0.00000000000E+00 0. -1.
         -5    1    5    5    0  502  0.41339221693E+02 -0.20359811513E+02  0.35372603082E+03  0.35674591526E+03  0.47000000000E+01 0.  1.
         13    1    6    6    0    0 -0.15178469012E+02  0.15777715574E+02  0.33696874672E+03  0.33767922426E+03  0.00000000000E+00 0. -1.
        -14    1    6    6    0    0 -0.82043950974E+02  0.26642397889E+02  0.26555157249E+03  0.27921078938E+03  0.00000000000E+00 0.  1.
<mgrwt>
<rscale>  2 0.18314030E+03</rscale>
<asrwt>0</asrwt>
<pdfrwt beam="1">  1       21 0.22107314E+00 0.18319345E+03</pdfrwt>
<pdfrwt beam="2">  1       21 0.40657878E-02 0.18319345E+03</pdfrwt>
<totfact> 0.38043645E+04</totfact>
</mgrwt>
</event>
<event>
12    1  0.1019868E-001  0.2869292E+03  0.7546771E-02  0.1092273E+00
         21   -1    0    0  501  502  0.00000000000E+00  0.00000000000E+00  0.40728313679E+03  0.40728313679E+03  0.00000000000E+00 0. -1.
         21   -1    0    0  502  503 -0.00000000000E+00 -0.00000000000E+00 -0.23610072781E+03  0.23610072781E+03  0.00000000000E+00 0.  1.
         -6    2    1    2    0  503 -0.22330780313E+03  0.33545954460E+02  0.21080371497E+03  0.35604293015E+03  0.17702162541E+03 0.  0.
        -24    2    3    3    0    0 -0.16300031355E+03  0.90618710978E+02  0.13888802220E+03  0.24609635356E+03  0.80577165068E+02 0.  0.
          6    2    1    2  501    0  0.22330780313E+03 -0.33545954460E+02 -0.39621305987E+02  0.28734093445E+03  0.17321448763E+03 0.  0.
         24    2    5    5    0    0  0.21347149168E+03 -0.52707390298E+02  0.87144768286E+01  0.23421512578E+03  0.80203717413E+02 0.  0.
          5    1    5    5  501    0  0.98363114452E+01  0.19161435838E+02 -0.48335782816E+02  0.53125808668E+02  0.47000000000E+01 0. -1.
        -13    1    6    6    0    0  0.34289187353E+02 -0.30112161488E+02 -0.22592050520E+02  0.50920441726E+02  0.00000000000E+00 0.  1.
         14    1    6    6    0    0  0.17918230433E+03 -0.22595228810E+02  0.31306527349E+02  0.18329468406E+03  0.00000000000E+00 0. -1.
         -5    1    3    3    0  503 -0.60307489576E+02 -0.57072756517E+02  0.71915692772E+02  0.10994657658E+03  0.47000000000E+01 0.  1.
         11    1    4    4    0    0 -0.11695614725E+02  0.21826452967E+02 -0.61366675328E+01  0.25511568774E+02  0.00000000000E+00 0. -1.
        -12    1    4    4    0    0 -0.15130469882E+03  0.68792258011E+02  0.14502468973E+03  0.22058478479E+03  0.00000000000E+00 0.  1.
<mgrwt>
<rscale>  2 0.28634414E+03</rscale>
<asrwt>0</asrwt>
<pdfrwt beam="1">  1       21 0.62658944E-01 0.28692919E+03</pdfrwt>
<pdfrwt beam="2">  1       21 0.36323189E-01 0.28692919E+03</pdfrwt>
<totfact> 0.16414192E+04</totfact>
</mgrwt>
</event>
<event>
12    1  0.1019868E-001  0.1917085E+03  0.7546771E-02  0.1157248E+00
         21   -1    0    0  501  502  0.00000000000E+00  0.00000000000E+00  0.86699610661E+02  0.86699610661E+02  0.00000000000E+00 0.  1.
         21   -1    0    0  502  503 -0.00000000000E+00 -0.00000000000E+00 -0.24357709926E+04  0.24357709926E+04  0.00000000000E+00 0. -1.
         -6    2    1    2    0  503 -0.56413274034E+02 -0.59339067363E+02 -0.23209187704E+04  0.23287059789E+04  0.17176732828E+03 0.  0.
        -24    2    3    3    0    0  0.30065672610E+02 -0.57069755293E+02 -0.11175374954E+04  0.11222100855E+04  0.79401011181E+02 0.  0.
          6    2    1    2  501    0  0.56413274034E+02  0.59339067363E+02 -0.28152611539E+02  0.19376462434E+03  0.17334525579E+03 0.  0.
         24    2    5    5    0    0  0.87293796767E+02  0.16104931210E+02 -0.57037369416E+02  0.13310807934E+03  0.81147541636E+02 0.  0.
          5    1    5    5  501    0 -0.30880522734E+02  0.43234136153E+02  0.28884757877E+02  0.60656544995E+02  0.47000000000E+01 0. -1.
        -11    1    6    6    0    0  0.40977403195E+02 -0.19739656844E+02  0.73444719277E+01  0.46073234017E+02  0.00000000000E+00 0.  1.
         12    1    6    6    0    0  0.46316393573E+02  0.35844588054E+02 -0.64381841343E+02  0.87034845327E+02  0.00000000000E+00 0. -1.
         -5    1    3    3    0  503 -0.86478946644E+02 -0.22693120698E+01 -0.12033812750E+04  0.12064958935E+04  0.47000000000E+01 0.  1.
         13    1    4    4    0    0  0.35642187349E+02 -0.45795394652E+02 -0.10938669516E+04  0.10954051723E+04  0.00000000000E+00 0. -1.
        -14    1    4    4    0    0 -0.55765147384E+01 -0.11274360641E+02 -0.23670543828E+02  0.26804913162E+02  0.00000000000E+00 0.  1.
<mgrwt>
<rscale>  2 0.19135113E+03</rscale>
<asrwt>0</asrwt>
<pdfrwt beam="1">  1       21 0.13338402E-01 0.19170853E+03</pdfrwt>
<pdfrwt beam="2">  1       21 0.37473400E+00 0.19170853E+03</pdfrwt>
<totfact> 0.60488811E+02</totfact>
</mgrwt>
</event>
<event>
12    1  0.1019868E-001  0.1973756E+03  0.7546771E-02  0.1152384E+00
         21   -1    0    0  501  502  0.00000000000E+00  0.00000000000E+00  0.61195444132E+02  0.61195444132E+02  0.00000000000E+00 0. -1.
         21   -1    0    0  502  503 -0.00000000000E+00 -0.00000000000E+00 -0.11258152634E+04  0.11258152634E+04  0.00000000000E+00 0. -1.
         -6    2    1    2    0  503 -0.38336641475E+02 -0.83537561111E+02 -0.92454449366E+03  0.94498129968E+03  0.17250772093E+03 0.  0.
        -24    2    3    3    0    0 -0.49010868759E+02 -0.45334957637E+02 -0.27552318893E+03  0.29473202284E+03  0.80601575694E+02 0.  0.
          6    2    1    2  501    0  0.38336641475E+02  0.83537561111E+02 -0.14007532562E+03  0.24202940787E+03  0.17466801433E+03 0.  0.
         24    2    5    5    0    0 -0.69256544785E+01  0.72930395086E+02 -0.17600618863E+02  0.11094420199E+03  0.81437257768E+02 0.  0.
          5    1    5    5  501    0  0.45262295954E+02  0.10607166025E+02 -0.12247470675E+03  0.13108520588E+03  0.47000000000E+01 0. -1.
        -11    1    6    6    0    0 -0.81468017301E+01  0.73837216143E+01  0.28667280235E+02  0.30703463638E+02  0.00000000000E+00 0.  1.
         12    1    6    6    0    0  0.12211472517E+01  0.65546673472E+02 -0.46267899098E+02  0.80240738348E+02  0.00000000000E+00 0. -1.
         -5    1    3    3    0  503  0.10674227284E+02 -0.38202603474E+02 -0.64902130473E+03  0.65024927684E+03  0.47000000000E+01 0.  1.
         13    1    4    4    0    0 -0.91254305660E+01 -0.44230021149E+02 -0.22914018354E+03  0.23354826475E+03  0.00000000000E+00 0. -1.
        -14    1    4    4    0    0 -0.39885438193E+02 -0.11049364880E+01 -0.46383005394E+02  0.61183758088E+02  0.00000000000E+00 0.  1.
<mgrwt>
<rscale>  2 0.19689659E+03</rscale>
<asrwt>0</asrwt>
<pdfrwt beam="1">  1       21 0.94146836E-02 0.19737563E+03</pdfrwt>
<pdfrwt beam="2">  1       21 0.17320235E+00 0.19737563E+03</pdfrwt>
<totfact> 0.18228150E+04</totfact>
</mgrwt>
</event>
<event>
12    1  0.1019868E-001  0.1790783E+03  0.7546771E-02  0.1170346E+00
         21   -1    0    0  503  502  0.00000000000E+00  0.00000000000E+00  0.32551174617E+03  0.32551174617E+03  0.00000000000E+00 0. -1.
         21   -1    0    0  501  503 -0.00000000000E+00 -0.00000000000E+00 -0.97058986616E+02  0.97058986616E+02  0.00000000000E+00 0. -1.
          6    2    1    2  501    0  0.20051702182E+02  0.28204277829E+02  0.80649822014E+02  0.19037524406E+03  0.16894018975E+03 0.  0.
         24    2    3    3    0    0  0.12679181958E+02  0.13940051438E+02  0.12087478763E+03  0.14680966054E+03  0.81162032104E+02 0.  0.
         -6    2    1    2    0  502 -0.20051702182E+02 -0.28204277829E+02  0.14780293754E+03  0.23219548872E+03  0.17570283034E+03 0.  0.
        -24    2    5    5    0    0 -0.81251292942E+02 -0.19470787108E+02  0.83510408761E+02  0.14287985165E+03  0.80372753345E+02 0.  0.
          5    1    3    3  501    0  0.73725202243E+01  0.14264226392E+02 -0.40224965612E+02  0.43565583521E+02  0.47000000000E+01 0. -1.
        -11    1    4    4    0    0 -0.44538990637E+01 -0.28147157892E+02  0.82664889589E+02  0.87439028386E+02  0.00000000000E+00 0.  1.
         12    1    4    4    0    0  0.17133081021E+02  0.42087209330E+02  0.38209898037E+02  0.59370632155E+02  0.00000000000E+00 0. -1.
         -5    1    5    5    0  502  0.61199590760E+02 -0.87334907212E+01  0.64292528774E+02  0.89315637072E+02  0.47000000000E+01 0.  1.
         13    1    6    6    0    0 -0.43695344794E+02 -0.26233669130E+02  0.90709574321E+02  0.10404669830E+03  0.00000000000E+00 0. -1.
        -14    1    6    6    0    0 -0.37555948148E+02  0.67628820217E+01 -0.71991655599E+01  0.38833153353E+02  0.00000000000E+00 0.  1.
<mgrwt>
<rscale>  2 0.17739722E+03</rscale>
<asrwt>0</asrwt>
<pdfrwt beam="1">  1       21 0.50078730E-01 0.17907830E+03</pdfrwt>
<pdfrwt beam="2">  1       21 0.14932152E-01 0.17907830E+03</pdfrwt>
<totfact> 0.15088651E+05</totfact>
</mgrwt>
</event>
<event>
12    1  0.1019868E-001  0.1779044E+03  0.7546771E-02  0.1170807E+00
         21   -1    0    0  501  502  0.00000000000E+00  0.00000000000E+00  0.22198346896E+02  0.22198346896E+02  0.00000000000E+00 0.  1.
         21   -1    0    0  502  503 -0.00000000000E+00 -0.00000000000E+00 -0.17934223543E+04  0.17934223543E+04  0.00000000000E+00 0.  1.
         -6    2    1    2    0  503  0.85166162833E+01  0.40678958543E+02 -0.13210395771E+04  0.13329649453E+04  0.17298170656E+03 0.  0.
        -24    2    3    3    0    0  0.40907700363E+02  0.74268142093E+02 -0.65760693088E+03  0.66787669431E+03  0.80144908653E+02 0.  0.
          6    2    1    2  501    0 -0.85166162833E+01 -0.40678958543E+02 -0.45018443039E+03  0.48265575595E+03  0.16900664769E+03 0.  0.
         24    2    5    5    0    0  0.33590242742E+02 -0.52033141826E+02 -0.16022199551E+03  0.18939442420E+03  0.79770971023E+02 0.  0.
          5    1    5    5  501    0 -0.42106859026E+02  0.11354183283E+02 -0.28996243489E+03  0.29326133175E+03  0.47000000000E+01 0. -1.
        -11    1    6    6    0    0  0.29031093345E+02  0.42162149724E+01 -0.11001666449E+03  0.11386064867E+03  0.00000000000E+00 0.  1.
         12    1    6    6    0    0  0.45591493970E+01 -0.56249356799E+02 -0.50205331014E+02  0.75533775529E+02  0.00000000000E+00 0. -1.
         -5    1    3    3    0  503 -0.32391084080E+02 -0.33589183550E+02 -0.66343264617E+03  0.66508825098E+03  0.47000000000E+01 0.  1.
         13    1    4    4    0    0  0.23922470831E+01 -0.17205714542E+02 -0.10505778205E+03  0.10648425718E+03  0.00000000000E+00 0. -1.
        -14    1    4    4    0    0  0.38515453280E+02  0.91473856635E+02 -0.55254914883E+03  0.56139243713E+03  0.00000000000E+00 0.  1.
<mgrwt>
<rscale>  2 0.17693081E+03</rscale>
<asrwt>0</asrwt>
<pdfrwt beam="1">  1       21 0.34151286E-02 0.17790442E+03</pdfrwt>
<pdfrwt beam="2">  1       21 0.27591127E+00 0.17790442E+03</pdfrwt>
<totfact> 0.24312106E+04</totfact>
</mgrwt>
</event>
<event>
12    1  0.1019868E-001  0.1943071E+03  0.7546771E-02  0.1154735E+00
         21   -1    0    0  503  502  0.00000000000E+00  0.00000000000E+00  0.40186654546E+02  0.40186654546E+02  0.00000000000E+00 0. -1.
         21   -1    0    0  501  503 -0.00000000000E+00 -0.00000000000E+00 -0.10836733089E+04  0.10836733089E+04  0.00000000000E+00 0.  1.
          6    2    1    2  501    0  0.86992396612E+02  0.17626552006E+02 -0.72775703644E+03  0.75313034375E+03  0.17232712554E+03 0.  0.
         24    2    3    3    0    0  0.40484298502E+02  0.10091126163E+02 -0.67939305561E+03  0.68544762458E+03  0.80763313384E+02 0.  0.
         -6    2    1    2    0  502 -0.86992396612E+02 -0.17626552006E+02 -0.31572961792E+03  0.37072961969E+03  0.17284931843E+03 0.  0.
        -24    2    5    5    0    0 -0.47758091576E+02  0.10996227590E+02 -0.58858568972E+02  0.10926562601E+03  0.77928772316E+02 0.  0.
          5    1    3    3  501    0  0.46508098111E+02  0.75354258432E+01 -0.48363980831E+02  0.67682719171E+02  0.47000000000E+01 0. -1.
        -13    1    4    4    0    0  0.62582413960E+01 -0.33746449597E+02 -0.21252508887E+03  0.21527866091E+03  0.00000000000E+00 0.  1.
         14    1    4    4    0    0  0.34226057106E+02  0.43837575760E+02 -0.46686796674E+03  0.47016896367E+03  0.00000000000E+00 0. -1.
         -5    1    5    5    0  502 -0.39234305036E+02 -0.28622779596E+02 -0.25687104895E+03  0.26146399368E+03  0.47000000000E+01 0.  1.
         13    1    6    6    0    0 -0.35630239590E+02 -0.30088155561E+02 -0.17762160857E+02  0.49902960199E+02  0.00000000000E+00 0. -1.
        -14    1    6    6    0    0 -0.12127851986E+02  0.41084383152E+02 -0.41096408116E+02  0.59362665816E+02  0.00000000000E+00 0.  1.
<mgrwt>
<rscale>  2 0.19419093E+03</rscale>
<asrwt>0</asrwt>
<pdfrwt beam="1">  1       21 0.61825617E-02 0.19430713E+03</pdfrwt>
<pdfrwt beam="2">  1       21 0.16671899E+00 0.19430713E+03</pdfrwt>
<totfact> 0.42120787E+04</totfact>
</mgrwt>
</event>
<event>
12    1  0.1019868E-001  0.2328092E+03  0.7546771E-02  0.1125895E+00
         21   -1    0    0  501  502  0.00000000000E+00  0.00000000000E+00  0.21294026894E+03  0.21294026894E+03  0.00000000000E+00 0. -1.
         21   -1    0    0  502  503 -0.00000000000E+00 -0.00000000000E+00 -0.11381323978E+04  0.11381323978E+04  0.00000000000E+00 0. -1.
         -6    2    1    2    0  503 -0.67710543503E+02  0.13862841665E+03 -0.10618395386E+04  0.10870617906E+04  0.17434900411E+03 0.  0.
        -24    2    3    3    0    0 -0.29696991893E+02  0.27977465829E+02 -0.72235739242E+03  0.72795333818E+03  0.80319426423E+02 0.  0.
          6    2    1    2  501    0  0.67710543503E+02 -0.13862841665E+03  0.13664740983E+03  0.26401087605E+03  0.16500506796E+03 0.  0.
         24    2    5    5    0    0  0.85514337274E+02 -0.39340719221E+02  0.90931616711E+02  0.15316392898E+03  0.79562781220E+02 0.  0.
          5    1    5    5  501    0 -0.17803793772E+02 -0.99287697425E+02  0.45715793120E+02  0.11084694706E+03  0.47000000000E+01 0. -1.
        -11    1    6    6    0    0  0.58994088260E+01 -0.62005421377E+01 -0.14572391613E+02  0.16899832680E+02  0.00000000000E+00 0.  1.
         12    1    6    6    0    0  0.79614928448E+02 -0.33140177083E+02  0.10550400832E+03  0.13626409630E+03  0.00000000000E+00 0. -1.
         -5    1    3    3    0  503 -0.38013551610E+02  0.11065095082E+03 -0.33948214622E+03  0.35910845246E+03  0.47000000000E+01 0.  1.
         13    1    4    4    0    0 -0.43536418968E+02  0.20868102755E+02 -0.21485690676E+03  0.22021441341E+03  0.00000000000E+00 0. -1.
        -14    1    4    4    0    0  0.13839427075E+02  0.71093630736E+01 -0.50750048566E+03  0.50773892478E+03  0.00000000000E+00 0.  1.
<mgrwt>
<rscale>  2 0.23106145E+03</rscale>
<asrwt>0</asrwt>
<pdfrwt beam="1">  1       21 0.32760041E-01 0.23280922E+03</pdfrwt>
<pdfrwt beam="2">  1       21 0.17509729E+00 0.23280922E+03</pdfrwt>
<totfact> 0.16976610E+03</totfact>
</mgrwt>
</event>
<event>
12    1  0.1019868E-001  0.2296513E+03  0.7546771E-02  0.1127720E+00
         21   -1    0    0  503  502  0.00000000000E+00  0.00000000000E+00  0.72595053502E+03  0.72595053502E+03  0.00000000000E+00 0. -1.
         21   -1    0    0  501  503 -0.00000000000E+00 -0.00000000000E+00 -0.74798690999E+02  0.74798690999E+02  0.00000000000E+00 0. -1.
          6    2    1    2  501    0 -0.14344236002E+03  0.15779912711E+02  0.41050170749E+03  0.46810495514E+03  0.17258586523E+03 0.  0.
         24    2    3    3    0    0 -0.12850871851E+03  0.37644405255E+02  0.41424700359E+03  0.44095376868E+03  0.70057506020E+02 0.  0.
         -6    2    1    2    0  502  0.14344236002E+03 -0.15779912711E+02  0.24065013652E+03  0.33264427088E+03  0.17864771603E+03 0.  0.
        -24    2    5    5    0    0  0.10444667838E+03 -0.20487253231E+01  0.25608101787E+03  0.28826622684E+03  0.81281141222E+02 0.  0.
          5    1    3    3  501    0 -0.14933641513E+02 -0.21864492544E+02 -0.37452961015E+01  0.27151186455E+02  0.47000000000E+01 0. -1.
        -11    1    4    4    0    0 -0.71527961717E+02 -0.84052255055E+01  0.26621055471E+03  0.27578063123E+03  0.00000000000E+00 0.  1.
         12    1    4    4    0    0 -0.56980756791E+02  0.46049630760E+02  0.14803644889E+03  0.16517313745E+03  0.00000000000E+00 0. -1.
         -5    1    5    5    0  502  0.38995681640E+02 -0.13731187388E+02 -0.15430881350E+02  0.44378044040E+02  0.47000000000E+01 0.  1.
         11    1    6    6    0    0  0.11488670205E+03 -0.59545609615E+01  0.19689402014E+03  0.22803873854E+03  0.00000000000E+00 0. -1.
        -12    1    6    6    0    0 -0.10440023674E+02  0.39058356384E+01  0.59186997731E+02  0.60227488299E+02  0.00000000000E+00 0.  1.
<mgrwt>
<rscale>  2 0.22847142E+03</rscale>
<asrwt>0</asrwt>
<pdfrwt beam="1">  1       21 0.11168469E+00 0.22965131E+03</pdfrwt>
<pdfrwt beam="2">  1       21 0.11507491E-01 0.22965131E+03</pdfrwt>
<totfact> 0.39044176E+04</totfact>
</mgrwt>
</event>
<event>
12    1  0.1019868E-001  0.3184007E+03  0.7546771E-02  0.1076413E+00
         21   -1    0    0  503  502  0.00000000000E+00  0.00000000000E+00  0.13093861301E+04  0.13093861301E+04  0.00000000000E+00 0. -1.
         21   -1    0    0  501  503 -0.00000000000E+00 -0.00000000000E+00 -0.91843854943E+02  0.91843854943E+02  0.00000000000E+00 0.  1.
          6    2    1    2  501    0 -0.23403789997E+03 -0.12928425163E+03  0.33082915652E+03  0.45915891602E+03  0.17288962668E+03 0.  0.
         24    2    3    3    0    0 -0.14958191318E+03 -0.15184474223E+03  0.26576223908E+03  0.35008287289E+03  0.80603198902E+02 0.  0.
         -6    2    1    2    0  502  0.23403789997E+03  0.12928425163E+03  0.88671311859E+03  0.94207106898E+03  0.17248068871E+03 0.  0.
        -24    2    5    5    0    0  0.20502080362E+03  0.46512819069E+02  0.70919338520E+03  0.74400934205E+03  0.79985443648E+02 0.  0.
          5    1    3    3  501    0 -0.84455986793E+02  0.22560490596E+02  0.65066917441E+02  0.10907604314E+03  0.47000000000E+01 0. -1.
        -13    1    4    4    0    0 -0.66713951323E+01  0.82529972739E+01  0.34277687896E+01  0.11152088409E+02  0.00000000000E+00 0.  1.
         14    1    4    4    0    0 -0.14291051805E+03 -0.16009773950E+03  0.26233447029E+03  0.33893078448E+03  0.00000000000E+00 0. -1.
         -5    1    5    5    0  502  0.29017096356E+02  0.82771432562E+02  0.17751973339E+03  0.19806172693E+03  0.47000000000E+01 0.  1.
         13    1    6    6    0    0 -0.27698301128E+01  0.12909728727E+02  0.64022823900E+02  0.65370138708E+02  0.00000000000E+00 0. -1.
        -14    1    6    6    0    0  0.20779063373E+03  0.33603090343E+02  0.64517056130E+03  0.67863920335E+03  0.00000000000E+00 0.  1.
<mgrwt>
<rscale>  2 0.31834518E+03</rscale>
<asrwt>0</asrwt>
<pdfrwt beam="1">  1       21 0.20144401E+00 0.31840066E+03</pdfrwt>
<pdfrwt beam="2">  1       21 0.14129825E-01 0.31840066E+03</pdfrwt>
<totfact> 0.52504572E+03</totfact>
</mgrwt>
</event>
<event>
12    1  0.1019868E-001  0.2095426E+03  0.7546771E-02  0.1142575E+00
         21   -1    0    0  503  502  0.00000000000E+00  0.00000000000E+00  0.76442580769E+02  0.76442580769E+02  0.00000000000E+00 0. -1.
         21   -1    0    0  501  503 -0.00000000000E+00 -0.00000000000E+00 -0.64195723815E+03  0.64195723815E+03  0.00000000000E+00 0.  1.
          6    2    1    2  501    0 -0.62341229369E+02 -0.10075067782E+03 -0.40472011004E+03  0.45427294145E+03  0.16890355205E+03 0.  0.
         24    2    3    3    0    0 -0.85880332816E+02 -0.10097796521E+03 -0.23243635134E+03  0.28032489011E+03  0.83566773115E+02 0.  0.
         -6    2    1    2    0  502  0.62341229369E+02  0.10075067782E+03 -0.16079454734E+03  0.26412687747E+03  0.17283226837E+03 0.  0.
        -24    2    5    5    0    0  0.81505170765E+02  0.12898555798E+03 -0.11848203641E+03  0.20956586861E+03  0.81237265497E+02 0.  0.
          5    1    3    3  501    0  0.23539103446E+02  0.22728738779E+00 -0.17228375871E+03  0.17394805134E+03  0.47000000000E+01 0. -1.
        -11    1    4    4    0    0 -0.30786073669E+02 -0.11695183647E+00 -0.10168735017E+03  0.10624553259E+03  0.00000000000E+00 0.  1.
         12    1    4    4    0    0 -0.55094259146E+02 -0.10086101337E+03 -0.13074900117E+03  0.17407935752E+03  0.00000000000E+00 0. -1.
         -5    1    5    5    0  502 -0.19163941396E+02 -0.28234880157E+02 -0.42312510925E+02  0.54561008863E+02  0.47000000000E+01 0.  1.
         11    1    6    6    0    0  0.28522119481E+02  0.92027915773E+02 -0.10694570451E+03  0.14394454590E+03  0.00000000000E+00 0. -1.
        -12    1    6    6    0    0  0.52983051284E+02  0.36957642204E+02 -0.11536331906E+02  0.65621322712E+02  0.00000000000E+00 0.  1.
<mgrwt>
<rscale>  2 0.20873082E+03</rscale>
<asrwt>0</asrwt>
<pdfrwt beam="1">  1       21 0.11760397E-01 0.20954265E+03</pdfrwt>
<pdfrwt beam="2">  1       21 0.98762649E-01 0.20954265E+03</pdfrwt>
<totfact> 0.51000070E+04</totfact>
</mgrwt>
</event>
<event>
12    1  0.1019868E-001  0.1764405E+03  0.7546771E-02  0.1172337E+00
         21   -1    0    0  503  502  0.00000000000E+00  0.00000000000E+00  0.28084393846E+02  0.28084393846E+02  0.00000000000E+00 0. -1.
         21   -1    0    0  501  503 -0.00000000000E+00 -0.00000000000E+00 -0.11016172787E+04  0.11016172787E+04  0.00000000000E+00 0. -1.
          6    2    1    2  501    0  0.29421756722E+02  0.21056125964E+02 -0.61730775827E+03  0.64202811639E+03  0.17269115092E+03 0.  0.
         24    2    3    3    0    0  0.19562934744E+02  0.79289575847E+02 -0.45186859726E+03  0.46629952722E+03  0.81120124757E+02 0.  0.
         -6    2    1    2    0  502 -0.29421756722E+02 -0.21056125964E+02 -0.45622512656E+03  0.48767355614E+03  0.16844919423E+03 0.  0.
        -24    2    5    5    0    0 -0.24981003785E+01  0.46936106590E+02 -0.31926570486E+03  0.33234229672E+03  0.79445410708E+02 0.  0.
          5    1    3    3  501    0  0.98588219774E+01 -0.58233449884E+02 -0.16543916101E+03  0.17572858917E+03  0.47000000000E+01 0. -1.
        -11    1    4    4    0    0  0.48722959427E+02  0.51447047248E+02 -0.34209490287E+03  0.34935604763E+03  0.00000000000E+00 0.  1.
         12    1    4    4    0    0 -0.29160024683E+02  0.27842528600E+02 -0.10977369440E+03  0.11694347960E+03  0.00000000000E+00 0. -1.
         -5    1    5    5    0  502 -0.26923656343E+02 -0.67992232554E+02 -0.13695942170E+03  0.15533125942E+03  0.47000000000E+01 0.  1.
         13    1    6    6    0    0 -0.21402106103E+02  0.61030507134E+01 -0.20664139227E+02  0.30369458732E+02  0.00000000000E+00 0. -1.
        -14    1    6    6    0    0  0.18904005725E+02  0.40833055877E+02 -0.29860156563E+03  0.30197283799E+03  0.00000000000E+00 0.  1.
<mgrwt>
<rscale>  2 0.17539377E+03</rscale>
<asrwt>0</asrwt>
<pdfrwt beam="1">  1       21 0.43206761E-02 0.17644045E+03</pdfrwt>
<pdfrwt beam="2">  1       21 0.16947958E+00 0.17644045E+03</pdfrwt>
<totfact> 0.74741940E+04</totfact>
</mgrwt>
</event>
<event>
12    1  0.1019868E-001  0.2035423E+03  0.7546771E-02  0.1147026E+00
         21   -1    0    0  503  502  0.00000000000E+00  0.00000000000E+00  0.50579587669E+03  0.50579587669E+03  0.00000000000E+00 0.  1.
         21   -1    0    0  501  503 -0.00000000000E+00 -0.00000000000E+00 -0.94336686669E+02  0.94336686669E+02  0.00000000000E+00 0.  1.
          6    2    1    2  501    0 -0.35272019564E+02  0.99558553512E+02  0.94272932960E+02  0.22325516074E+03  0.17262520084E+03 0.  0.
         24    2    3    3    0    0 -0.49026994227E+02  0.33108041202E+01  0.10709798089E+02  0.94967530392E+02  0.80557584788E+02 0.  0.
         -6    2    1    2    0  502  0.35272019564E+02 -0.99558553512E+02  0.31718625707E+03  0.37687740262E+03  0.17399262626E+03 0.  0.
        -24    2    5    5    0    0 -0.40319699266E+02 -0.52519749341E+02  0.10825633791E+03  0.14971984018E+03  0.79451832123E+02 0.  0.
          5    1    3    3  501    0  0.13754974662E+02  0.96247749392E+02  0.83563134871E+02  0.12828763035E+03  0.47000000000E+01 0. -1.
        -13    1    4    4    0    0 -0.46868933149E+02  0.32131455928E+02 -0.12160369624E+02  0.58111977629E+02  0.00000000000E+00 0.  1.
         14    1    4    4    0    0 -0.21580610777E+01 -0.28820651808E+02  0.22870167713E+02  0.36855552763E+02  0.00000000000E+00 0. -1.
         -5    1    5    5    0  502  0.75591718831E+02 -0.47038804171E+02  0.20892991916E+03  0.22715756244E+03  0.47000000000E+01 0.  1.
         13    1    6    6    0    0 -0.26713646181E+02  0.13211416149E+02  0.11466183097E+02  0.31931704680E+02  0.00000000000E+00 0. -1.
        -14    1    6    6    0    0 -0.13606053085E+02 -0.65731165490E+02  0.96790154809E+02  0.11778813550E+03  0.00000000000E+00 0.  1.
<mgrwt>
<rscale>  2 0.20324972E+03</rscale>
<asrwt>0</asrwt>
<pdfrwt beam="1">  1       21 0.77814749E-01 0.20354227E+03</pdfrwt>
<pdfrwt beam="2">  1       21 0.14513337E-01 0.20354227E+03</pdfrwt>
<totfact> 0.60663278E+04</totfact>
</mgrwt>
</event>
<event>
12    1  0.1019868E-001  0.1973163E+03  0.7546771E-02  0.1152045E+00
         21   -1    0    0  503  502  0.00000000000E+00  0.00000000000E+00  0.22389642529E+03  0.22389642529E+03  0.00000000000E+00 0.  1.
         21   -1    0    0  501  503 -0.00000000000E+00 -0.00000000000E+00 -0.37383818690E+03  0.37383818690E+03  0.00000000000E+00 0.  1.
          6    2    1    2  501    0 -0.70539860196E+02  0.64237698708E+02 -0.29358137935E+03  0.35367303464E+03  0.17260427376E+03 0.  0.
         24    2    3    3    0    0 -0.69279886959E+02  0.10871756067E+03 -0.23102566377E+03  0.27676170125E+03  0.81270974042E+02 0.  0.
         -6    2    1    2    0  502  0.70539860196E+02 -0.64237698708E+02  0.14363961774E+03  0.24406157754E+03  0.17271757303E+03 0.  0.
        -24    2    5    5    0    0  0.56270042738E+01  0.22939075782E+02  0.36545608678E+02  0.91402854724E+02  0.80380569563E+02 0.  0.
          5    1    3    3  501    0 -0.12599732369E+01 -0.44479861965E+02 -0.62555715577E+02  0.76911333394E+02  0.47000000000E+01 0. -1.
        -11    1    4    4    0    0 -0.48480121131E+02  0.21453177819E+02 -0.13654819935E+03  0.14647857089E+03  0.00000000000E+00 0.  1.
         12    1    4    4    0    0 -0.20799765828E+02  0.87264382855E+02 -0.94477464421E+02  0.13028313036E+03  0.00000000000E+00 0. -1.
         -5    1    5    5    0  502  0.64912855922E+02 -0.87176774490E+02  0.10709400906E+03  0.15265872281E+03  0.47000000000E+01 0.  1.
         11    1    6    6    0    0 -0.25200211746E+02  0.21622678492E+02  0.48105820048E+02  0.58453065100E+02  0.00000000000E+00 0. -1.
        -12    1    6    6    0    0  0.30827216019E+02  0.13163972898E+01 -0.11560211370E+02  0.32949789624E+02  0.00000000000E+00 0.  1.
<mgrwt>
<rscale>  2 0.19729148E+03</rscale>
<asrwt>0</asrwt>
<pdfrwt beam="1">  1       21 0.34445605E-01 0.19731628E+03</pdfrwt>
<pdfrwt beam="2">  1       21 0.57513566E-01 0.19731628E+03</pdfrwt>
<totfact> 0.22979615E+04</totfact>
</mgrwt>
</event>
<event>
12    1  0.1019868E-001  0.2138054E+03  0.7546771E-02  0.1138972E+00
         21   -1    0    0  501  502  0.00000000000E+00  0.00000000000E+00  0.71542331133E+03  0.71542331133E+03  0.00000000000E+00 0.  1.
         21   -1    0    0  502  503 -0.00000000000E+00 -0.00000000000E+00 -0.14996040584E+03  0.14996040584E+03  0.00000000000E+00 0. -1.
         -6    2    1    2    0  503  0.35994733971E+02 -0.11853437351E+03 -0.45628027210E+02  0.21861988141E+03  0.17426048636E+03 0.  0.
        -24    2    3    3    0    0  0.52257486237E+02 -0.12915454921E+03 -0.79233079968E+02  0.17952186594E+03  0.80860849233E+02 0.  0.
          6    2    1    2  501    0 -0.35994733971E+02  0.11853437351E+03  0.61109093271E+03  0.64676383575E+03  0.17182931248E+03 0.  0.
         24    2    5    5    0    0 -0.67189836656E+02  0.92390793976E+02  0.57737550459E+03  0.59370310380E+03  0.77912574101E+02 0.  0.
          5    1    5    5  501    0  0.31195102685E+02  0.26143579535E+02  0.33715428120E+02  0.53060731956E+02  0.47000000000E+01 0. -1.
        -11    1    6    6    0    0 -0.37146672612E+02  0.79895418715E+02  0.25709003887E+03  0.27176909556E+03  0.00000000000E+00 0.  1.
         12    1    6    6    0    0 -0.30043164044E+02  0.12495375260E+02  0.32028546572E+03  0.32193400824E+03  0.00000000000E+00 0. -1.
         -5    1    3    3    0  503 -0.16262752266E+02  0.10620175705E+02  0.33605052758E+02  0.39098015475E+02  0.47000000000E+01 0.  1.
         11    1    4    4    0    0 -0.50840131293E+01 -0.50563866710E+02  0.46968263673E+01  0.51035399323E+02  0.00000000000E+00 0. -1.
        -12    1    4    4    0    0  0.57341499366E+02 -0.78590682505E+02 -0.83929906335E+02  0.12848646662E+03  0.00000000000E+00 0.  1.
<mgrwt>
<rscale>  2 0.21330944E+03</rscale>
<asrwt>0</asrwt>
<pdfrwt beam="1">  1       21 0.11006512E+00 0.21380537E+03</pdfrwt>
<pdfrwt beam="2">  1       21 0.23070832E-01 0.21380537E+03</pdfrwt>
<totfact> 0.11342531E+04</totfact>
</mgrwt>
</event>
<event>
12    1  0.1019868E-001  0.2585868E+03  0.7546771E-02  0.1108056E+00
         21   -1    0    0  503  502  0.00000000000E+00  0.00000000000E+00  0.80486391468E+02  0.80486391468E+02  0.00000000000E+00 0. -1.
         21   -1    0    0  501  503 -0.00000000000E+00 -0.00000000000E+00 -0.83068765682E+03  0.83068765682E+03  0.00000000000E+00 0.  1.
          6    2    1    2  501    0 -0.18252419420E+03  0.59587350984E+02 -0.35813520397E+03  0.44173291624E+03  0.17320915421E+03 0.  0.
         24    2    3    3    0    0 -0.10237075620E+03  0.63562549631E+02 -0.32317629985E+03  0.35407111837E+03  0.80021663582E+02 0.  0.
         -6    2    1    2    0  502  0.18252419420E+03 -0.59587350984E+02 -0.39206606138E+03  0.46944113204E+03  0.17260778111E+03 0.  0.
        -24    2    5    5    0    0  0.17459763186E+03 -0.81721005476E+02 -0.39356183553E+03  0.44541913396E+03  0.79653190275E+02 0.  0.
          5    1    3    3  501    0 -0.80153438008E+02 -0.39751986472E+01 -0.34958904124E+02  0.87661797873E+02  0.47000000000E+01 0. -1.
        -13    1    4    4    0    0 -0.17450912210E+02 -0.19060291182E+02 -0.67446168091E+02  0.72227519874E+02  0.00000000000E+00 0.  1.
         14    1    4    4    0    0 -0.84919843985E+02  0.82622840813E+02 -0.25573013175E+03  0.28184359850E+03  0.00000000000E+00 0. -1.
         -5    1    5    5    0  502  0.79265623429E+01  0.22133654492E+02  0.14957741501E+01  0.24021998087E+02  0.47000000000E+01 0.  1.
         13    1    6    6    0    0 -0.18521990745E+00  0.10778813019E+02 -0.22663170865E+02  0.25096542196E+02  0.00000000000E+00 0. -1.
        -14    1    6    6    0    0  0.17478285177E+03 -0.92499818495E+02 -0.37089866467E+03  0.42032259176E+03  0.00000000000E+00 0.  1.
<mgrwt>
<rscale>  2 0.25848616E+03</rscale>
<asrwt>0</asrwt>
<pdfrwt beam="1">  1       21 0.12382521E-01 0.25858682E+03</pdfrwt>
<pdfrwt beam="2">  1       21 0.12779811E+00 0.25858682E+03</pdfrwt>
<totfact> 0.24131245E+04</totfact>
</mgrwt>
</event>
<event>
12    1  0.1019868E-001  0.1748168E+03  0.7546771E-02  0.1172973E+00
         21   -1    0    0  503  502  0.00000000000E+00  0.00000000000E+00  0.24985321858E+03  0.24985321858E+03  0.00000000000E+00 0.  1.
         21   -1    0    0  501  503 -0.00000000000E+00 -0.00000000000E+00 -0.42957951796E+03  0.42957951796E+03  0.00000000000E+00 0.  1.
          6    2    1    2  501    0  0.15239216403E+01  0.26099723410E+02 -0.37726467942E+03  0.41579987474E+03  0.17285074371E+03 0.  0.
         24    2    3    3    0    0 -0.18311578839E+02  0.77918347725E+01 -0.10251304609E+03  0.13968544940E+03  0.92774315125E+02 0.  0.
         -6    2    1    2    0  502 -0.15239216403E+01 -0.26099723410E+02  0.19753838003E+03  0.26363286180E+03  0.17261910768E+03 0.  0.
        -24    2    5    5    0    0  0.14720140632E+01 -0.62277569038E+02  0.20282850101E+03  0.22664789830E+03  0.79681908544E+02 0.  0.
          5    1    3    3  501    0  0.19835500479E+02  0.18307888637E+02 -0.27475163333E+03  0.27611442534E+03  0.47000000000E+01 0. -1.
        -11    1    4    4    0    0 -0.25613900167E+02  0.24641347764E+02 -0.11305536494E+03  0.11851068915E+03  0.00000000000E+00 0.  1.
         12    1    4    4    0    0  0.73023213289E+01 -0.16849512991E+02  0.10542318851E+02  0.21174760249E+02  0.00000000000E+00 0. -1.
         -5    1    5    5    0  502 -0.29959357035E+01  0.36177845628E+02 -0.52901209814E+01  0.36984963499E+02  0.47000000000E+01 0.  1.
         13    1    6    6    0    0  0.20166426339E+02  0.12720702591E+02  0.48912162513E+02  0.54414158703E+02  0.00000000000E+00 0. -1.
        -14    1    6    6    0    0 -0.18694412276E+02 -0.74998271629E+02  0.15391633850E+03  0.17223373960E+03  0.00000000000E+00 0.  1.
<mgrwt>
<rscale>  2 0.17475947E+03</rscale>
<asrwt>0</asrwt>
<pdfrwt beam="1">  1       21 0.38438957E-01 0.17481675E+03</pdfrwt>
<pdfrwt beam="2">  1       21 0.66089156E-01 0.17481675E+03</pdfrwt>
<totfact> 0.13880045E+04</totfact>
</mgrwt>
</event>
<event>
12    1  0.1019868E-001  0.1987116E+03  0.7546771E-02  0.1152221E+00
         21   -1    0    0  501  502  0.00000000000E+00  0.00000000000E+00  0.14377333910E+03  0.14377333910E+03  0.00000000000E+00 0. -1.
         21   -1    0    0  502  503 -0.00000000000E+00 -0.00000000000E+00 -0.37085838666E+03  0.37085838666E+03  0.00000000000E+00 0. -1.
         -6    2    1    2    0  503  0.81810619701E+02 -0.20049136059E+02 -0.24912196147E+03  0.31470192187E+03  0.17286006648E+03 0.  0.
        -24    2    3    3    0    0  0.86955301315E+02 -0.11376863548E+02 -0.26768946692E+03  0.29305663790E+03  0.80832449342E+02 0.  0.
          6    2    1    2  501    0 -0.81810619701E+02  0.20049136059E+02  0.22036913914E+02  0.19992980390E+03  0.17997598606E+03 0.  0.
         24    2    5    5    0    0 -0.67098104803E+02 -0.26347997304E+01  0.82541804437E+02  0.13349223309E+03  0.80609732523E+02 0.  0.
          5    1    5    5  501    0 -0.14712514899E+02  0.22683935790E+02 -0.60504890523E+02  0.66437570807E+02  0.47000000000E+01 0. -1.
        -13    1    6    6    0    0  0.17689623497E+02  0.40761311307E+01  0.24623231590E+02  0.30591521021E+02  0.00000000000E+00 0.  1.
         14    1    6    6    0    0 -0.84787728300E+02 -0.67109308611E+01  0.57918572847E+02  0.10290071207E+03  0.00000000000E+00 0. -1.
         -5    1    3    3    0  503 -0.51446816134E+01 -0.86722725117E+01  0.18567505446E+02  0.21645283964E+02  0.47000000000E+01 0.  1.
         11    1    4    4    0    0  0.12625432511E+02  0.15737952858E+02 -0.14933096722E+03  0.15068783122E+03  0.00000000000E+00 0. -1.
        -12    1    4    4    0    0  0.74329868803E+02 -0.27114816406E+02 -0.11835849970E+03  0.14236880668E+03  0.00000000000E+00 0.  1.
<mgrwt>
<rscale>  2 0.19708644E+03</rscale>
<asrwt>0</asrwt>
<pdfrwt beam="1">  1       21 0.22118975E-01 0.19871160E+03</pdfrwt>
<pdfrwt beam="2">  1       21 0.57055136E-01 0.19871160E+03</pdfrwt>
<totfact> 0.54978131E+04</totfact>
</mgrwt>
</event>
<event>
12    1  0.1019868E-001  0.2975954E+03  0.7546771E-02  0.1086525E+00
         21   -1    0    0  503  502  0.00000000000E+00  0.00000000000E+00  0.12083836956E+03  0.12083836956E+03  0.00000000000E+00 0. -1.
         21   -1    0    0  501  503 -0.00000000000E+00 -0.00000000000E+00 -0.75092935091E+03  0.75092935091E+03  0.00000000000E+00 0.  1.
          6    2    1    2  501    0 -0.11070131133E+03 -0.21450263452E+03 -0.38562541276E+03  0.48710368920E+03  0.17406000266E+03 0.  0.
         24    2    3    3    0    0 -0.14020559708E+03 -0.13099948119E+03 -0.25129761801E+03  0.32613994814E+03  0.79989370756E+02 0.  0.
         -6    2    1    2    0  502  0.11070131133E+03  0.21450263452E+03 -0.24446556859E+03  0.38466403127E+03  0.17302266379E+03 0.  0.
        -24    2    5    5    0    0  0.24364716066E+02  0.98824655905E+02 -0.43384801598E+02  0.13709390531E+03  0.80947797121E+02 0.  0.
          5    1    3    3  501    0  0.29504285753E+02 -0.83503153328E+02 -0.13432779475E+03  0.16096374106E+03  0.47000000000E+01 0. -1.
        -11    1    4    4    0    0 -0.83861437162E+02 -0.43866726037E+02 -0.16902698557E+03  0.19371926117E+03  0.00000000000E+00 0.  1.
         12    1    4    4    0    0 -0.56344159915E+02 -0.87132755153E+02 -0.82270632435E+02  0.13242068697E+03  0.00000000000E+00 0. -1.
         -5    1    5    5    0  502  0.86336595259E+02  0.11567797861E+03 -0.20108076699E+03  0.24757012597E+03  0.47000000000E+01 0.  1.
         11    1    6    6    0    0 -0.12372598366E+02  0.89702945777E+02 -0.40301736073E+02  0.99115738416E+02  0.00000000000E+00 0. -1.
        -12    1    6    6    0    0  0.36737314431E+02  0.91217101285E+01 -0.30830655248E+01  0.37978166890E+02  0.00000000000E+00 0.  1.
<mgrwt>
<rscale>  2 0.29744394E+03</rscale>
<asrwt>0</asrwt>
<pdfrwt beam="1">  1       21 0.18590518E-01 0.29759544E+03</pdfrwt>
<pdfrwt beam="2">  1       21 0.11552759E+00 0.29759544E+03</pdfrwt>
<totfact> 0.14467467E+04</totfact>
</mgrwt>
</event>
<event>
12    1  0.1019868E-001  0.2133578E+03  0.7546771E-02  0.1138975E+00
         21   -1    0    0  503  502  0.00000000000E+00  0.00000000000E+00  0.36502555814E+03  0.36502555814E+03  0.00000000000E+00 0.  1.
         21   -1    0    0  501  503 -0.00000000000E+00 -0.00000000000E+00 -0.16719909350E+03  0.16719909350E+03  0.00000000000E+00 0.  1.
          6    2    1    2  501    0 -0.12212046695E+03 -0.28039262990E+02 -0.35394666018E+02  0.21627373243E+03  0.17269028994E+03 0.  0.
         24    2    3    3    0    0 -0.50971765894E+02 -0.86057908845E+02 -0.22006385513E+01  0.11853819955E+03  0.63579692896E+02 0.  0.
         -6    2    1    2    0  502  0.12212046695E+03  0.28039262990E+02  0.23322113065E+03  0.31595091921E+03  0.17243340409E+03 0.  0.
        -24    2    5    5    0    0  0.50500194677E+02 -0.16803705888E+02  0.37823618868E+02  0.10301282287E+03  0.79676730216E+02 0.  0.
          5    1    3    3  501    0 -0.71148701057E+02  0.58018645855E+02 -0.33194027467E+02  0.97735532886E+02  0.47000000000E+01 0. -1.
        -13    1    4    4    0    0  0.75203933349E+01  0.90172832022E+00 -0.11013933570E+02  0.13366980308E+02  0.00000000000E+00 0.  1.
         14    1    4    4    0    0 -0.58492159229E+02 -0.86959637165E+02  0.88132950187E+01  0.10517121924E+03  0.00000000000E+00 0. -1.
         -5    1    5    5    0  502  0.71620272273E+02  0.44842968878E+02  0.19539751178E+03  0.21293809633E+03  0.47000000000E+01 0.  1.
         11    1    6    6    0    0  0.59377433160E+02 -0.19023950916E+02 -0.17698694261E+01  0.62375658032E+02  0.00000000000E+00 0. -1.
        -12    1    6    6    0    0 -0.88772384822E+01  0.22202450278E+01  0.39593488294E+02  0.40637164842E+02  0.00000000000E+00 0.  1.
<mgrwt>
<rscale>  2 0.21330580E+03</rscale>
<asrwt>0</asrwt>
<pdfrwt beam="1">  1       21 0.56157778E-01 0.21335779E+03</pdfrwt>
<pdfrwt beam="2">  1       21 0.25722937E-01 0.21335779E+03</pdfrwt>
<totfact> 0.42364833E+04</totfact>
</mgrwt>
</event>
<event>
12    1  0.1019868E-001  0.2458813E+03  0.7546771E-02  0.1115996E+00
         21   -1    0    0  503  502  0.00000000000E+00  0.00000000000E+00  0.80988063977E+03  0.80988063977E+03  0.00000000000E+00 0.  1.
         21   -1    0    0  501  503 -0.00000000000E+00 -0.00000000000E+00 -0.21911047926E+03  0.21911047926E+03  0.00000000000E+00 0. -1.
          6    2    1    2  501    0  0.92083645894E+02 -0.14819239340E+03 -0.12261402123E+03  0.27442196960E+03  0.17272184544E+03 0.  0.
         24    2    3    3    0    0  0.15345079534E+02 -0.11916004175E+03 -0.28016829542E+02  0.14911273736E+03  0.83756066579E+02 0.  0.
         -6    2    1    2    0  502 -0.92083645894E+02  0.14819239340E+03  0.71338418174E+03  0.75456914943E+03  0.17325480433E+03 0.  0.
        -24    2    5    5    0    0 -0.11172855126E+03  0.60879047198E+02  0.51513408135E+03  0.53700367645E+03  0.82585102768E+02 0.  0.
          5    1    3    3  501    0  0.76738566360E+02 -0.29032351648E+02 -0.94597191687E+02  0.12530923224E+03  0.47000000000E+01 0. -1.
        -13    1    4    4    0    0  0.38535075066E+02 -0.28783298836E+02  0.86359152142E+01  0.48867262393E+02  0.00000000000E+00 0.  1.
         14    1    4    4    0    0 -0.23189995532E+02 -0.90376742917E+02 -0.36652744756E+02  0.10024547497E+03  0.00000000000E+00 0. -1.
         -5    1    5    5    0  502  0.19644905362E+02  0.87313346203E+02  0.19825010038E+03  0.21756547298E+03  0.47000000000E+01 0.  1.
         13    1    6    6    0    0 -0.18630128254E+02 -0.53487390404E+01  0.16520988121E+02  0.25468288842E+02  0.00000000000E+00 0. -1.
        -14    1    6    6    0    0 -0.93098423002E+02  0.66227786238E+02  0.49861309323E+03  0.51153538761E+03  0.00000000000E+00 0.  1.
<mgrwt>
<rscale>  2 0.24578743E+03</rscale>
<asrwt>0</asrwt>
<pdfrwt beam="1">  1       21 0.12459702E+00 0.24588129E+03</pdfrwt>
<pdfrwt beam="2">  1       21 0.33709305E-01 0.24588129E+03</pdfrwt>
<totfact> 0.39140542E+03</totfact>
</mgrwt>
</event>
<event>
12    1  0.1019868E-001  0.2002719E+03  0.7546771E-02  0.1152955E+00
         21   -1    0    0  503  502  0.00000000000E+00  0.00000000000E+00  0.19297975369E+03  0.19297975369E+03  0.00000000000E+00 0.  1.
         21   -1    0    0  501  503 -0.00000000000E+00 -0.00000000000E+00 -0.19948444357E+03  0.19948444357E+03  0.00000000000E+00 0.  1.
          6    2    1    2  501    0  0.37091503212E+02 -0.58197166438E+02 -0.41363632680E+02  0.18918114637E+03  0.17121876720E+03 0.  0.
         24    2    3    3    0    0  0.56616191710E+01 -0.35022817881E+02 -0.91153551367E+02  0.12573026738E+03  0.78996699333E+02 0.  0.
         -6    2    1    2    0  502 -0.37091503212E+02  0.58197166438E+02  0.34858942800E+02  0.20328305089E+03  0.18800575282E+03 0.  0.
        -24    2    5    5    0    0  0.14893193132E+02 -0.22471372840E+02 -0.27925723245E+02  0.88505761435E+02  0.79540266466E+02 0.  0.
          5    1    3    3  501    0  0.31429884041E+02 -0.23174348557E+02  0.49789918687E+02  0.63450878991E+02  0.47000000000E+01 0. -1.
        -11    1    4    4    0    0 -0.20247563745E+01 -0.32406121954E+02  0.17081982721E+01  0.32514217195E+02  0.00000000000E+00 0.  1.
         12    1    4    4    0    0  0.76863755455E+01 -0.26166959269E+01 -0.92861749639E+02  0.93216050188E+02  0.00000000000E+00 0. -1.
         -5    1    5    5    0  502 -0.51984696343E+02  0.80668539279E+02  0.62784666045E+02  0.11477728945E+03  0.47000000000E+01 0.  1.
         11    1    6    6    0    0  0.42807645777E+02  0.72551790330E+00 -0.16941047222E+00  0.42814128662E+02  0.00000000000E+00 0. -1.
        -12    1    6    6    0    0 -0.27914452646E+02 -0.23196890744E+02 -0.27756312773E+02  0.45691632773E+02  0.00000000000E+00 0.  1.
<mgrwt>
<rscale>  2 0.19623444E+03</rscale>
<asrwt>0</asrwt>
<pdfrwt beam="1">  1       21 0.29689193E-01 0.20027195E+03</pdfrwt>
<pdfrwt beam="2">  1       21 0.30689914E-01 0.20027195E+03</pdfrwt>
<totfact> 0.11052341E+05</totfact>
</mgrwt>
</event>
<event>
12    1  0.1019868E-001  0.2273464E+03  0.7546771E-02  0.1129319E+00
         21   -1    0    0  501  502  0.00000000000E+00  0.00000000000E+00  0.15857601082E+04  0.15857601082E+04  0.00000000000E+00 0. -1.
         21   -1    0    0  502  503 -0.00000000000E+00 -0.00000000000E+00 -0.40376838023E+02  0.40376838023E+02  0.00000000000E+00 0. -1.
         -6    2    1    2    0  503  0.12481309103E+02 -0.14702535705E+03  0.39555442816E+03  0.45404788968E+03  0.16710458339E+03 0.  0.
        -24    2    3    3    0    0 -0.14418232489E+02 -0.12804635696E+02  0.19448982959E+03  0.21076235748E+03  0.78883669997E+02 0.  0.
          6    2    1    2  501    0 -0.12481309103E+02  0.14702535705E+03  0.11498288421E+04  0.11720890566E+04  0.17295708094E+03 0.  0.
         24    2    5    5    0    0  0.48101459782E+02  0.44425232159E+02  0.42295255727E+03  0.43549671281E+03  0.80505710896E+02 0.  0.
          5    1    5    5  501    0 -0.60582768885E+02  0.10260012489E+03  0.72687628479E+03  0.73659234378E+03  0.47000000000E+01 0. -1.
        -13    1    6    6    0    0 -0.14867975342E+02 -0.10463711292E+02  0.11443820228E+03  0.11587341406E+03  0.00000000000E+00 0.  1.
         14    1    6    6    0    0  0.62969435124E+02  0.54888943451E+02  0.30851435498E+03  0.31962329875E+03  0.00000000000E+00 0. -1.
         -5    1    3    3    0  503  0.26899541591E+02 -0.13422072136E+03  0.20106459856E+03  0.24328553219E+03  0.47000000000E+01 0.  1.
         13    1    4    4    0    0 -0.42964420680E+02 -0.24762185050E+02  0.13250726022E+03  0.14148244154E+03  0.00000000000E+00 0. -1.
        -14    1    4    4    0    0  0.28546188191E+02  0.11957549354E+02  0.61982569371E+02  0.69279915940E+02  0.00000000000E+00 0.  1.
<mgrwt>
<rscale>  2 0.22623326E+03</rscale>
<asrwt>0</asrwt>
<pdfrwt beam="1">  1       21 0.24396305E+00 0.22734641E+03</pdfrwt>
<pdfrwt beam="2">  1       21 0.62118225E-02 0.22734641E+03</pdfrwt>
<totfact> 0.13016796E+04</totfact>
</mgrwt>
</event>
<event>
12    1  0.1019868E-001  0.1792591E+03  0.7546771E-02  0.1168589E+00
         21   -1    0    0  503  502  0.00000000000E+00  0.00000000000E+00  0.66192403033E+03  0.66192403033E+03  0.00000000000E+00 0.  1.
         21   -1    0    0  501  503 -0.00000000000E+00 -0.00000000000E+00 -0.84018736079E+02  0.84018736079E+02  0.00000000000E+00 0.  1.
          6    2    1    2  501    0 -0.40038773401E+01  0.44189246947E+02  0.46480528804E+02  0.18518708118E+03  0.17368101479E+03 0.  0.
         24    2    3    3    0    0  0.67710142137E+02  0.42206944100E+02  0.29496137075E+02  0.11131293363E+03  0.71794551412E+02 0.  0.
         -6    2    1    2    0  502  0.40038773401E+01 -0.44189246947E+02  0.53142476544E+03  0.56075568522E+03  0.17339531886E+03 0.  0.
        -24    2    5    5    0    0  0.36347388233E+02 -0.28026755209E+02  0.51047515211E+03  0.51870446485E+03  0.79767219426E+02 0.  0.
          5    1    3    3  501    0 -0.71714019477E+02  0.19823028465E+01  0.16984391729E+02  0.73874147552E+02  0.47000000000E+01 0. -1.
        -11    1    4    4    0    0 -0.38781927518E+01 -0.70644261133E+01 -0.12436942232E+02  0.14819717521E+02  0.00000000000E+00 0.  1.
         12    1    4    4    0    0  0.71588334889E+02  0.49271370214E+02  0.41933079307E+02  0.96493216109E+02  0.00000000000E+00 0. -1.
         -5    1    5    5    0  502 -0.32343510893E+02 -0.16162491738E+02  0.20949613335E+02  0.42051220374E+02  0.47000000000E+01 0.  1.
         11    1    6    6    0    0 -0.18448466563E+02 -0.27927008819E+01  0.37375763719E+02  0.41774308017E+02  0.00000000000E+00 0. -1.
        -12    1    6    6    0    0  0.54795854796E+02 -0.25234054327E+02  0.47309938839E+03  0.47693015683E+03  0.00000000000E+00 0.  1.
<mgrwt>
<rscale>  2 0.17918984E+03</rscale>
<asrwt>0</asrwt>
<pdfrwt beam="1">  1       21 0.10183446E+00 0.17925907E+03</pdfrwt>
<pdfrwt beam="2">  1       21 0.12925960E-01 0.17925907E+03</pdfrwt>
<totfact> 0.40661752E+04</totfact>
</mgrwt>
</event>
<event>
12    1  0.1019868E-001  0.2279951E+03  0.7546771E-02  0.1128094E+00
         21   -1    0    0  501  502  0.00000000000E+00  0.00000000000E+00  0.17878372018E+03  0.17878372018E+03  0.00000000000E+00 0. -1.
         21   -1    0    0  502  503 -0.00000000000E+00 -0.00000000000E+00 -0.40284557278E+03  0.40284557278E+03  0.00000000000E+00 0. -1.
         -6    2    1    2    0  503  0.10057819303E+03  0.10903550605E+03 -0.26557007980E+03  0.34988653528E+03  0.17288263589E+03 0.  0.
        -24    2    3    3    0    0  0.11720191962E+03  0.12650297288E+03 -0.18731383687E+03  0.26786464649E+03  0.83220810195E+02 0.  0.
          6    2    1    2  501    0 -0.10057819303E+03 -0.10903550605E+03  0.41508227201E+02  0.23174275768E+03  0.17313884116E+03 0.  0.
         24    2    5    5    0    0  0.56527065114E+01 -0.21453657119E+02  0.42917022090E+02  0.93976074545E+02  0.80606571116E+02 0.  0.
          5    1    5    5  501    0 -0.10623089954E+03 -0.87581848928E+02 -0.14087948886E+01  0.13776668313E+03  0.47000000000E+01 0. -1.
        -13    1    6    6    0    0 -0.22119874761E+02 -0.42637917254E+01 -0.15293723555E+02  0.27228050968E+02  0.00000000000E+00 0.  1.
         14    1    6    6    0    0  0.27772581273E+02 -0.17189865394E+02  0.58210745645E+02  0.66748023577E+02  0.00000000000E+00 0. -1.
         -5    1    3    3    0  503 -0.16623726586E+02 -0.17467466829E+02 -0.78256242926E+02  0.82021888786E+02  0.47000000000E+01 0.  1.
         11    1    4    4    0    0  0.44411255714E+01  0.33053347113E+02 -0.78879154138E+02  0.85639758928E+02  0.00000000000E+00 0. -1.
        -12    1    4    4    0    0  0.11276079404E+03  0.93449625764E+02 -0.10843468273E+03  0.18222488756E+03  0.00000000000E+00 0.  1.
<mgrwt>
<rscale>  2 0.22794648E+03</rscale>
<asrwt>0</asrwt>
<pdfrwt beam="1">  1       21 0.27505188E-01 0.22799512E+03</pdfrwt>
<pdfrwt beam="2">  1       21 0.61976241E-01 0.22799512E+03</pdfrwt>
<totfact> 0.29910650E+04</totfact>
</mgrwt>
</event>
<event>
12    1  0.1019868E-001  0.1914630E+03  0.7546771E-02  0.1157435E+00
         21   -1    0    0  503  502  0.00000000000E+00  0.00000000000E+00  0.47723960858E+02  0.47723960858E+02  0.00000000000E+00 0.  1.
         21   -1    0    0  501  503 -0.00000000000E+00 -0.00000000000E+00 -0.27612150429E+04  0.27612150429E+04  0.00000000000E+00 0.  1.
          6    2    1    2  501    0 -0.55736545666E+02 -0.53402070657E+02 -0.25502529874E+04  0.25573346055E+04  0.17381496245E+03 0.  0.
         24    2    3    3    0    0 -0.44154361593E+02 -0.95076723808E+02 -0.22638038101E+04  0.22675999944E+04  0.78821652687E+02 0.  0.
         -6    2    1    2    0  502  0.55736545666E+02  0.53402070657E+02 -0.16323809469E+03  0.25160439829E+03  0.17521345270E+03 0.  0.
        -24    2    5    5    0    0  0.40737960138E+02 -0.29722559188E+02 -0.12881600897E+03  0.16027186498E+03  0.80935125977E+02 0.  0.
          5    1    3    3  501    0 -0.11582184074E+02  0.41674653150E+02 -0.28644917723E+03  0.28973461105E+03  0.47000000000E+01 0. -1.
        -13    1    4    4    0    0  0.57374858394E+01 -0.69750064949E+02 -0.93336254530E+03  0.93598270885E+03  0.00000000000E+00 0.  1.
         14    1    4    4    0    0 -0.49891847432E+02 -0.25326658859E+02 -0.13304412649E+04  0.13316172856E+04  0.00000000000E+00 0. -1.
         -5    1    5    5    0  502  0.14998585528E+02  0.83124629845E+02 -0.34422085721E+02  0.91332533306E+02  0.47000000000E+01 0.  1.
         13    1    6    6    0    0  0.65415427806E+02 -0.17903801821E+02 -0.96103170421E+02  0.11762458790E+03  0.00000000000E+00 0. -1.
        -14    1    6    6    0    0 -0.24677467668E+02 -0.11818757367E+02 -0.32712838553E+02  0.42647277081E+02  0.00000000000E+00 0.  1.
<mgrwt>
<rscale>  2 0.19114250E+03</rscale>
<asrwt>0</asrwt>
<pdfrwt beam="1">  1       21 0.73421489E-02 0.19146305E+03</pdfrwt>
<pdfrwt beam="2">  1       21 0.42480225E+00 0.19146305E+03</pdfrwt>
<totfact> 0.84754998E+02</totfact>
</mgrwt>
</event>
<event>
12    1  0.1019868E-001  0.2109398E+03  0.7546771E-02  0.1141139E+00
         21   -1    0    0  503  502  0.00000000000E+00  0.00000000000E+00  0.45102093057E+03  0.45102093057E+03  0.00000000000E+00 0. -1.
         21   -1    0    0  501  503 -0.00000000000E+00 -0.00000000000E+00 -0.97918400059E+02  0.97918400059E+02  0.00000000000E+00 0. -1.
          6    2    1    2  501    0 -0.37229602600E+00 -0.11856718099E+03  0.17970684690E+03  0.27711038269E+03  0.17446288534E+03 0.  0.
         24    2    3    3    0    0  0.16728230467E+02 -0.12437074369E+03  0.20013379691E+03  0.24944344153E+03  0.80128511006E+02 0.  0.
         -6    2    1    2    0  502  0.37229602600E+00  0.11856718099E+03  0.17339568361E+03  0.27182894794E+03  0.17252999400E+03 0.  0.
        -24    2    5    5    0    0  0.77777374916E+01  0.10860917156E+02  0.32755648188E+02  0.94467200665E+02  0.87593760002E+02 0.  0.
          5    1    3    3  501    0 -0.17100526493E+02  0.58035627056E+01 -0.20426950011E+02  0.27666941161E+02  0.47000000000E+01 0. -1.
        -13    1    4    4    0    0 -0.49154258964E+01  0.60458365226E+01 -0.18818426526E+01  0.80159143440E+01  0.00000000000E+00 0.  1.
         14    1    4    4    0    0  0.21643656364E+02 -0.13041658021E+03  0.20201563956E+03  0.24142752719E+03  0.00000000000E+00 0. -1.
         -5    1    5    5    0  502 -0.74054414656E+01  0.10770626383E+03  0.14064003542E+03  0.17736174727E+03  0.47000000000E+01 0.  1.
         11    1    6    6    0    0 -0.17073111636E+02  0.17511931301E+02  0.55169181260E+02  0.60347306815E+02  0.00000000000E+00 0. -1.
        -12    1    6    6    0    0  0.24850849128E+02 -0.66510141445E+01 -0.22413533073E+02  0.34119893850E+02  0.00000000000E+00 0.  1.
<mgrwt>
<rscale>  2 0.21053974E+03</rscale>
<asrwt>0</asrwt>
<pdfrwt beam="1">  1       21 0.69387835E-01 0.21093983E+03</pdfrwt>
<pdfrwt beam="2">  1       21 0.15064369E-01 0.21093983E+03</pdfrwt>
<totfact> 0.72935016E+04</totfact>
</mgrwt>
</event>
<event>
12    1  0.1019868E-001  0.1813664E+03  0.7546771E-02  0.1166659E+00
         21   -1    0    0  501  502  0.00000000000E+00  0.00000000000E+00  0.16851043656E+02  0.16851043656E+02  0.00000000000E+00 0.  1.
         21   -1    0    0  502  503 -0.00000000000E+00 -0.00000000000E+00 -0.19906934060E+04  0.19906934060E+04  0.00000000000E+00 0.  1.
         -6    2    1    2    0  503  0.29935354878E+02  0.43470122014E+02 -0.11382134623E+04  0.11524599820E+04  0.17276674231E+03 0.  0.
        -24    2    3    3    0    0  0.20794294221E+02  0.78316655482E+02 -0.10602423943E+04  0.10664401160E+04  0.81330715269E+02 0.  0.
          6    2    1    2  501    0 -0.29935354878E+02 -0.43470122014E+02 -0.83562890001E+03  0.85508446768E+03  0.17351660251E+03 0.  0.
         24    2    5    5    0    0  0.36137497117E+02 -0.17557206783E+02 -0.26683841701E+03  0.28186391283E+03  0.81426963316E+02 0.  0.
          5    1    5    5  501    0 -0.66072851995E+02 -0.25912915230E+02 -0.56879048300E+03  0.57322055485E+03  0.47000000000E+01 0. -1.
        -11    1    6    6    0    0  0.56146757414E+02 -0.24105243753E+02 -0.24052366832E+03  0.24816356737E+03  0.00000000000E+00 0.  1.
         12    1    6    6    0    0 -0.20009260297E+02  0.65480369696E+01 -0.26314748685E+02  0.33700345460E+02  0.00000000000E+00 0. -1.
         -5    1    3    3    0  503  0.91410606576E+01 -0.34846533468E+02 -0.77971068030E+02  0.86019865929E+02  0.47000000000E+01 0.  1.
         11    1    4    4    0    0  0.10051803892E+02 -0.72463133216E+01 -0.28214586739E+02  0.30815754462E+02  0.00000000000E+00 0. -1.
        -12    1    4    4    0    0  0.10742490329E+02  0.85562968803E+02 -0.10320278076E+04  0.10356243616E+04  0.00000000000E+00 0.  1.
<mgrwt>
<rscale>  2 0.18118686E+03</rscale>
<asrwt>0</asrwt>
<pdfrwt beam="1">  1       21 0.25924678E-02 0.18136645E+03</pdfrwt>
<pdfrwt beam="2">  1       21 0.30626058E+00 0.18136645E+03</pdfrwt>
<totfact> 0.25583596E+04</totfact>
</mgrwt>
</event>
<event>
12    1  0.1019868E-001  0.1805585E+03  0.7546771E-02  0.1168382E+00
         21   -1    0    0  501  502  0.00000000000E+00  0.00000000000E+00  0.21741572843E+03  0.21741572843E+03  0.00000000000E+00 0. -1.
         21   -1    0    0  502  503 -0.00000000000E+00 -0.00000000000E+00 -0.49415828823E+03  0.49415828823E+03  0.00000000000E+00 0. -1.
         -6    2    1    2    0  503  0.96312582185E+01 -0.48995876902E+02 -0.43640293221E+03  0.47054949053E+03  0.16874817541E+03 0.  0.
        -24    2    3    3    0    0 -0.15242333513E+02 -0.22832242149E+02 -0.92815154851E+02  0.12503844570E+03  0.79160090447E+02 0.  0.
          6    2    1    2  501    0 -0.96312582185E+01  0.48995876902E+02  0.15966037242E+03  0.24102452614E+03  0.17351665797E+03 0.  0.
         24    2    5    5    0    0 -0.70435425161E+01 -0.38856100272E+02  0.57622336868E+02  0.10627098494E+03  0.80086081907E+02 0.  0.
          5    1    5    5  501    0 -0.25877157024E+01  0.87851977174E+02  0.10203803555E+03  0.13475354119E+03  0.47000000000E+01 0. -1.
        -11    1    6    6    0    0  0.10173288097E+02  0.10079388443E+02 -0.12525170681E+02  0.19025502955E+02  0.00000000000E+00 0.  1.
         12    1    6    6    0    0 -0.17216830613E+02 -0.48935488715E+02  0.70147507549E+02  0.87245481989E+02  0.00000000000E+00 0. -1.
         -5    1    3    3    0  503  0.24873591732E+02 -0.26163634753E+02 -0.34358777736E+03  0.34551104483E+03  0.47000000000E+01 0.  1.
         13    1    4    4    0    0 -0.34449099803E+02 -0.39795863620E+02 -0.81515868213E+02  0.97032407004E+02  0.00000000000E+00 0. -1.
        -14    1    4    4    0    0  0.19206766290E+02  0.16963621471E+02 -0.11299286638E+02  0.28006038692E+02  0.00000000000E+00 0.  1.
<mgrwt>
<rscale>  2 0.17940311E+03</rscale>
<asrwt>0</asrwt>
<pdfrwt beam="1">  1       21 0.33448574E-01 0.18055854E+03</pdfrwt>
<pdfrwt beam="2">  1       21 0.76024350E-01 0.18055854E+03</pdfrwt>
<totfact> 0.13383624E+04</totfact>
</mgrwt>
</event>
<event>
12    1  0.1019868E-001  0.2277704E+03  0.7546771E-02  0.1128882E+00
         21   -1    0    0  503  502  0.00000000000E+00  0.00000000000E+00  0.94382104319E+02  0.94382104319E+02  0.00000000000E+00 0.  1.
         21   -1    0    0  501  503 -0.00000000000E+00 -0.00000000000E+00 -0.67537779955E+03  0.67537779955E+03  0.00000000000E+00 0.  1.
          6    2    1    2  501    0 -0.14625773225E+03 -0.16728129950E+02 -0.46419621714E+03  0.51706621123E+03  0.17380501778E+03 0.  0.
         24    2    3    3    0    0 -0.16936565030E+03 -0.39607617920E+02 -0.42768068626E+03  0.46794472060E+03  0.76210269882E+02 0.  0.
         -6    2    1    2    0  502  0.14625773225E+03  0.16728129950E+02 -0.11679947809E+03  0.25269369264E+03  0.16894031385E+03 0.  0.
        -24    2    5    5    0    0  0.81182518819E+02 -0.52806976826E+02 -0.87934749299E+02  0.15306850985E+03  0.79487548775E+02 0.  0.
          5    1    3    3  501    0  0.23107918044E+02  0.22879487970E+02 -0.36515530879E+02  0.49121490628E+02  0.47000000000E+01 0. -1.
        -11    1    4    4    0    0 -0.84314259568E+02  0.19030205593E+02 -0.18537099470E+03  0.20453226828E+03  0.00000000000E+00 0.  1.
         12    1    4    4    0    0 -0.85051390729E+02 -0.58637823513E+02 -0.24230969156E+03  0.26341245232E+03  0.00000000000E+00 0. -1.
         -5    1    5    5    0  502  0.65075213435E+02  0.69535106776E+02 -0.28864728787E+02  0.99625182790E+02  0.47000000000E+01 0.  1.
         13    1    6    6    0    0  0.23496515481E+02 -0.39647521662E+02  0.11774183356E+01  0.46102044723E+02  0.00000000000E+00 0. -1.
        -14    1    6    6    0    0  0.57686003338E+02 -0.13159455164E+02 -0.89112167635E+02  0.10696646513E+03  0.00000000000E+00 0.  1.
<mgrwt>
<rscale>  2 0.22684219E+03</rscale>
<asrwt>0</asrwt>
<pdfrwt beam="1">  1       21 0.14520324E-01 0.22777036E+03</pdfrwt>
<pdfrwt beam="2">  1       21 0.10390427E+00 0.22777036E+03</pdfrwt>
<totfact> 0.30585872E+04</totfact>
</mgrwt>
</event>
<event>
12    1  0.1019868E-001  0.1798221E+03  0.7546771E-02  0.1168666E+00
         21   -1    0    0  501  502  0.00000000000E+00  0.00000000000E+00  0.13571796755E+03  0.13571796755E+03  0.00000000000E+00 0. -1.
         21   -1    0    0  502  503 -0.00000000000E+00 -0.00000000000E+00 -0.28414629194E+03  0.28414629194E+03  0.00000000000E+00 0.  1.
         -6    2    1    2    0  503 -0.39577258223E+02 -0.16636324023E+02 -0.16242160484E+03  0.24231540583E+03  0.17462202479E+03 0.  0.
        -24    2    3    3    0    0 -0.43218022540E+02  0.55931997646E+02 -0.60262742641E+02  0.11686446084E+03  0.70919096330E+02 0.  0.
          6    2    1    2  501    0  0.39577258223E+02  0.16636324023E+02  0.13993280453E+02  0.17754885366E+03  0.17171096905E+03 0.  0.
         24    2    5    5    0    0  0.70749797779E+02  0.18713631781E+00 -0.41663811271E+02  0.11150262093E+03  0.75441317581E+02 0.  0.
          5    1    5    5  501    0 -0.31172539556E+02  0.16449187705E+02  0.55657091724E+02  0.66046232729E+02  0.47000000000E+01 0. -1.
        -13    1    6    6    0    0  0.79511269245E+02  0.16093184731E+02 -0.20612853450E+02  0.83701387438E+02  0.00000000000E+00 0.  1.
         14    1    6    6    0    0 -0.87614714660E+01 -0.15906048414E+02 -0.21050957820E+02  0.27801233489E+02  0.00000000000E+00 0. -1.
         -5    1    3    3    0  503  0.36407643172E+01 -0.72568321669E+02 -0.10215886220E+03  0.12545094499E+03  0.47000000000E+01 0.  1.
         11    1    4    4    0    0 -0.35026003495E+02 -0.77885372444E+01 -0.21947589778E+02  0.42061608746E+02  0.00000000000E+00 0. -1.
        -12    1    4    4    0    0 -0.81920190447E+01  0.63720534890E+02 -0.38315152863E+02  0.74802852095E+02  0.00000000000E+00 0.  1.
<mgrwt>
<rscale>  2 0.17911150E+03</rscale>
<asrwt>0</asrwt>
<pdfrwt beam="1">  1       21 0.20879687E-01 0.17982207E+03</pdfrwt>
<pdfrwt beam="2">  1       21 0.43714814E-01 0.17982207E+03</pdfrwt>
<totfact> 0.10759617E+05</totfact>
</mgrwt>
</event>
<event>
12    1  0.1019868E-001  0.2364538E+03  0.7546771E-02  0.1122394E+00
         21   -1    0    0  503  502  0.00000000000E+00  0.00000000000E+00  0.19947864513E+03  0.19947864513E+03  0.00000000000E+00 0.  1.
         21   -1    0    0  501  503 -0.00000000000E+00 -0.00000000000E+00 -0.28223290555E+03  0.28223290555E+03  0.00000000000E+00 0.  1.
          6    2    1    2  501    0  0.15493323027E+03  0.41969488841E+02 -0.14642547437E+02  0.23564321295E+03  0.17189408303E+03 0.  0.
         24    2    3    3    0    0  0.10401443043E+03  0.46534594831E+02 -0.73039298168E+02  0.15788824614E+03  0.81298763438E+02 0.  0.
         -6    2    1    2    0  502 -0.15493323027E+03 -0.41969488841E+02 -0.68111712988E+02  0.24606833772E+03  0.17362222654E+03 0.  0.
        -24    2    5    5    0    0 -0.89540922630E+02 -0.50907323824E+02  0.22967862807E+02  0.13349117344E+03  0.81751074728E+02 0.  0.
          5    1    3    3  501    0  0.50918799832E+02 -0.45651059902E+01  0.58396750730E+02  0.77754966818E+02  0.47000000000E+01 0. -1.
        -13    1    4    4    0    0  0.85718588844E+01 -0.83372330636E+01  0.13368759279E+02  0.17936274545E+02  0.00000000000E+00 0.  1.
         14    1    4    4    0    0  0.95442571549E+02  0.54871827895E+02 -0.86408057447E+02  0.13995197159E+03  0.00000000000E+00 0. -1.
         -5    1    5    5    0  502 -0.65392307635E+02  0.89378349824E+01 -0.91079575795E+02  0.11257716429E+03  0.47000000000E+01 0.  1.
         11    1    6    6    0    0 -0.17706646771E+00  0.11492613041E+02 -0.14259453194E+02  0.18315117047E+02  0.00000000000E+00 0. -1.
        -12    1    6    6    0    0 -0.89363856162E+02 -0.62399936865E+02  0.37227316001E+02  0.11517605639E+03  0.00000000000E+00 0.  1.
<mgrwt>
<rscale>  2 0.23613671E+03</rscale>
<asrwt>0</asrwt>
<pdfrwt beam="1">  1       21 0.30689022E-01 0.23645385E+03</pdfrwt>
<pdfrwt beam="2">  1       21 0.43420447E-01 0.23645385E+03</pdfrwt>
<totfact> 0.50950135E+04</totfact>
</mgrwt>
</event>
<event>
12    1  0.1019868E-001  0.1784396E+03  0.7546771E-02  0.1172583E+00
         21   -1    0    0  503  502  0.00000000000E+00  0.00000000000E+00  0.28228191875E+03  0.28228191875E+03  0.00000000000E+00 0. -1.
         21   -1    0    0  501  503 -0.00000000000E+00 -0.00000000000E+00 -0.13421447261E+03  0.13421447261E+03  0.00000000000E+00 0. -1.
          6    2    1    2  501    0 -0.48600311054E+02  0.13809982623E+01 -0.25477222705E+02  0.16758188855E+03  0.15833730800E+03 0.  0.
         24    2    3    3    0    0 -0.49457697812E+02 -0.11546639423E+02  0.38096267459E+02  0.10253161892E+03  0.80510983901E+02 0.  0.
         -6    2    1    2    0  502  0.48600311054E+02 -0.13809982623E+01  0.17354466884E+03  0.24891450281E+03  0.17168803171E+03 0.  0.
        -24    2    5    5    0    0  0.49503212685E+02 -0.62474348041E+02  0.13359140091E+03  0.17576010283E+03  0.81800605854E+02 0.  0.
          5    1    3    3  501    0  0.85738675762E+00  0.12927637685E+02 -0.63573490164E+02  0.65050269637E+02  0.47000000000E+01 0. -1.
        -11    1    4    4    0    0 -0.57805302610E+02  0.20726974776E+02  0.19898918948E+02  0.64552517136E+02  0.00000000000E+00 0.  1.
         12    1    4    4    0    0  0.83476047986E+01 -0.32273614199E+02  0.18197348512E+02  0.37979101782E+02  0.00000000000E+00 0. -1.
         -5    1    5    5    0  502 -0.90290163079E+00  0.61093349779E+02  0.39953267927E+02  0.73154399981E+02  0.47000000000E+01 0.  1.
         13    1    6    6    0    0 -0.22986859054E+01 -0.50960113179E+02  0.10188866096E+03  0.11394523388E+03  0.00000000000E+00 0. -1.
        -14    1    6    6    0    0  0.51801898590E+02 -0.11514234862E+02  0.31702739953E+02  0.61814868944E+02  0.00000000000E+00 0.  1.
<mgrwt>
<rscale>  2 0.17514821E+03</rscale>
<asrwt>0</asrwt>
<pdfrwt beam="1">  1       21 0.43427987E-01 0.17843956E+03</pdfrwt>
<pdfrwt beam="2">  1       21 0.20648380E-01 0.17843956E+03</pdfrwt>
<totfact> 0.11140567E+05</totfact>
</mgrwt>
</event>
<event>
12    1  0.1019868E-001  0.1853970E+03  0.7546771E-02  0.1162958E+00
         21   -1    0    0  503  502  0.00000000000E+00  0.00000000000E+00  0.44522937867E+03  0.44522937867E+03  0.00000000000E+00 0. -1.
         21   -1    0    0  501  503 -0.00000000000E+00 -0.00000000000E+00 -0.18831145959E+03  0.18831145959E+03  0.00000000000E+00 0. -1.
          6    2    1    2  501    0 -0.58721867057E+02  0.29413657542E+02 -0.11523782578E+03  0.21829294935E+03  0.17337426085E+03 0.  0.
         24    2    3    3    0    0  0.22762536433E+02  0.13638150577E+02 -0.17056220357E+02  0.89645010095E+02  0.83911745102E+02 0.  0.
         -6    2    1    2    0  502  0.58721867057E+02 -0.29413657542E+02  0.37215574485E+03  0.41524788891E+03  0.17209732681E+03 0.  0.
        -24    2    5    5    0    0  0.45332038024E+02 -0.84505812749E+02  0.23778900449E+03  0.26933372235E+03  0.82467067840E+02 0.  0.
          5    1    3    3  501    0 -0.81484403490E+02  0.15775506966E+02 -0.98181605420E+02  0.12864793926E+03  0.47000000000E+01 0. -1.
        -13    1    4    4    0    0  0.53470838708E+02  0.10987880217E+02 -0.35653958849E+00  0.54589295877E+02  0.00000000000E+00 0.  1.
         14    1    4    4    0    0 -0.30708302275E+02  0.26502703591E+01 -0.16699680768E+02  0.35055714219E+02  0.00000000000E+00 0. -1.
         -5    1    5    5    0  502  0.13389829032E+02  0.55092155207E+02  0.13436674036E+03  0.14591416656E+03  0.47000000000E+01 0.  1.
         11    1    6    6    0    0  0.17171100122E-01  0.10689601743E+02  0.72491385506E+02  0.73275294969E+02  0.00000000000E+00 0. -1.
        -12    1    6    6    0    0  0.45314866924E+02 -0.95195414493E+02  0.16529761898E+03  0.19605842738E+03  0.00000000000E+00 0.  1.
<mgrwt>
<rscale>  2 0.18509790E+03</rscale>
<asrwt>0</asrwt>
<pdfrwt beam="1">  1       21 0.68496827E-01 0.18539702E+03</pdfrwt>
<pdfrwt beam="2">  1       21 0.28970994E-01 0.18539702E+03</pdfrwt>
<totfact> 0.22259694E+04</totfact>
</mgrwt>
</event>
<event>
12    1  0.1019868E-001  0.1964488E+03  0.7546771E-02  0.1152819E+00
         21   -1    0    0  501  502  0.00000000000E+00  0.00000000000E+00  0.98751698494E+03  0.98751698494E+03  0.00000000000E+00 0. -1.
         21   -1    0    0  502  503 -0.00000000000E+00 -0.00000000000E+00 -0.12215084220E+03  0.12215084220E+03  0.00000000000E+00 0.  1.
         -6    2    1    2    0  503 -0.92091355534E+02 -0.16291507365E+02 -0.24911381353E+02  0.19802197903E+03  0.17275964888E+03 0.  0.
        -24    2    3    3    0    0 -0.14923043794E+02 -0.16509000590E+02  0.44199575483E+02  0.94323329114E+02  0.80299711118E+02 0.  0.
          6    2    1    2  501    0  0.92091355534E+02  0.16291507365E+02  0.89027752410E+03  0.91164584811E+03  0.17250464191E+03 0.  0.
         24    2    5    5    0    0  0.80480114148E+02  0.45652892473E+01  0.31788469028E+03  0.33899589279E+03  0.85846656171E+02 0.  0.
          5    1    5    5  501    0  0.11611241386E+02  0.11726218118E+02  0.57239283382E+03  0.57264995531E+03  0.47000000000E+01 0. -1.
        -11    1    6    6    0    0 -0.17935589209E+02  0.37588355793E+01  0.68061181156E+02  0.70485023839E+02  0.00000000000E+00 0.  1.
         12    1    6    6    0    0  0.98415703356E+02  0.80645366800E+00  0.24982350913E+03  0.26851086896E+03  0.00000000000E+00 0. -1.
         -5    1    3    3    0  503 -0.77168311740E+02  0.21749322551E+00 -0.69110956836E+02  0.10369864992E+03  0.47000000000E+01 0.  1.
         13    1    4    4    0    0 -0.25828915525E+02 -0.44956916211E+02  0.20621844087E+02  0.55798903626E+02  0.00000000000E+00 0. -1.
        -14    1    4    4    0    0  0.10905871731E+02  0.28447915620E+02  0.23577731396E+02  0.38524425488E+02  0.00000000000E+00 0.  1.
<mgrwt>
<rscale>  2 0.19639271E+03</rscale>
<asrwt>0</asrwt>
<pdfrwt beam="1">  1       21 0.15192568E+00 0.19644879E+03</pdfrwt>
<pdfrwt beam="2">  1       21 0.18792438E-01 0.19644879E+03</pdfrwt>
<totfact> 0.74693226E+03</totfact>
</mgrwt>
</event>
<event>
12    1  0.1019868E-001  0.1971921E+03  0.7546771E-02  0.1152457E+00
         21   -1    0    0  503  502  0.00000000000E+00  0.00000000000E+00  0.11495154281E+03  0.11495154281E+03  0.00000000000E+00 0.  1.
         21   -1    0    0  501  503 -0.00000000000E+00 -0.00000000000E+00 -0.33597486701E+03  0.33597486701E+03  0.00000000000E+00 0.  1.
          6    2    1    2  501    0  0.90802904986E+02 -0.47300655727E+01 -0.10334382160E+03  0.22128929441E+03  0.17326703461E+03 0.  0.
         24    2    3    3    0    0  0.89879360516E+01 -0.14793935749E+02  0.89958470756E+01  0.81871713801E+02  0.79513575739E+02 0.  0.
         -6    2    1    2    0  502 -0.90802904986E+02  0.47300655727E+01 -0.11767950260E+03  0.22963711542E+03  0.17497770821E+03 0.  0.
        -24    2    5    5    0    0 -0.10230038035E+03  0.48861981839E+02 -0.50284544124E+02  0.14812645108E+03  0.80994129672E+02 0.  0.
          5    1    3    3  501    0  0.81814968934E+02  0.10063870176E+02 -0.11233966867E+03  0.13941758061E+03  0.47000000000E+01 0. -1.
        -13    1    4    4    0    0  0.46767701783E+01  0.28372989217E+02  0.22417193665E+02  0.36461339365E+02  0.00000000000E+00 0.  1.
         14    1    4    4    0    0  0.43111658733E+01 -0.43166924966E+02 -0.13421346590E+02  0.45410374437E+02  0.00000000000E+00 0. -1.
         -5    1    5    5    0  502  0.11497475368E+02 -0.44131916266E+02 -0.67394958478E+02  0.81510664342E+02  0.47000000000E+01 0.  1.
         11    1    6    6    0    0 -0.31763913539E+02  0.56341685255E+02 -0.70620402620E+01  0.65063077958E+02  0.00000000000E+00 0. -1.
        -12    1    6    6    0    0 -0.70536466814E+02 -0.74797034165E+01 -0.43222503862E+02  0.83063373119E+02  0.00000000000E+00 0.  1.
<mgrwt>
<rscale>  2 0.19681195E+03</rscale>
<asrwt>0</asrwt>
<pdfrwt beam="1">  1       21 0.17684853E-01 0.19719214E+03</pdfrwt>
<pdfrwt beam="2">  1       21 0.51688440E-01 0.19719214E+03</pdfrwt>
<totfact> 0.10293018E+05</totfact>
</mgrwt>
</event>
<event>
12    1  0.1019868E-001  0.1838223E+03  0.7546771E-02  0.1164197E+00
         21   -1    0    0  501  502  0.00000000000E+00  0.00000000000E+00  0.22457888922E+03  0.22457888922E+03  0.00000000000E+00 0.  1.
         21   -1    0    0  502  503 -0.00000000000E+00 -0.00000000000E+00 -0.17076312275E+03  0.17076312275E+03  0.00000000000E+00 0.  1.
         -6    2    1    2    0  503 -0.22612597239E+02  0.56610045422E+02 -0.41487939458E+02  0.18844596095E+03  0.17342031104E+03 0.  0.
        -24    2    3    3    0    0  0.41277659397E+02  0.26057942489E+02  0.19611597176E+02  0.94794269751E+02  0.78857322437E+02 0.  0.
          6    2    1    2  501    0  0.22612597239E+02 -0.56610045422E+02  0.95303705927E+02  0.20689605102E+03  0.17322572779E+03 0.  0.
         24    2    5    5    0    0  0.14921190783E+02 -0.90625679044E+02  0.20186475764E+02  0.12394480431E+03  0.80741346750E+02 0.  0.
          5    1    5    5  501    0  0.76914064559E+01  0.34015633623E+02  0.75117230163E+02  0.82951246714E+02  0.47000000000E+01 0. -1.
        -11    1    6    6    0    0  0.19447561837E+02 -0.10105328344E+03  0.31784958873E+02  0.10770449093E+03  0.00000000000E+00 0.  1.
         12    1    6    6    0    0 -0.45263710545E+01  0.10427604396E+02 -0.11598483108E+02  0.16240313383E+02  0.00000000000E+00 0. -1.
         -5    1    3    3    0  503 -0.63890256636E+02  0.30552102933E+02 -0.61099536634E+02  0.93651691194E+02  0.47000000000E+01 0.  1.
         11    1    4    4    0    0  0.40228858373E+02  0.17228598892E+02  0.48053589547E+02  0.64994870060E+02  0.00000000000E+00 0. -1.
        -12    1    4    4    0    0  0.10488010238E+01  0.88293435970E+01 -0.28441992371E+02  0.29799399691E+02  0.00000000000E+00 0.  1.
<mgrwt>
<rscale>  2 0.18377637E+03</rscale>
<asrwt>0</asrwt>
<pdfrwt beam="1">  1       21 0.34550599E-01 0.18382228E+03</pdfrwt>
<pdfrwt beam="2">  1       21 0.26271250E-01 0.18382228E+03</pdfrwt>
<totfact> 0.11156776E+05</totfact>
</mgrwt>
</event>
<event>
12    1  0.1019868E-001  0.2718137E+03  0.7546771E-02  0.1100291E+00
         21   -1    0    0  503  502  0.00000000000E+00  0.00000000000E+00  0.34631410045E+03  0.34631410045E+03  0.00000000000E+00 0.  1.
         21   -1    0    0  501  503 -0.00000000000E+00 -0.00000000000E+00 -0.21977127444E+03  0.21977127444E+03  0.00000000000E+00 0. -1.
          6    2    1    2  501    0  0.12577822985E+03 -0.16715441736E+03  0.13964558006E+02  0.27217216453E+03  0.17355666485E+03 0.  0.
         24    2    3    3    0    0  0.14408888299E+02 -0.86861151959E+02  0.47700445824E+02  0.13071425972E+03  0.84014340323E+02 0.  0.
         -6    2    1    2    0  502 -0.12577822985E+03  0.16715441736E+03  0.11257826801E+03  0.29391321036E+03  0.17306168394E+03 0.  0.
        -24    2    5    5    0    0 -0.21614498092E+02  0.54373786810E+02 -0.56533250139E+01  0.10008247691E+03  0.80999054810E+02 0.  0.
          5    1    3    3  501    0  0.11136934155E+03 -0.80293265405E+02 -0.33735887819E+02  0.14145790481E+03  0.47000000000E+01 0. -1.
        -11    1    4    4    0    0 -0.13595418185E+02  0.81211630021E+01  0.24229983917E+02  0.28946170814E+02  0.00000000000E+00 0.  1.
         12    1    4    4    0    0  0.28004306484E+02 -0.94982314961E+02  0.23470461907E+02  0.10176808890E+03  0.00000000000E+00 0. -1.
         -5    1    5    5    0  502 -0.10416373176E+03  0.11278063055E+03  0.11823159302E+03  0.19383073345E+03  0.47000000000E+01 0.  1.
         13    1    6    6    0    0  0.29010353370E+02  0.32256583984E+02  0.54760248831E+01  0.43727275944E+02  0.00000000000E+00 0. -1.
        -14    1    6    6    0    0 -0.50624851462E+02  0.22117202826E+02 -0.11129349897E+02  0.56355200962E+02  0.00000000000E+00 0.  1.
<mgrwt>
<rscale>  2 0.27173470E+03</rscale>
<asrwt>0</asrwt>
<pdfrwt beam="1">  1       21 0.53279092E-01 0.27181368E+03</pdfrwt>
<pdfrwt beam="2">  1       21 0.33810965E-01 0.27181368E+03</pdfrwt>
<totfact> 0.27040514E+04</totfact>
</mgrwt>
</event>
<event>
12    1  0.1019868E-001  0.1787836E+03  0.7546771E-02  0.1169856E+00
         21   -1    0    0  501  502  0.00000000000E+00  0.00000000000E+00  0.15932474736E+03  0.15932474736E+03  0.00000000000E+00 0. -1.
         21   -1    0    0  502  503 -0.00000000000E+00 -0.00000000000E+00 -0.52582421316E+03  0.52582421316E+03  0.00000000000E+00 0. -1.
         -6    2    1    2    0  503 -0.41307454374E+02  0.49433544582E+01 -0.45496465940E+03  0.48883167606E+03  0.17387588583E+03 0.  0.
        -24    2    3    3    0    0  0.99485801648E+01 -0.44186710846E+02 -0.15569461363E+03  0.18121894113E+03  0.80920036139E+02 0.  0.
          6    2    1    2  501    0  0.41307454374E+02 -0.49433544582E+01  0.88465193603E+02  0.19631728446E+03  0.17024583155E+03 0.  0.
         24    2    5    5    0    0  0.16902844431E+02 -0.67845415571E+02  0.40824298805E+02  0.11358881817E+03  0.79668624159E+02 0.  0.
          5    1    5    5  501    0  0.24404609943E+02  0.62902061113E+02  0.47640894798E+02  0.82728466297E+02  0.47000000000E+01 0. -1.
        -13    1    6    6    0    0  0.37521318356E+02 -0.34542166784E+02 -0.73208458731E+01  0.51522862901E+02  0.00000000000E+00 0.  1.
         14    1    6    6    0    0 -0.20618473924E+02 -0.33303248788E+02  0.48145144678E+02  0.62065955264E+02  0.00000000000E+00 0. -1.
         -5    1    3    3    0  503 -0.51256034539E+02  0.49130065304E+02 -0.29927004577E+03  0.30761273492E+03  0.47000000000E+01 0.  1.
         11    1    4    4    0    0  0.92634284123E+01 -0.24608020323E+02 -0.15916588396E+03  0.16132310556E+03  0.00000000000E+00 0. -1.
        -12    1    4    4    0    0  0.68515175251E+00 -0.19578690523E+02  0.34712703284E+01  0.19895835575E+02  0.00000000000E+00 0.  1.
<mgrwt>
<rscale>  2 0.17789488E+03</rscale>
<asrwt>0</asrwt>
<pdfrwt beam="1">  1       21 0.24511499E-01 0.17878357E+03</pdfrwt>
<pdfrwt beam="2">  1       21 0.80896035E-01 0.17878357E+03</pdfrwt>
<totfact> 0.21268857E+04</totfact>
</mgrwt>
</event>
<event>
12    1  0.1019868E-001  0.1904178E+03  0.7546771E-02  0.1158190E+00
         21   -1    0    0  503  502  0.00000000000E+00  0.00000000000E+00  0.36975196698E+03  0.36975196698E+03  0.00000000000E+00 0.  1.
         21   -1    0    0  501  503 -0.00000000000E+00 -0.00000000000E+00 -0.10892804836E+03  0.10892804836E+03  0.00000000000E+00 0.  1.
          6    2    1    2  501    0  0.64266779368E+02 -0.48538006070E+02  0.20668817034E+03  0.28071631643E+03  0.17203340834E+03 0.  0.
         24    2    3    3    0    0 -0.32930974400E+02 -0.18492101915E+02  0.82471615197E+02  0.12008629973E+03  0.78693996978E+02 0.  0.
         -6    2    1    2    0  502 -0.64266779368E+02  0.48538006070E+02  0.54135748280E+02  0.19796369891E+03  0.17254793503E+03 0.  0.
        -24    2    5    5    0    0 -0.70401568182E+02  0.76547125436E+02  0.84570364175E+02  0.15588636242E+03  0.79577435733E+02 0.  0.
          5    1    3    3  501    0  0.97197753768E+02 -0.30045904155E+02  0.12421655514E+03  0.16063001670E+03  0.47000000000E+01 0. -1.
        -11    1    4    4    0    0  0.12217858789E+01 -0.44384386591E+02  0.40433237288E+02  0.60052587050E+02  0.00000000000E+00 0.  1.
         12    1    4    4    0    0 -0.34152760279E+02  0.25892284676E+02  0.42038377909E+02  0.60033712676E+02  0.00000000000E+00 0. -1.
         -5    1    5    5    0  502  0.61347888140E+01 -0.28009119366E+02 -0.30434615895E+02  0.42077336490E+02  0.47000000000E+01 0.  1.
         11    1    6    6    0    0 -0.15546062183E+02 -0.38068891460E+01  0.50218133809E+02  0.52707052826E+02  0.00000000000E+00 0. -1.
        -12    1    6    6    0    0 -0.54855506000E+02  0.80354014582E+02  0.34352230367E+02  0.10317930960E+03  0.00000000000E+00 0.  1.
<mgrwt>
<rscale>  2 0.19030119E+03</rscale>
<asrwt>0</asrwt>
<pdfrwt beam="1">  1       21 0.56884917E-01 0.19041782E+03</pdfrwt>
<pdfrwt beam="2">  1       21 0.16758161E-01 0.19041782E+03</pdfrwt>
<totfact> 0.93098544E+04</totfact>
</mgrwt>
</event>
<event>
12    1  0.1019868E-001  0.4091046E+03  0.7546771E-02  0.1040689E+00
         21   -1    0    0  501  502  0.00000000000E+00  0.00000000000E+00  0.43942033522E+03  0.43942033522E+03  0.00000000000E+00 0. -1.
         21   -1    0    0  502  503 -0.00000000000E+00 -0.00000000000E+00 -0.40367523973E+03  0.40367523973E+03  0.00000000000E+00 0.  1.
         -6    2    1    2    0  503  0.36526971548E+03 -0.62992726904E+02 -0.82712047549E+02  0.41738216305E+03  0.17313734008E+03 0.  0.
        -24    2    3    3    0    0  0.31950428244E+03  0.13514448181E+01 -0.58159705363E+02  0.33455973370E+03  0.80391860180E+02 0.  0.
          6    2    1    2  501    0 -0.36526971548E+03  0.62992726904E+02  0.11845714304E+03  0.42571341191E+03  0.17265504815E+03 0.  0.
         24    2    5    5    0    0 -0.89286643358E+02  0.11298683457E+02  0.74078244834E+02  0.14140634757E+03  0.80052506807E+02 0.  0.
          5    1    5    5  501    0 -0.27598307212E+03  0.51694043448E+02  0.44378898201E+02  0.28430706434E+03  0.47000000000E+01 0. -1.
        -11    1    6    6    0    0 -0.56453907072E+02 -0.20168545558E+02  0.69866796459E+01  0.60354184164E+02  0.00000000000E+00 0.  1.
         12    1    6    6    0    0 -0.32832736286E+02  0.31467229014E+02  0.67091565188E+02  0.81052163409E+02  0.00000000000E+00 0. -1.
         -5    1    3    3    0  503  0.45765433037E+02 -0.64344171723E+02 -0.24552342185E+02  0.82822429344E+02  0.47000000000E+01 0.  1.
         11    1    4    4    0    0  0.22626716764E+03 -0.30519339971E+02 -0.21107540262E+02  0.22928975014E+03  0.00000000000E+00 0. -1.
        -12    1    4    4    0    0  0.93237114808E+02  0.31870784789E+02 -0.37052165102E+02  0.10526998356E+03  0.00000000000E+00 0.  1.
<mgrwt>
<rscale>  2 0.40905364E+03</rscale>
<asrwt>0</asrwt>
<pdfrwt beam="1">  1       21 0.67603129E-01 0.40910462E+03</pdfrwt>
<pdfrwt beam="2">  1       21 0.62103883E-01 0.40910462E+03</pdfrwt>
<totfact> 0.42821894E+03</totfact>
</mgrwt>
</event>
<event>
12    1  0.1019868E-001  0.2112281E+03  0.7546771E-02  0.1140688E+00
         21   -1    0    0  503  502  0.00000000000E+00  0.00000000000E+00  0.30708221424E+02  0.30708221424E+02  0.00000000000E+00 0.  1.
         21   -1    0    0  501  503 -0.00000000000E+00 -0.00000000000E+00 -0.18465951959E+04  0.18465951959E+04  0.00000000000E+00 0.  1.
          6    2    1    2  501    0  0.37256182861E+02  0.11464061647E+03 -0.13438462670E+04  0.13603455743E+04  0.17345546446E+03 0.  0.
         24    2    3    3    0    0  0.36253675356E+02  0.13425990892E+03 -0.13167432224E+04  0.13265434045E+04  0.81022454741E+02 0.  0.
         -6    2    1    2    0  502 -0.37256182861E+02 -0.11464061647E+03 -0.47204070753E+03  0.51695784305E+03  0.17289444127E+03 0.  0.
        -24    2    5    5    0    0 -0.28676789900E+02 -0.90659732467E+02 -0.47559982269E+03  0.49081504133E+03  0.75250701550E+02 0.  0.
          5    1    3    3  501    0  0.10025075044E+01 -0.19619292446E+02 -0.27103044534E+02  0.33802169758E+02  0.47000000000E+01 0. -1.
        -13    1    4    4    0    0  0.41191997373E+01  0.74638254002E+02 -0.99199096847E+03  0.99480345712E+03  0.00000000000E+00 0.  1.
         14    1    4    4    0    0  0.32134475619E+02  0.59621654917E+02 -0.32475225395E+03  0.33173994740E+03  0.00000000000E+00 0. -1.
         -5    1    5    5    0  502 -0.85793929608E+01 -0.23980884006E+02  0.35591151570E+01  0.26142801724E+02  0.47000000000E+01 0.  1.
         13    1    6    6    0    0 -0.11157044020E+02 -0.53099953148E+02 -0.10777729115E+03  0.12066494579E+03  0.00000000000E+00 0. -1.
        -14    1    6    6    0    0 -0.17519745880E+02 -0.37559779320E+02 -0.36782253154E+03  0.37015009554E+03  0.00000000000E+00 0.  1.
<mgrwt>
<rscale>  2 0.21111285E+03</rscale>
<asrwt>0</asrwt>
<pdfrwt beam="1">  1       21 0.47243421E-02 0.21122806E+03</pdfrwt>
<pdfrwt beam="2">  1       21 0.28409155E+00 0.21122806E+03</pdfrwt>
<totfact> 0.12255238E+04</totfact>
</mgrwt>
</event>
<event>
12    1  0.1019868E-001  0.1850000E+03  0.7546771E-02  0.1164027E+00
         21   -1    0    0  501  502  0.00000000000E+00  0.00000000000E+00  0.23435338206E+04  0.23435338206E+04  0.00000000000E+00 0. -1.
         21   -1    0    0  502  503 -0.00000000000E+00 -0.00000000000E+00 -0.28985228034E+02  0.28985228034E+02  0.00000000000E+00 0. -1.
         -6    2    1    2    0  503  0.60562442472E+02  0.18324209821E+02  0.30589582761E+03  0.35536488396E+03  0.16943540745E+03 0.  0.
        -24    2    3    3    0    0  0.79363101746E+02  0.71807046323E+02  0.20783226486E+03  0.24199632161E+03  0.62555699470E+02 0.  0.
          6    2    1    2  501    0 -0.60562442472E+02 -0.18324209821E+02  0.20086527649E+04  0.20171541646E+04  0.17384305509E+03 0.  0.
         24    2    5    5    0    0 -0.61520109696E+02  0.15216027036E+02  0.62719131409E+03  0.63527729070E+03  0.78689517906E+02 0.  0.
          5    1    5    5  501    0  0.95766722418E+00 -0.33540236858E+02  0.13814614508E+04  0.13818768739E+04  0.47000000000E+01 0. -1.
        -13    1    6    6    0    0 -0.38865382474E+02 -0.13788582888E+02  0.52577006308E+03  0.52738487104E+03  0.00000000000E+00 0.  1.
         14    1    6    6    0    0 -0.22654727222E+02  0.29004609924E+02  0.10142125101E+03  0.10789241965E+03  0.00000000000E+00 0. -1.
         -5    1    3    3    0  503 -0.18800659274E+02 -0.53482836501E+02  0.98063562755E+02  0.11336856235E+03  0.47000000000E+01 0.  1.
         11    1    4    4    0    0  0.45158306876E+02  0.16202114662E+02  0.41951224071E+02  0.63731361201E+02  0.00000000000E+00 0. -1.
        -12    1    4    4    0    0  0.34204794870E+02  0.55604931661E+02  0.16588104078E+03  0.17826496041E+03  0.00000000000E+00 0.  1.
<mgrwt>
<rscale>  2 0.18395731E+03</rscale>
<asrwt>0</asrwt>
<pdfrwt beam="1">  1       21 0.36054352E+00 0.18499998E+03</pdfrwt>
<pdfrwt beam="2">  1       21 0.44592677E-02 0.18499998E+03</pdfrwt>
<totfact> 0.49932748E+03</totfact>
</mgrwt>
</event>
<event>
12    1  0.1019868E-001  0.3387980E+03  0.7546771E-02  0.1067370E+00
         21   -1    0    0  503  502  0.00000000000E+00  0.00000000000E+00  0.75345620532E+02  0.75345620532E+02  0.00000000000E+00 0. -1.
         21   -1    0    0  501  503 -0.00000000000E+00 -0.00000000000E+00 -0.16637322075E+04  0.16637322075E+04  0.00000000000E+00 0.  1.
          6    2    1    2  501    0 -0.28969434889E+03  0.22915970516E+02 -0.10496139005E+04  0.11029385370E+04  0.17417266918E+03 0.  0.
         24    2    3    3    0    0 -0.59010149733E+02  0.90444439298E+01 -0.42219491299E+03  0.43429491373E+03  0.82459249326E+02 0.  0.
         -6    2    1    2    0  502  0.28969434889E+03 -0.22915970516E+02 -0.53877268641E+03  0.63613929102E+03  0.17305846549E+03 0.  0.
        -24    2    5    5    0    0  0.26620708253E+03 -0.44863056369E+02 -0.37324715298E+03  0.46745580494E+03  0.79514701491E+02 0.  0.
          5    1    3    3  501    0 -0.23068419916E+03  0.13871526586E+02 -0.62741898756E+03  0.66864362327E+03  0.47000000000E+01 0. -1.
        -13    1    4    4    0    0 -0.37623116064E+02 -0.35524070952E+02 -0.19187967881E+03  0.19873416822E+03  0.00000000000E+00 0.  1.
         14    1    4    4    0    0 -0.21387033670E+02  0.44568514882E+02 -0.23031523419E+03  0.23556074551E+03  0.00000000000E+00 0. -1.
         -5    1    5    5    0  502  0.23487266364E+02  0.21947085854E+02 -0.16552553343E+03  0.16868348608E+03  0.47000000000E+01 0.  1.
         13    1    6    6    0    0  0.15946015249E+03 -0.49945234357E+02 -0.27772813171E+03  0.32412186260E+03  0.00000000000E+00 0. -1.
        -14    1    6    6    0    0  0.10674693003E+03  0.50821779880E+01 -0.95519021266E+02  0.14333394235E+03  0.00000000000E+00 0.  1.
<mgrwt>
<rscale>  2 0.33865503E+03</rscale>
<asrwt>0</asrwt>
<pdfrwt beam="1">  1       21 0.11591634E-01 0.33879799E+03</pdfrwt>
<pdfrwt beam="2">  1       21 0.25595880E+00 0.33879799E+03</pdfrwt>
<totfact> 0.33992687E+03</totfact>
</mgrwt>
</event>
<event>
12    1  0.1019868E-001  0.2837055E+03  0.7546771E-02  0.1093842E+00
         21   -1    0    0  501  502  0.00000000000E+00  0.00000000000E+00  0.32771275836E+03  0.32771275836E+03  0.00000000000E+00 0. -1.
         21   -1    0    0  502  503 -0.00000000000E+00 -0.00000000000E+00 -0.25140087507E+03  0.25140087507E+03  0.00000000000E+00 0. -1.
         -6    2    1    2    0  503 -0.68333955318E+02  0.21453046781E+03 -0.94681400356E+01  0.28386348538E+03  0.17261512560E+03 0.  0.
        -24    2    3    3    0    0 -0.90108165178E+02  0.22682974467E+03 -0.16142981617E+02  0.25755698549E+03  0.80646081219E+02 0.  0.
          6    2    1    2  501    0  0.68333955318E+02 -0.21453046781E+03  0.85780023330E+02  0.29525014806E+03  0.17065048039E+03 0.  0.
         24    2    5    5    0    0 -0.27702034826E+02 -0.10087957771E+03  0.61573323087E+02  0.14442743571E+03  0.78255467135E+02 0.  0.
          5    1    5    5  501    0  0.96035990143E+02 -0.11365089010E+03  0.24206700242E+02  0.15082271235E+03  0.47000000000E+01 0. -1.
        -11    1    6    6    0    0  0.14420321305E+02 -0.65466837562E+02  0.59056584837E+02  0.89339424106E+02  0.00000000000E+00 0.  1.
         12    1    6    6    0    0 -0.42122356131E+02 -0.35412740149E+02  0.25167382502E+01  0.55088011602E+02  0.00000000000E+00 0. -1.
         -5    1    3    3    0  503  0.21774209860E+02 -0.12299276862E+02  0.66748415811E+01  0.26306499891E+02  0.47000000000E+01 0.  1.
         13    1    4    4    0    0 -0.38095454400E+02  0.16298126364E+03  0.18137968909E+02  0.16835421545E+03  0.00000000000E+00 0. -1.
        -14    1    4    4    0    0 -0.52012710778E+02  0.63848481032E+02 -0.34280950526E+02  0.89202770033E+02  0.00000000000E+00 0.  1.
<mgrwt>
<rscale>  2 0.28340731E+03</rscale>
<asrwt>0</asrwt>
<pdfrwt beam="1">  1       21 0.50417347E-01 0.28370554E+03</pdfrwt>
<pdfrwt beam="2">  1       21 0.38677058E-01 0.28370554E+03</pdfrwt>
<totfact> 0.23077673E+04</totfact>
</mgrwt>
</event>
<event>
12    1  0.1019868E-001  0.1848738E+03  0.7546771E-02  0.1163758E+00
         21   -1    0    0  503  502  0.00000000000E+00  0.00000000000E+00  0.60164707517E+02  0.60164707517E+02  0.00000000000E+00 0.  1.
         21   -1    0    0  501  503 -0.00000000000E+00 -0.00000000000E+00 -0.60209158449E+03  0.60209158449E+03  0.00000000000E+00 0.  1.
          6    2    1    2  501    0  0.49656060526E+02  0.42393518468E+02 -0.18210378027E+03  0.25771829720E+03  0.17027624369E+03 0.  0.
         24    2    3    3    0    0  0.39587250614E+02  0.35143932067E+02 -0.20752756570E+03  0.22904084436E+03  0.81177407498E+02 0.  0.
         -6    2    1    2    0  502 -0.49656060526E+02 -0.42393518468E+02 -0.35982309670E+03  0.40453799481E+03  0.17296067058E+03 0.  0.
        -24    2    5    5    0    0 -0.71038184174E+01 -0.75176603872E+02 -0.14032044844E+03  0.17850939797E+03  0.80459871400E+02 0.  0.
          5    1    3    3  501    0  0.10068809911E+02  0.72495864009E+01  0.25423785425E+02  0.28677452840E+02  0.47000000000E+01 0. -1.
        -11    1    4    4    0    0  0.47415470719E+01  0.19973551838E+02 -0.26860816183E+01  0.20703624709E+02  0.00000000000E+00 0.  1.
         12    1    4    4    0    0  0.34845703542E+02  0.15170380230E+02 -0.20484148408E+03  0.20833721965E+03  0.00000000000E+00 0. -1.
         -5    1    5    5    0  502 -0.42552242108E+02  0.32783085404E+02 -0.21950264826E+03  0.22602859684E+03  0.47000000000E+01 0.  1.
         13    1    6    6    0    0  0.20321934714E+02 -0.26975696473E+02 -0.75288259386E+01  0.34602780968E+02  0.00000000000E+00 0. -1.
        -14    1    6    6    0    0 -0.27425753132E+02 -0.48200907400E+02 -0.13279162251E+03  0.14390661700E+03  0.00000000000E+00 0.  1.
<mgrwt>
<rscale>  2 0.18424335E+03</rscale>
<asrwt>0</asrwt>
<pdfrwt beam="1">  1       21 0.92561086E-02 0.18487382E+03</pdfrwt>
<pdfrwt beam="2">  1       21 0.92629477E-01 0.18487382E+03</pdfrwt>
<totfact> 0.91666540E+04</totfact>
</mgrwt>
</event>
<event>
12    1  0.1019868E-001  0.2319482E+03  0.7546771E-02  0.1125525E+00
         21   -1    0    0  501  502  0.00000000000E+00  0.00000000000E+00  0.64215944079E+03  0.64215944079E+03  0.00000000000E+00 0.  1.
         21   -1    0    0  502  503 -0.00000000000E+00 -0.00000000000E+00 -0.85653869464E+02  0.85653869464E+02  0.00000000000E+00 0.  1.
         -6    2    1    2    0  503  0.11107632507E+03 -0.10679406488E+03  0.21832419958E+03  0.31853639981E+03  0.17336971939E+03 0.  0.
        -24    2    3    3    0    0  0.11626088240E+03 -0.13812513214E+03  0.20219433504E+03  0.28260900163E+03  0.79938437424E+02 0.  0.
          6    2    1    2  501    0 -0.11107632507E+03  0.10679406488E+03  0.33818137175E+03  0.40927691044E+03  0.17145852833E+03 0.  0.
         24    2    5    5    0    0 -0.79037166172E+02  0.62947922012E+02  0.32947802746E+03  0.35407881130E+03  0.81281729252E+02 0.  0.
          5    1    5    5  501    0 -0.32039158895E+02  0.43846142872E+02  0.87033442926E+01  0.55198099146E+02  0.47000000000E+01 0. -1.
        -11    1    6    6    0    0 -0.85441641514E+02  0.45494161625E+02  0.18870965255E+03  0.21208801430E+03  0.00000000000E+00 0.  1.
         12    1    6    6    0    0  0.64044753428E+01  0.17453760388E+02  0.14076837491E+03  0.14199079699E+03  0.00000000000E+00 0. -1.
         -5    1    3    3    0  503 -0.51845573353E+01  0.31331067253E+02  0.16129864540E+02  0.35927398181E+02  0.47000000000E+01 0.  1.
         11    1    4    4    0    0  0.96043413079E+01 -0.45286527591E+02  0.16370855637E+02  0.49103135007E+02  0.00000000000E+00 0. -1.
        -12    1    4    4    0    0  0.10665654109E+03 -0.92838604546E+02  0.18582347940E+03  0.23350586663E+03  0.00000000000E+00 0.  1.
<mgrwt>
<rscale>  2 0.23159115E+03</rscale>
<asrwt>0</asrwt>
<pdfrwt beam="1">  1       21 0.98793757E-01 0.23194823E+03</pdfrwt>
<pdfrwt beam="2">  1       21 0.13177519E-01 0.23194823E+03</pdfrwt>
<totfact> 0.41081806E+04</totfact>
</mgrwt>
</event>
<event>
12    1  0.1019868E-001  0.2739598E+03  0.7546771E-02  0.1099065E+00
         21   -1    0    0  503  502  0.00000000000E+00  0.00000000000E+00  0.39719689907E+03  0.39719689907E+03  0.00000000000E+00 0.  1.
         21   -1    0    0  501  503 -0.00000000000E+00 -0.00000000000E+00 -0.23500952130E+03  0.23500952130E+03  0.00000000000E+00 0. -1.
          6    2    1    2  501    0  0.43583913367E+02  0.20689253413E+03 -0.59032856667E+02  0.28024787251E+03  0.17421226620E+03 0.  0.
         24    2    3    3    0    0  0.48416360338E+02  0.34056904099E+02 -0.40069297048E+02  0.10624438362E+03  0.78602187112E+02 0.  0.
         -6    2    1    2    0  502 -0.43583913367E+02 -0.20689253413E+03  0.22122023444E+03  0.35195854786E+03  0.17387452115E+03 0.  0.
        -24    2    5    5    0    0  0.11215174788E+02 -0.15959528039E+03  0.21405939590E+03  0.27906590158E+03  0.80373619942E+02 0.  0.
          5    1    3    3  501    0 -0.48324469710E+01  0.17283563003E+03 -0.18963559619E+02  0.17400348889E+03  0.47000000000E+01 0. -1.
        -11    1    4    4    0    0  0.42381885974E+02  0.57630652318E+02 -0.18900783690E+02  0.73991593911E+02  0.00000000000E+00 0.  1.
         12    1    4    4    0    0  0.60344743634E+01 -0.23573748219E+02 -0.21168513359E+02  0.32252789705E+02  0.00000000000E+00 0. -1.
         -5    1    5    5    0  502 -0.54799088155E+02 -0.47297253742E+02  0.71608385392E+01  0.72892646287E+02  0.47000000000E+01 0.  1.
         11    1    6    6    0    0 -0.29069479708E+02 -0.45343716278E+02  0.40416208986E+02  0.67339120912E+02  0.00000000000E+00 0. -1.
        -12    1    6    6    0    0  0.40284654496E+02 -0.11425156411E+03  0.17364318691E+03  0.21172678067E+03  0.00000000000E+00 0.  1.
<mgrwt>
<rscale>  2 0.27390616E+03</rscale>
<asrwt>0</asrwt>
<pdfrwt beam="1">  1       21 0.61107215E-01 0.27395984E+03</pdfrwt>
<pdfrwt beam="2">  1       21 0.36155311E-01 0.27395984E+03</pdfrwt>
<totfact> 0.17598797E+04</totfact>
</mgrwt>
</event>
<event>
12    1  0.1019868E-001  0.1802785E+03  0.7546771E-02  0.1167587E+00
         21   -1    0    0  501  502  0.00000000000E+00  0.00000000000E+00  0.10612939142E+04  0.10612939142E+04  0.00000000000E+00 0. -1.
         21   -1    0    0  502  503 -0.00000000000E+00 -0.00000000000E+00 -0.16568619663E+03  0.16568619663E+03  0.00000000000E+00 0.  1.
         -6    2    1    2    0  503 -0.41866905008E+02  0.30196903504E+02 -0.10612378104E+03  0.20919512955E+03  0.17273000494E+03 0.  0.
        -24    2    3    3    0    0  0.44802203270E+02  0.29533667687E+02 -0.41735904479E+02  0.10112171533E+03  0.74861476373E+02 0.  0.
          6    2    1    2  501    0  0.41866905008E+02 -0.30196903504E+02  0.10017314987E+04  0.10177849813E+04  0.17249806404E+03 0.  0.
         24    2    5    5    0    0 -0.70128850358E+01 -0.75889644429E+02  0.70664491879E+03  0.71517096964E+03  0.79461033748E+02 0.  0.
          5    1    5    5  501    0  0.48879790043E+02  0.45692740925E+02  0.29508657987E+03  0.30261401168E+03  0.47000000000E+01 0. -1.
        -13    1    6    6    0    0 -0.31978126353E+02 -0.14198242731E+02  0.12746038782E+03  0.13217541800E+03  0.00000000000E+00 0.  1.
         14    1    6    6    0    0  0.24965241317E+02 -0.61691401697E+02  0.57918453097E+03  0.58299555164E+03  0.00000000000E+00 0. -1.
         -5    1    3    3    0  503 -0.86669108277E+02  0.66323581629E+00 -0.64387876565E+02  0.10807341421E+03  0.47000000000E+01 0.  1.
         11    1    4    4    0    0  0.28696856800E+02 -0.24573049245E+01  0.16172791037E+02  0.33031910444E+02  0.00000000000E+00 0. -1.
        -12    1    4    4    0    0  0.16105346470E+02  0.31990972612E+02 -0.57908695517E+02  0.68089804891E+02  0.00000000000E+00 0.  1.
<mgrwt>
<rscale>  2 0.18022294E+03</rscale>
<asrwt>0</asrwt>
<pdfrwt beam="1">  1       21 0.16327598E+00 0.18027852E+03</pdfrwt>
<pdfrwt beam="2">  1       21 0.25490185E-01 0.18027852E+03</pdfrwt>
<totfact> 0.35175541E+03</totfact>
</mgrwt>
</event>
<event>
11    1  0.1019868E-001  0.2055400E+03  0.7546771E-02  0.1145700E+00
         21   -1    0    0  503  502  0.00000000000E+00  0.00000000000E+00  0.10974713010E+03  0.10974713010E+03  0.00000000000E+00 0.  1.
         21   -1    0    0  501  503 -0.00000000000E+00 -0.00000000000E+00 -0.48999989294E+03  0.48999989294E+03  0.00000000000E+00 0. -1.
          6    2    1    2  501    0 -0.10132388696E+03 -0.44644900348E+02 -0.48966692652E+02  0.21129223603E+03  0.17316747623E+03 0.  0.
         24    2    3    3    0    0 -0.12462347656E+03 -0.74005210337E+02 -0.58141344053E+02  0.17241855719E+03  0.73075036139E+02 0.  0.
         -6    2    1    2    0  502  0.10132388696E+03  0.44644900348E+02 -0.33128607019E+03  0.38845478701E+03  0.16996165467E+03 0.  0.
          5    1    3    3  501    0  0.23299589605E+02  0.29360309990E+02  0.91746514010E+01  0.38873678843E+02  0.47000000000E+01 0. -1.
        -13    1    4    4    0    0 -0.55098516283E+02 -0.74643347965E+02 -0.34413282867E+02  0.98953271446E+02  0.00000000000E+00 0.  1.
         14    1    4    4    0    0 -0.69524960281E+02  0.63813762797E+00 -0.23728061185E+02  0.73465285743E+02  0.00000000000E+00 0. -1.
         -5    1    5    5    0  502 -0.17645160201E+02  0.35163250324E+02 -0.55656496323E+01  0.40010902360E+02  0.47000000000E+01 0.  1.
         13    1    5    5    0    0  0.60922116655E+02  0.37725835879E+01 -0.21235927557E+03  0.22095745882E+03  0.00000000000E+00 0. -1.
        -14    1    5    5    0    0  0.58046930505E+02  0.57090664359E+01 -0.11336114498E+03  0.12748642584E+03  0.00000000000E+00 0.  1.
<mgrwt>
<rscale>  2 0.20486323E+03</rscale>
<asrwt>0</asrwt>
<pdfrwt beam="1">  1       21 0.16884174E-01 0.20553995E+03</pdfrwt>
<pdfrwt beam="2">  1       21 0.75384598E-01 0.20553995E+03</pdfrwt>
<totfact> 0.49340387E+04</totfact>
</mgrwt>
</event>
<event>
12    1  0.1019868E-001  0.2120038E+03  0.7546771E-02  0.1140333E+00
         21   -1    0    0  503  502  0.00000000000E+00  0.00000000000E+00  0.79536400991E+03  0.79536400991E+03  0.00000000000E+00 0.  1.
         21   -1    0    0  501  503 -0.00000000000E+00 -0.00000000000E+00 -0.94229722761E+02  0.94229722761E+02  0.00000000000E+00 0.  1.
          6    2    1    2  501    0 -0.24460068809E+02 -0.11740626024E+03  0.66550280717E+02  0.22053284279E+03  0.17269415155E+03 0.  0.
         24    2    3    3    0    0 -0.41897436225E+02 -0.12234905074E+03  0.10182969429E+03  0.18059263770E+03  0.74294877170E+02 0.  0.
         -6    2    1    2    0  502  0.24460068809E+02  0.11740626024E+03  0.63458400643E+03  0.66906088987E+03  0.17482301975E+03 0.  0.
        -24    2    5    5    0    0 -0.38577326590E+01  0.10448579500E+03  0.24647477060E+03  0.27967713926E+03  0.80853733545E+02 0.  0.
          5    1    3    3  501    0  0.17437367416E+02  0.49427905006E+01 -0.35279413577E+02  0.39940205091E+02  0.47000000000E+01 0. -1.
        -11    1    4    4    0    0 -0.22428771197E+02 -0.19141178020E+02 -0.59737782295E+01  0.30085220620E+02  0.00000000000E+00 0.  1.
         12    1    4    4    0    0 -0.19468665028E+02 -0.10320787272E+03  0.10780347252E+03  0.15050741708E+03  0.00000000000E+00 0. -1.
         -5    1    5    5    0  502  0.28317801468E+02  0.12920465242E+02  0.38810923583E+03  0.38938375061E+03  0.47000000000E+01 0.  1.
         13    1    6    6    0    0 -0.34501125623E+02  0.30777323819E+02  0.52708083768E+02  0.70112148913E+02  0.00000000000E+00 0. -1.
        -14    1    6    6    0    0  0.30643392964E+02  0.73708471176E+02  0.19376668683E+03  0.20956499035E+03  0.00000000000E+00 0.  1.
<mgrwt>
<rscale>  2 0.21156442E+03</rscale>
<asrwt>0</asrwt>
<pdfrwt beam="1">  1       21 0.12236369E+00 0.21200380E+03</pdfrwt>
<pdfrwt beam="2">  1       21 0.14496881E-01 0.21200380E+03</pdfrwt>
<totfact> 0.20745899E+04</totfact>
</mgrwt>
</event>
<event>
12    1  0.1019868E-001  0.1859034E+03  0.7546771E-02  0.1162519E+00
         21   -1    0    0  501  502  0.00000000000E+00  0.00000000000E+00  0.26223211445E+03  0.26223211445E+03  0.00000000000E+00 0.  1.
         21   -1    0    0  502  503 -0.00000000000E+00 -0.00000000000E+00 -0.19989316963E+03  0.19989316963E+03  0.00000000000E+00 0.  1.
         -6    2    1    2    0  503  0.38334201307E+02  0.54151380534E+02 -0.10470087135E+03  0.21220055258E+03  0.17223506917E+03 0.  0.
        -24    2    3    3    0    0 -0.40257783082E+02 -0.91344812757E+01 -0.58237410232E+02  0.10101267764E+03  0.71469134920E+02 0.  0.
          6    2    1    2  501    0 -0.38334201307E+02 -0.54151380534E+02  0.16703981617E+03  0.24992473151E+03  0.17366113045E+03 0.  0.
         24    2    5    5    0    0 -0.83492141242E+02 -0.42605428991E+02  0.15982098937E+03  0.20252483703E+03  0.81776529285E+02 0.  0.
          5    1    5    5  501    0  0.45157939935E+02 -0.11545951543E+02  0.72188268016E+01  0.47399894479E+02  0.47000000000E+01 0. -1.
        -13    1    6    6    0    0 -0.60355796816E+02  0.45958319498E+01  0.42485524634E+02  0.73952442043E+02  0.00000000000E+00 0.  1.
         14    1    6    6    0    0 -0.23136344426E+02 -0.47201260941E+02  0.11733546473E+03  0.12857239499E+03  0.00000000000E+00 0. -1.
         -5    1    3    3    0  503  0.78591984389E+02  0.63285861809E+02 -0.46463461118E+02  0.11118787494E+03  0.47000000000E+01 0.  1.
         13    1    4    4    0    0  0.11115481634E+02 -0.16236263273E+02 -0.42470368391E+02  0.46807076049E+02  0.00000000000E+00 0. -1.
        -14    1    4    4    0    0 -0.51373264716E+02  0.71017819969E+01 -0.15767041841E+02  0.54205601589E+02  0.00000000000E+00 0.  1.
<mgrwt>
<rscale>  2 0.18556963E+03</rscale>
<asrwt>0</asrwt>
<pdfrwt beam="1">  1       21 0.40343402E-01 0.18590339E+03</pdfrwt>
<pdfrwt beam="2">  1       21 0.30752795E-01 0.18590339E+03</pdfrwt>
<totfact> 0.60288493E+04</totfact>
</mgrwt>
</event>
<event>
12    1  0.1019868E-001  0.3631274E+03  0.7546771E-02  0.1057404E+00
         21   -1    0    0  501  502  0.00000000000E+00  0.00000000000E+00  0.64173568549E+03  0.64173568549E+03  0.00000000000E+00 0. -1.
         21   -1    0    0  502  503 -0.00000000000E+00 -0.00000000000E+00 -0.28010463958E+03  0.28010463958E+03  0.00000000000E+00 0.  1.
         -6    2    1    2    0  503 -0.31771175180E+03 -0.23127391013E+02 -0.57664660287E+02  0.36715985862E+03  0.17322100129E+03 0.  0.
        -24    2    3    3    0    0 -0.79144122125E+02 -0.33643498948E+02 -0.53513344961E+02  0.12827824385E+03  0.78714373960E+02 0.  0.
          6    2    1    2  501    0  0.31771175180E+03  0.23127391013E+02  0.41929570619E+03  0.55468046645E+03  0.17431551045E+03 0.  0.
         24    2    5    5    0    0  0.78541574321E+02 -0.17400973944E+01  0.85976731647E+02  0.14365200689E+03  0.84095742246E+02 0.  0.
          5    1    5    5  501    0  0.23917017748E+03  0.24867488407E+02  0.33331897454E+03  0.41102845956E+03  0.47000000000E+01 0. -1.
        -11    1    6    6    0    0  0.41771392399E+02 -0.42843314324E+02  0.47664127370E+02  0.76500116622E+02  0.00000000000E+00 0.  1.
         12    1    6    6    0    0  0.36770181922E+02  0.41103216929E+02  0.38312604277E+02  0.67151890271E+02  0.00000000000E+00 0. -1.
         -5    1    3    3    0  503 -0.23856762968E+03  0.10516107935E+02 -0.41513153263E+01  0.23888161477E+03  0.47000000000E+01 0.  1.
         13    1    4    4    0    0 -0.41410335708E+02 -0.52938382339E+02 -0.53489097586E+02  0.85897449257E+02  0.00000000000E+00 0. -1.
        -14    1    4    4    0    0 -0.37733786416E+02  0.19294883391E+02 -0.24247374423E-01  0.42380794593E+02  0.00000000000E+00 0.  1.
<mgrwt>
<rscale>  2 0.36299633E+03</rscale>
<asrwt>0</asrwt>
<pdfrwt beam="1">  1       21 0.98728567E-01 0.36312743E+03</pdfrwt>
<pdfrwt beam="2">  1       21 0.43093022E-01 0.36312743E+03</pdfrwt>
<totfact> 0.39591603E+03</totfact>
</mgrwt>
</event>
<event>
12    1  0.1019868E-001  0.1734135E+03  0.7546771E-02  0.1174387E+00
         21   -1    0    0  503  502  0.00000000000E+00  0.00000000000E+00  0.11159616670E+03  0.11159616670E+03  0.00000000000E+00 0.  1.
         21   -1    0    0  501  503 -0.00000000000E+00 -0.00000000000E+00 -0.38069346501E+03  0.38069346501E+03  0.00000000000E+00 0.  1.
          6    2    1    2  501    0 -0.11272398563E+02 -0.51310749081E+01 -0.26772904035E+03  0.31887076790E+03  0.17276091188E+03 0.  0.
         24    2    3    3    0    0  0.31691377156E+02  0.40766601312E+02 -0.95306718519E+02  0.13528419494E+03  0.80945559706E+02 0.  0.
         -6    2    1    2    0  502  0.11272398563E+02  0.51310749081E+01 -0.13682579590E+01  0.17341886381E+03  0.17297061975E+03 0.  0.
        -24    2    5    5    0    0 -0.14518659450E+01  0.46035141756E+01 -0.68397748226E+02  0.10502860286E+03  0.79557873270E+02 0.  0.
          5    1    3    3  501    0 -0.42963775719E+02 -0.45897676220E+02 -0.17242232183E+03  0.18358657296E+03  0.47000000000E+01 0. -1.
        -13    1    4    4    0    0 -0.41817170692E+00  0.25226467806E+02  0.76163762486E+01  0.26354482212E+02  0.00000000000E+00 0.  1.
         14    1    4    4    0    0  0.32109548863E+02  0.15540133506E+02 -0.10292309477E+03  0.10892971272E+03  0.00000000000E+00 0. -1.
         -5    1    5    5    0  502  0.12724264508E+02  0.52756073253E+00  0.67029490267E+02  0.68390260952E+02  0.47000000000E+01 0.  1.
         13    1    6    6    0    0  0.87118624389E+00  0.38222767382E+02 -0.13372296095E+02  0.40503792596E+02  0.00000000000E+00 0. -1.
        -14    1    6    6    0    0 -0.23230521888E+01 -0.33619253206E+02 -0.55025452131E+02  0.64524810265E+02  0.00000000000E+00 0.  1.
<mgrwt>
<rscale>  2 0.17336115E+03</rscale>
<asrwt>0</asrwt>
<pdfrwt beam="1">  1       21 0.17168641E-01 0.17341347E+03</pdfrwt>
<pdfrwt beam="2">  1       21 0.58568227E-01 0.17341347E+03</pdfrwt>
<totfact> 0.84261497E+04</totfact>
</mgrwt>
</event>
<event>
12    1  0.1019868E-001  0.2720136E+03  0.7546771E-02  0.1100811E+00
         21   -1    0    0  503  502  0.00000000000E+00  0.00000000000E+00  0.77363131798E+02  0.77363131798E+02  0.00000000000E+00 0.  1.
         21   -1    0    0  501  503 -0.00000000000E+00 -0.00000000000E+00 -0.19772302269E+04  0.19772302269E+04  0.00000000000E+00 0.  1.
          6    2    1    2  501    0 -0.16854770449E+03  0.12117035315E+03 -0.20979779457E+03  0.34352073681E+03  0.17578623052E+03 0.  0.
         24    2    3    3    0    0 -0.17256878037E+03  0.15059422056E+03 -0.19908255871E+03  0.31160147453E+03  0.70731962541E+02 0.  0.
         -6    2    1    2    0  502  0.16854770449E+03 -0.12117035315E+03 -0.16900693005E+04  0.17110726219E+04  0.16835882399E+03 0.  0.
        -24    2    5    5    0    0  0.69148971664E+02 -0.31708535556E+02 -0.45192566170E+03  0.46571914385E+03  0.82888513891E+02 0.  0.
          5    1    3    3  501    0  0.40210758854E+01 -0.29423867411E+02 -0.10715235863E+02  0.31919262277E+02  0.47000000000E+01 0. -1.
        -11    1    4    4    0    0 -0.20533180815E+02  0.42011789971E+02 -0.71254386779E+02  0.85227868953E+02  0.00000000000E+00 0.  1.
         12    1    4    4    0    0 -0.15203559956E+03  0.10858243059E+03 -0.12782817193E+03  0.22637360558E+03  0.00000000000E+00 0. -1.
         -5    1    5    5    0  502  0.99398732822E+02 -0.89461817591E+02 -0.12381436388E+04  0.12453534780E+04  0.47000000000E+01 0.  1.
         11    1    6    6    0    0  0.53877368743E+02  0.15165997119E+02 -0.15648926704E+03  0.16619768058E+03  0.00000000000E+00 0. -1.
        -12    1    6    6    0    0  0.15271602921E+02 -0.46874532675E+02 -0.29543639466E+03  0.29952146327E+03  0.00000000000E+00 0.  1.
<mgrwt>
<rscale>  2 0.27082080E+03</rscale>
<asrwt>0</asrwt>
<pdfrwt beam="1">  1       21 0.11902021E-01 0.27201357E+03</pdfrwt>
<pdfrwt beam="2">  1       21 0.30418925E+00 0.27201357E+03</pdfrwt>
<totfact> 0.17644025E+03</totfact>
</mgrwt>
</event>
<event>
12    1  0.1019868E-001  0.3480159E+03  0.7546771E-02  0.1063574E+00
         21   -1    0    0  503  502  0.00000000000E+00  0.00000000000E+00  0.68458437632E+03  0.68458437632E+03  0.00000000000E+00 0.  1.
         21   -1    0    0  501  503 -0.00000000000E+00 -0.00000000000E+00 -0.69484331380E+03  0.69484331380E+03  0.00000000000E+00 0. -1.
          6    2    1    2  501    0 -0.18603085678E+03 -0.23635552955E+03 -0.60099592414E+03  0.69380005981E+03  0.17231078357E+03 0.  0.
         24    2    3    3    0    0 -0.30654982273E+02 -0.79915636720E+02 -0.14762026043E+03  0.18963075800E+03  0.82715452957E+02 0.  0.
         -6    2    1    2    0  502  0.18603085678E+03  0.23635552955E+03  0.59073698666E+03  0.68562763031E+03  0.17505326049E+03 0.  0.
        -24    2    5    5    0    0  0.27780628891E+02  0.12137391704E+03  0.20685394802E+03  0.25475388639E+03  0.81287119154E+02 0.  0.
          5    1    3    3  501    0 -0.15537587451E+03 -0.15643989283E+03 -0.45337566371E+03  0.50416930181E+03  0.47000000000E+01 0. -1.
        -13    1    4    4    0    0  0.26201835356E+02 -0.40399853935E+02 -0.76336239850E+02  0.90254672391E+02  0.00000000000E+00 0.  1.
         14    1    4    4    0    0 -0.56856817629E+02 -0.39515782785E+02 -0.71284020584E+02  0.99376085607E+02  0.00000000000E+00 0. -1.
         -5    1    5    5    0  502  0.15825022789E+03  0.11498161252E+03  0.38388303865E+03  0.43087374393E+03  0.47000000000E+01 0.  1.
         13    1    6    6    0    0  0.45466216272E+02  0.39130814726E+02  0.56176618769E+02  0.82184000751E+02  0.00000000000E+00 0. -1.
        -14    1    6    6    0    0 -0.17685587381E+02  0.82243102310E+02  0.15067732925E+03  0.17256988564E+03  0.00000000000E+00 0.  1.
<mgrwt>
<rscale>  2 0.34767254E+03</rscale>
<asrwt>0</asrwt>
<pdfrwt beam="1">  1       21 0.10532067E+00 0.34801589E+03</pdfrwt>
<pdfrwt beam="2">  1       21 0.10689897E+00 0.34801589E+03</pdfrwt>
<totfact> 0.44641773E+02</totfact>
</mgrwt>
</event>
<event>
12    1  0.1019868E-001  0.2181570E+03  0.7546771E-02  0.1136574E+00
         21   -1    0    0  501  502  0.00000000000E+00  0.00000000000E+00  0.13191249050E+04  0.13191249050E+04  0.00000000000E+00 0. -1.
         21   -1    0    0  502  503 -0.00000000000E+00 -0.00000000000E+00 -0.11978564728E+03  0.11978564728E+03  0.00000000000E+00 0. -1.
         -6    2    1    2    0  503 -0.59153037641E+02  0.10511896059E+03 -0.85324651460E+01  0.21149596176E+03  0.17351847493E+03 0.  0.
        -24    2    3    3    0    0 -0.10521532193E+03  0.84159490733E+02  0.10801707961E+02  0.15711826725E+03  0.80102366742E+02 0.  0.
          6    2    1    2  501    0  0.59153037641E+02 -0.10511896059E+03  0.12078717229E+04  0.12274145906E+04  0.18177843767E+03 0.  0.
         24    2    5    5    0    0  0.48300167031E+02  0.12326514048E+02  0.66916738633E+03  0.67592961655E+03  0.81308096314E+02 0.  0.
          5    1    5    5  501    0  0.10852870610E+02 -0.11744547464E+03  0.53870433659E+03  0.55148497402E+03  0.47000000000E+01 0. -1.
        -11    1    6    6    0    0 -0.19865919861E+02  0.17676663928E+02  0.21657932257E+03  0.21820568779E+03  0.00000000000E+00 0.  1.
         12    1    6    6    0    0  0.68166086892E+02 -0.53501498798E+01  0.45258806375E+03  0.45772392876E+03  0.00000000000E+00 0. -1.
         -5    1    3    3    0  503  0.46062284292E+02  0.20959469856E+02 -0.19334173107E+02  0.54377694513E+02  0.47000000000E+01 0.  1.
         11    1    4    4    0    0 -0.99335347104E+02  0.40061952533E+02 -0.10819530445E+02  0.10765469550E+03  0.00000000000E+00 0. -1.
        -12    1    4    4    0    0 -0.58799748284E+01  0.44097538199E+02  0.21621238406E+02  0.49463571741E+02  0.00000000000E+00 0.  1.
<mgrwt>
<rscale>  2 0.21642826E+03</rscale>
<asrwt>0</asrwt>
<pdfrwt beam="1">  1       21 0.20294228E+00 0.21815700E+03</pdfrwt>
<pdfrwt beam="2">  1       21 0.18428562E-01 0.21815700E+03</pdfrwt>
<totfact> 0.33741142E+03</totfact>
</mgrwt>
</event>
<event>
12    1  0.1019868E-001  0.2005487E+03  0.7546771E-02  0.1149547E+00
         21   -1    0    0  501  502  0.00000000000E+00  0.00000000000E+00  0.17647934250E+03  0.17647934250E+03  0.00000000000E+00 0.  1.
         21   -1    0    0  502  503 -0.00000000000E+00 -0.00000000000E+00 -0.23019970815E+03  0.23019970815E+03  0.00000000000E+00 0.  1.
         -6    2    1    2    0  503 -0.91269591359E+02  0.36133097046E+02 -0.52908844141E+02  0.20741054446E+03  0.17488295845E+03 0.  0.
        -24    2    3    3    0    0 -0.53194706860E+02 -0.43847695069E+02 -0.41967293172E+01  0.10620983267E+03  0.80688405719E+02 0.  0.
          6    2    1    2  501    0  0.91269591359E+02 -0.36133097046E+02 -0.81152151409E+00  0.19926850619E+03  0.17341147592E+03 0.  0.
         24    2    5    5    0    0  0.99256314615E+02 -0.32373717179E+02 -0.57309279018E+02  0.14189248952E+03  0.77131391573E+02 0.  0.
          5    1    5    5  501    0 -0.79867232557E+01 -0.37593798669E+01  0.56497757504E+02  0.57376016665E+02  0.47000000000E+01 0. -1.
        -13    1    6    6    0    0  0.84895447597E+02 -0.44635723816E+02 -0.17041226725E+02  0.97416570827E+02  0.00000000000E+00 0.  1.
         14    1    6    6    0    0  0.14360867017E+02  0.12262006637E+02 -0.40268052293E+02  0.44475918694E+02  0.00000000000E+00 0. -1.
         -5    1    3    3    0  503 -0.38074884499E+02  0.79980792115E+02 -0.48712114824E+02  0.10120071179E+03  0.47000000000E+01 0.  1.
         13    1    4    4    0    0 -0.26566114094E+02 -0.52798148665E+02 -0.31551428054E+02  0.66999220389E+02  0.00000000000E+00 0. -1.
        -14    1    4    4    0    0 -0.26628592766E+02  0.89504535954E+01  0.27354698737E+02  0.39210612279E+02  0.00000000000E+00 0.  1.
<mgrwt>
<rscale>  2 0.20022748E+03</rscale>
<asrwt>0</asrwt>
<pdfrwt beam="1">  1       21 0.27150668E-01 0.20054872E+03</pdfrwt>
<pdfrwt beam="2">  1       21 0.35415340E-01 0.20054872E+03</pdfrwt>
<totfact> 0.99078397E+04</totfact>
</mgrwt>
</event>
<event>
12    1  0.1019868E-001  0.1813315E+03  0.7546771E-02  0.1166678E+00
         21   -1    0    0  501  502  0.00000000000E+00  0.00000000000E+00  0.30304834847E+02  0.30304834847E+02  0.00000000000E+00 0.  1.
         21   -1    0    0  502  503 -0.00000000000E+00 -0.00000000000E+00 -0.14156243900E+04  0.14156243900E+04  0.00000000000E+00 0.  1.
         -6    2    1    2    0  503 -0.49951102292E+02 -0.90079374986E+01 -0.10431490910E+04  0.10586802990E+04  0.17340038616E+03 0.  0.
        -24    2    3    3    0    0  0.22077826874E+02 -0.16593807331E+02 -0.82076785253E+03  0.82475463288E+03  0.76141656284E+02 0.  0.
          6    2    1    2  501    0  0.49951102292E+02  0.90079374986E+01 -0.34217046418E+03  0.38724892585E+03  0.17408287814E+03 0.  0.
         24    2    5    5    0    0 -0.14484428475E+02  0.11653253125E+02 -0.66597128865E+02  0.10419117829E+03  0.77942460082E+02 0.  0.
          5    1    5    5  501    0  0.64435530767E+02 -0.26453156262E+01 -0.27557333531E+03  0.28305774756E+03  0.47000000000E+01 0. -1.
        -13    1    6    6    0    0  0.26683144305E+02 -0.33096896853E+01 -0.51074493042E+02  0.57719564061E+02  0.00000000000E+00 0.  1.
         14    1    6    6    0    0 -0.41167572780E+02  0.14962942810E+02 -0.15522635823E+02  0.46471614229E+02  0.00000000000E+00 0. -1.
         -5    1    3    3    0  503 -0.72028929166E+02  0.75858698323E+01 -0.22238123848E+03  0.23392566615E+03  0.47000000000E+01 0.  1.
         13    1    4    4    0    0  0.22223592673E+02 -0.26222363730E+02 -0.80815654740E+03  0.80888720198E+03  0.00000000000E+00 0. -1.
        -14    1    4    4    0    0 -0.14576579897E+00  0.96285563988E+01 -0.12611305135E+02  0.15867430895E+02  0.00000000000E+00 0.  1.
<mgrwt>
<rscale>  2 0.18116748E+03</rscale>
<asrwt>0</asrwt>
<pdfrwt beam="1">  1       21 0.46622824E-02 0.18133148E+03</pdfrwt>
<pdfrwt beam="2">  1       21 0.21778836E+00 0.18133148E+03</pdfrwt>
<totfact> 0.31698615E+04</totfact>
</mgrwt>
</event>
<event>
12    1  0.1019868E-001  0.2360872E+03  0.7546771E-02  0.1124595E+00
         21   -1    0    0  501  502  0.00000000000E+00  0.00000000000E+00  0.48089752255E+03  0.48089752255E+03  0.00000000000E+00 0. -1.
         21   -1    0    0  502  503 -0.00000000000E+00 -0.00000000000E+00 -0.10996356840E+03  0.10996356840E+03  0.00000000000E+00 0.  1.
         -6    2    1    2    0  503  0.66033337168E+02 -0.12544176570E+03  0.17364327262E+03  0.28319120380E+03  0.17305846869E+03 0.  0.
        -24    2    3    3    0    0  0.22006019975E+02 -0.13307630731E+03  0.73542414954E+02  0.17346899734E+03  0.80557046602E+02 0.  0.
          6    2    1    2  501    0 -0.66033337168E+02  0.12544176570E+03  0.19729068153E+03  0.30766988715E+03  0.18878852783E+03 0.  0.
         24    2    5    5    0    0  0.30416532547E+02  0.10640327869E+03  0.99490162172E+02  0.16891804773E+03  0.79926161623E+02 0.  0.
          5    1    5    5  501    0 -0.96449869715E+02  0.19038487013E+02  0.97800519361E+02  0.13875183942E+03  0.47000000000E+01 0. -1.
        -11    1    6    6    0    0 -0.16915376632E+01  0.52982416484E+02  0.18018886175E+01  0.53040027892E+02  0.00000000000E+00 0.  1.
         12    1    6    6    0    0  0.32108070210E+02  0.53420862201E+02  0.97688273554E+02  0.11587801984E+03  0.00000000000E+00 0. -1.
         -5    1    3    3    0  503  0.44027317193E+02  0.76345416156E+01  0.10010085767E+03  0.10972220646E+03  0.47000000000E+01 0.  1.
         11    1    4    4    0    0  0.43293175278E+02 -0.34964408481E+02  0.36032152924E+02  0.66295738403E+02  0.00000000000E+00 0. -1.
        -12    1    4    4    0    0 -0.21287155302E+02 -0.98111898833E+02  0.37510262029E+02  0.10717325894E+03  0.00000000000E+00 0.  1.
<mgrwt>
<rscale>  2 0.23292959E+03</rscale>
<asrwt>0</asrwt>
<pdfrwt beam="1">  1       21 0.73984233E-01 0.23608716E+03</pdfrwt>
<pdfrwt beam="2">  1       21 0.16917472E-01 0.23608716E+03</pdfrwt>
<totfact> 0.50560038E+04</totfact>
</mgrwt>
</event>
<event>
12    1  0.1019868E-001  0.1771539E+03  0.7546771E-02  0.1170606E+00
         21   -1    0    0  501  502  0.00000000000E+00  0.00000000000E+00  0.98240686227E+03  0.98240686227E+03  0.00000000000E+00 0. -1.
         21   -1    0    0  502  503 -0.00000000000E+00 -0.00000000000E+00 -0.32154589305E+02  0.32154589305E+02  0.00000000000E+00 0. -1.
         -6    2    1    2    0  503 -0.28126332815E+02  0.30383036420E+02  0.43291728578E+03  0.46776157835E+03  0.17224778185E+03 0.  0.
        -24    2    3    3    0    0 -0.57356815406E+02 -0.27551229749E+02  0.18359359203E+03  0.21008892831E+03  0.79886646145E+02 0.  0.
          6    2    1    2  501    0  0.28126332815E+02 -0.30383036420E+02  0.51733498719E+03  0.54679987323E+03  0.17216385479E+03 0.  0.
         24    2    5    5    0    0  0.22882842016E+02 -0.71353841509E+02  0.47454481082E+03  0.48714092370E+03  0.80613317204E+02 0.  0.
          5    1    5    5  501    0  0.52434907985E+01  0.40970805089E+02  0.42790176365E+02  0.59658949528E+02  0.47000000000E+01 0. -1.
        -13    1    6    6    0    0 -0.28364884839E+02 -0.26199804562E+02  0.11942523683E+03  0.12551248401E+03  0.00000000000E+00 0.  1.
         14    1    6    6    0    0  0.51247726855E+02 -0.45154036947E+02  0.35511957399E+03  0.36162843969E+03  0.00000000000E+00 0. -1.
         -5    1    3    3    0  503  0.29230482591E+02  0.57934266169E+02  0.24932369375E+03  0.25767265004E+03  0.47000000000E+01 0.  1.
         13    1    4    4    0    0 -0.23551721597E+02 -0.24711189209E+01  0.16018315800E+03  0.16192416165E+03  0.00000000000E+00 0. -1.
        -14    1    4    4    0    0 -0.33805093809E+02 -0.25080110828E+02  0.23410434028E+02  0.48164766666E+02  0.00000000000E+00 0.  1.
<mgrwt>
<rscale>  2 0.17713353E+03</rscale>
<asrwt>0</asrwt>
<pdfrwt beam="1">  1       21 0.15113949E+00 0.17715394E+03</pdfrwt>
<pdfrwt beam="2">  1       21 0.49468606E-02 0.17715394E+03</pdfrwt>
<totfact> 0.80888126E+04</totfact>
</mgrwt>
</event>
<event>
12    1  0.1019868E-001  0.1865614E+03  0.7546771E-02  0.1161782E+00
         21   -1    0    0  503  502  0.00000000000E+00  0.00000000000E+00  0.14207392167E+03  0.14207392167E+03  0.00000000000E+00 0.  1.
         21   -1    0    0  501  503 -0.00000000000E+00 -0.00000000000E+00 -0.89780438648E+03  0.89780438648E+03  0.00000000000E+00 0.  1.
          6    2    1    2  501    0 -0.89119676959E+01 -0.67366620159E+02 -0.82136203939E+03  0.84210909851E+03  0.17290011384E+03 0.  0.
         24    2    3    3    0    0  0.61938379988E+02 -0.49481461240E+02 -0.49183410136E+03  0.50454369357E+03  0.79867249431E+02 0.  0.
         -6    2    1    2    0  502  0.89119676959E+01  0.67366620159E+02  0.65631574580E+02  0.19776920964E+03  0.17374542302E+03 0.  0.
        -24    2    5    5    0    0  0.31922062468E+02  0.10616765713E+03  0.30452444636E+02  0.14037020168E+03  0.80534791502E+02 0.  0.
          5    1    3    3  501    0 -0.70850347684E+02 -0.17885158919E+02 -0.32952793802E+03  0.33756540494E+03  0.47000000000E+01 0. -1.
        -13    1    4    4    0    0 -0.27627723508E+01  0.16732050661E+02 -0.42239312138E+02  0.45516523597E+02  0.00000000000E+00 0.  1.
         14    1    4    4    0    0  0.64701152339E+02 -0.66213511901E+02 -0.44959478922E+03  0.45902716997E+03  0.00000000000E+00 0. -1.
         -5    1    5    5    0  502 -0.23010094773E+02 -0.38801036971E+02  0.35179129944E+02  0.57399007963E+02  0.47000000000E+01 0.  1.
         13    1    6    6    0    0  0.45142295597E+02  0.28946119079E+02 -0.59996179049E+01  0.53960171206E+02  0.00000000000E+00 0. -1.
        -14    1    6    6    0    0 -0.13220233129E+02  0.77221538050E+02  0.36452062540E+02  0.86410030473E+02  0.00000000000E+00 0.  1.
<mgrwt>
<rscale>  2 0.18636434E+03</rscale>
<asrwt>0</asrwt>
<pdfrwt beam="1">  1       21 0.21857527E-01 0.18656140E+03</pdfrwt>
<pdfrwt beam="2">  1       21 0.13812375E+00 0.18656140E+03</pdfrwt>
<totfact> 0.72746871E+03</totfact>
</mgrwt>
</event>
<event>
12    1  0.1019868E-001  0.2554517E+03  0.7546771E-02  0.1110921E+00
         21   -1    0    0  501  502  0.00000000000E+00  0.00000000000E+00  0.12738633730E+03  0.12738633730E+03  0.00000000000E+00 0. -1.
         21   -1    0    0  502  503 -0.00000000000E+00 -0.00000000000E+00 -0.50197683253E+03  0.50197683253E+03  0.00000000000E+00 0.  1.
         -6    2    1    2    0  503 -0.14490275865E+03  0.10538250717E+03 -0.20788811756E+03  0.32432996718E+03  0.17282990455E+03 0.  0.
        -24    2    3    3    0    0 -0.13362551020E+03  0.86790076302E+02 -0.80601217473E+02  0.19511348312E+03  0.78641087971E+02 0.  0.
          6    2    1    2  501    0  0.14490275865E+03 -0.10538250717E+03 -0.16670237767E+03  0.30503320264E+03  0.18208044846E+03 0.  0.
         24    2    5    5    0    0  0.15861753460E+03 -0.13128600345E+03 -0.16170458818E+03  0.27493080908E+03  0.83922815480E+02 0.  0.
          5    1    5    5  501    0 -0.13714775949E+02  0.25903496273E+02 -0.49977894871E+01  0.30102393564E+02  0.47000000000E+01 0. -1.
        -13    1    6    6    0    0  0.47607360817E+02 -0.60656533451E+02 -0.10826733439E+03  0.13291911657E+03  0.00000000000E+00 0.  1.
         14    1    6    6    0    0  0.11101017379E+03 -0.70629469994E+02 -0.53437253786E+02  0.14201169250E+03  0.00000000000E+00 0. -1.
         -5    1    3    3    0  503 -0.11277248451E+02  0.18592430870E+02 -0.12728690009E+03  0.12921648406E+03  0.47000000000E+01 0.  1.
         11    1    4    4    0    0 -0.92090610329E+02  0.13089689087E+02 -0.39426463404E+02  0.10102705820E+03  0.00000000000E+00 0. -1.
        -12    1    4    4    0    0 -0.41534899874E+02  0.73700387215E+02 -0.41174754069E+02  0.94086424929E+02  0.00000000000E+00 0.  1.
<mgrwt>
<rscale>  2 0.25380866E+03</rscale>
<asrwt>0</asrwt>
<pdfrwt beam="1">  1       21 0.19597898E-01 0.25545170E+03</pdfrwt>
<pdfrwt beam="2">  1       21 0.77227204E-01 0.25545170E+03</pdfrwt>
<totfact> 0.34625138E+04</totfact>
</mgrwt>
</event>
<event>
12    1  0.1019868E-001  0.3261284E+03  0.7546771E-02  0.1072970E+00
         21   -1    0    0  501  502  0.00000000000E+00  0.00000000000E+00  0.41751632856E+03  0.41751632856E+03  0.00000000000E+00 0. -1.
         21   -1    0    0  502  503 -0.00000000000E+00 -0.00000000000E+00 -0.26311704669E+03  0.26311704669E+03  0.00000000000E+00 0. -1.
         -6    2    1    2    0  503 -0.16388653294E+03  0.22112868914E+03  0.14064379443E+03  0.35516254117E+03  0.17493730562E+03 0.  0.
        -24    2    3    3    0    0 -0.14335255798E+03  0.17247059495E+03  0.40722906121E+02  0.24204522076E+03  0.81433849256E+02 0.  0.
          6    2    1    2  501    0  0.16388653294E+03 -0.22112868914E+03  0.13755487440E+02  0.32547083408E+03  0.17316280652E+03 0.  0.
         24    2    5    5    0    0  0.53816518366E+02 -0.34858846664E+02 -0.50076079676E+02  0.99841888053E+02  0.57874277658E+02 0.  0.
          5    1    5    5  501    0  0.11007001458E+03 -0.18626984247E+03  0.63831567116E+02  0.22562894602E+03  0.47000000000E+01 0. -1.
        -13    1    6    6    0    0  0.33024338127E+02  0.84153842948E+01 -0.36527111492E+02  0.49956535864E+02  0.00000000000E+00 0.  1.
         14    1    6    6    0    0  0.20792180239E+02 -0.43274230959E+02 -0.13548968184E+02  0.49885352189E+02  0.00000000000E+00 0. -1.
         -5    1    3    3    0  503 -0.20533974964E+02  0.48658094181E+02  0.99920888307E+02  0.11311732041E+03  0.47000000000E+01 0.  1.
         13    1    4    4    0    0 -0.10735206546E+03  0.16758860581E+03  0.48598838924E+02  0.20487131059E+03  0.00000000000E+00 0. -1.
        -14    1    4    4    0    0 -0.36000492521E+02  0.48819891411E+01 -0.78759328035E+01  0.37173910169E+02  0.00000000000E+00 0.  1.
<mgrwt>
<rscale>  2 0.32589107E+03</rscale>
<asrwt>0</asrwt>
<pdfrwt beam="1">  1       21 0.64233281E-01 0.32612843E+03</pdfrwt>
<pdfrwt beam="2">  1       21 0.40479546E-01 0.32612843E+03</pdfrwt>
<totfact> 0.12273539E+04</totfact>
</mgrwt>
</event>
<event>
12    1  0.1019868E-001  0.1821196E+03  0.7546771E-02  0.1166111E+00
         21   -1    0    0  503  502  0.00000000000E+00  0.00000000000E+00  0.19900429620E+03  0.19900429620E+03  0.00000000000E+00 0. -1.
         21   -1    0    0  501  503 -0.00000000000E+00 -0.00000000000E+00 -0.22016788628E+03  0.22016788628E+03  0.00000000000E+00 0. -1.
          6    2    1    2  501    0 -0.41931731473E+01  0.49584922855E+02 -0.11518512334E+03  0.21548817569E+03  0.17518930888E+03 0.  0.
         24    2    3    3    0    0  0.51966965462E+02 -0.13849606358E+02 -0.60165000003E+02  0.11435853297E+03  0.81028820437E+02 0.  0.
         -6    2    1    2    0  502  0.41931731473E+01 -0.49584922855E+02  0.94021533267E+02  0.20368400679E+03  0.17369766443E+03 0.  0.
        -24    2    5    5    0    0  0.38202585088E+02 -0.80602748749E+02  0.28220999246E+02  0.12324430328E+03  0.80227756284E+02 0.  0.
          5    1    3    3  501    0 -0.56160138609E+02  0.63434529213E+02 -0.55020123340E+02  0.10112964272E+03  0.47000000000E+01 0. -1.
        -13    1    4    4    0    0  0.16314282946E+02 -0.30404827587E+02 -0.66138525115E+02  0.74598350337E+02  0.00000000000E+00 0.  1.
         14    1    4    4    0    0  0.35652682516E+02  0.16555221228E+02  0.59735251124E+01  0.39760182630E+02  0.00000000000E+00 0. -1.
         -5    1    5    5    0  502 -0.34009411940E+02  0.31017825894E+02  0.65800534021E+02  0.80439703513E+02  0.47000000000E+01 0.  1.
         13    1    6    6    0    0  0.20544174796E+02 -0.14575166568E+02  0.46156154799E+02  0.52582213954E+02  0.00000000000E+00 0. -1.
        -14    1    6    6    0    0  0.17658410292E+02 -0.66027582181E+02 -0.17935155553E+02  0.70662089322E+02  0.00000000000E+00 0.  1.
<mgrwt>
<rscale>  2 0.18175991E+03</rscale>
<asrwt>0</asrwt>
<pdfrwt beam="1">  1       21 0.30616046E-01 0.18211958E+03</pdfrwt>
<pdfrwt beam="2">  1       21 0.33871982E-01 0.18211958E+03</pdfrwt>
<totfact> 0.86358146E+04</totfact>
</mgrwt>
</event>
<event>
12    1  0.1019868E-001  0.3606832E+03  0.7546771E-02  0.1058346E+00
         21   -1    0    0  501  502  0.00000000000E+00  0.00000000000E+00  0.25796001319E+03  0.25796001319E+03  0.00000000000E+00 0.  1.
         21   -1    0    0  502  503 -0.00000000000E+00 -0.00000000000E+00 -0.14102697577E+04  0.14102697577E+04  0.00000000000E+00 0.  1.
         -6    2    1    2    0  503  0.10938677880E+03  0.29703634155E+03 -0.12449631714E+04  0.12961580549E+04  0.17290560882E+03 0.  0.
        -24    2    3    3    0    0  0.22375917864E+02  0.10842181314E+03 -0.29986883392E+03  0.32849503143E+03  0.75707970880E+02 0.  0.
          6    2    1    2  501    0 -0.10938677880E+03 -0.29703634155E+03  0.92653426887E+02  0.37207171598E+03  0.17221105870E+03 0.  0.
         24    2    5    5    0    0 -0.99119433336E+02 -0.29216388944E+03  0.43607820735E+02  0.32150769068E+03  0.79253724048E+02 0.  0.
          5    1    5    5  501    0 -0.10267345465E+02 -0.48724521129E+01  0.49045606152E+02  0.50564025308E+02  0.47000000000E+01 0. -1.
        -13    1    6    6    0    0 -0.33956257369E+02 -0.21426906845E+03  0.31969412432E+02  0.21928589659E+03  0.00000000000E+00 0.  1.
         14    1    6    6    0    0 -0.65163175967E+02 -0.77894820988E+02  0.11638408303E+02  0.10222179409E+03  0.00000000000E+00 0. -1.
         -5    1    3    3    0  503  0.87010860937E+02  0.18861452842E+03 -0.94509433746E+03  0.96766302345E+03  0.47000000000E+01 0.  1.
         13    1    4    4    0    0 -0.23557600318E+01 -0.10690372155E+02 -0.41487612326E+02  0.42907524266E+02  0.00000000000E+00 0. -1.
        -14    1    4    4    0    0  0.24731677896E+02  0.11911218529E+03 -0.25838122159E+03  0.28558750717E+03  0.00000000000E+00 0.  1.
<mgrwt>
<rscale>  2 0.36060011E+03</rscale>
<asrwt>0</asrwt>
<pdfrwt beam="1">  1       21 0.39686155E-01 0.36068325E+03</pdfrwt>
<pdfrwt beam="2">  1       21 0.21696458E+00 0.36068325E+03</pdfrwt>
<totfact> 0.55440890E+02</totfact>
</mgrwt>
</event>
<event>
12    1  0.1019868E-001  0.1888238E+03  0.7546771E-02  0.1160126E+00
         21   -1    0    0  503  502  0.00000000000E+00  0.00000000000E+00  0.13449797439E+03  0.13449797439E+03  0.00000000000E+00 0.  1.
         21   -1    0    0  501  503 -0.00000000000E+00 -0.00000000000E+00 -0.28745925753E+03  0.28745925753E+03  0.00000000000E+00 0. -1.
          6    2    1    2  501    0  0.70290031825E+02 -0.27132391579E+02 -0.13483268111E+02  0.18930459250E+03  0.17314033319E+03 0.  0.
         24    2    3    3    0    0  0.10862547026E+03 -0.11385742557E+02 -0.39028694069E+02  0.14039425021E+03  0.79108650654E+02 0.  0.
         -6    2    1    2    0  502 -0.70290031825E+02  0.27132391579E+02 -0.13947801503E+03  0.23265263942E+03  0.17028293722E+03 0.  0.
        -24    2    5    5    0    0 -0.93498448161E+01 -0.44187164980E+02 -0.52813006571E+02  0.10485162522E+03  0.78515759569E+02 0.  0.
          5    1    3    3  501    0 -0.38335438437E+02 -0.15746649022E+02  0.25545425959E+02  0.48910342291E+02  0.47000000000E+01 0. -1.
        -11    1    4    4    0    0 -0.84482105607E+01  0.23880412549E+01  0.94815478744E+01  0.12921871103E+02  0.00000000000E+00 0.  1.
         12    1    4    4    0    0  0.11707368082E+03 -0.13773783812E+02 -0.48510241944E+02  0.12747237911E+03  0.00000000000E+00 0. -1.
         -5    1    5    5    0  502 -0.60940187009E+02  0.71319556559E+02 -0.86665008462E+02  0.12780101421E+03  0.47000000000E+01 0.  1.
         11    1    6    6    0    0 -0.36367227918E+02 -0.42308000527E+02 -0.54133771834E+02  0.77736782979E+02  0.00000000000E+00 0. -1.
        -12    1    6    6    0    0  0.27017383102E+02 -0.18791644534E+01  0.13207652633E+01  0.27114842238E+02  0.00000000000E+00 0.  1.
<mgrwt>
<rscale>  2 0.18816624E+03</rscale>
<asrwt>0</asrwt>
<pdfrwt beam="1">  1       21 0.20691996E-01 0.18882381E+03</pdfrwt>
<pdfrwt beam="2">  1       21 0.44224501E-01 0.18882381E+03</pdfrwt>
<totfact> 0.10651593E+05</totfact>
</mgrwt>
</event>
<event>
12    1  0.1019868E-001  0.1963266E+03  0.7546771E-02  0.1153005E+00
         21   -1    0    0  503  502  0.00000000000E+00  0.00000000000E+00  0.35476926467E+03  0.35476926467E+03  0.00000000000E+00 0.  1.
         21   -1    0    0  501  503 -0.00000000000E+00 -0.00000000000E+00 -0.16816536102E+03  0.16816536102E+03  0.00000000000E+00 0.  1.
          6    2    1    2  501    0 -0.89669823370E+02  0.23926403815E+02 -0.62589726221E+02  0.20606212055E+03  0.17300570417E+03 0.  0.
         24    2    3    3    0    0 -0.11495068784E+03  0.31101095686E+02 -0.92450919124E+02  0.16600741854E+03  0.69500732194E+02 0.  0.
         -6    2    1    2    0  502  0.89669823370E+02 -0.23926403815E+02  0.24919362987E+03  0.31687250514E+03  0.17232982714E+03 0.  0.
        -24    2    5    5    0    0 -0.20648958986E+01 -0.30580740365E+02  0.17980874861E+03  0.20156469681E+03  0.85777010010E+02 0.  0.
          5    1    3    3  501    0  0.25280864468E+02 -0.71746918709E+01  0.29861192903E+02  0.40054702012E+02  0.47000000000E+01 0. -1.
        -13    1    4    4    0    0 -0.28247909219E+02 -0.22345180843E+02 -0.25111274035E+02  0.43907033216E+02  0.00000000000E+00 0.  1.
         14    1    4    4    0    0 -0.86702778620E+02  0.53446276530E+02 -0.67339645088E+02  0.12210038532E+03  0.00000000000E+00 0. -1.
         -5    1    5    5    0  502  0.91734719269E+02  0.66543365501E+01  0.69384881265E+02  0.11530780833E+03  0.47000000000E+01 0.  1.
         11    1    6    6    0    0  0.18592869017E+02 -0.20311156121E+02  0.86565940455E+01  0.28864761591E+02  0.00000000000E+00 0. -1.
        -12    1    6    6    0    0 -0.20657764916E+02 -0.10269584245E+02  0.17115215456E+03  0.17269993521E+03  0.00000000000E+00 0.  1.
<mgrwt>
<rscale>  2 0.19617757E+03</rscale>
<asrwt>0</asrwt>
<pdfrwt beam="1">  1       21 0.54579887E-01 0.19632657E+03</pdfrwt>
<pdfrwt beam="2">  1       21 0.25871594E-01 0.19632657E+03</pdfrwt>
<totfact> 0.44889566E+04</totfact>
</mgrwt>
</event>
<event>
12    1  0.1019868E-001  0.2040092E+03  0.7546771E-02  0.1146620E+00
         21   -1    0    0  503  502  0.00000000000E+00  0.00000000000E+00  0.78749584409E+02  0.78749584409E+02  0.00000000000E+00 0.  1.
         21   -1    0    0  501  503 -0.00000000000E+00 -0.00000000000E+00 -0.53009192496E+03  0.53009192496E+03  0.00000000000E+00 0. -1.
          6    2    1    2  501    0 -0.81527250020E+02 -0.68603157990E+02 -0.25381764001E+03  0.32564269114E+03  0.17397322246E+03 0.  0.
         24    2    3    3    0    0 -0.92894720001E+02  0.36465397165E+01 -0.11275984979E+03  0.16668160039E+03  0.80157631749E+02 0.  0.
         -6    2    1    2    0  502  0.81527250020E+02  0.68603157990E+02 -0.19752470055E+03  0.28319881823E+03  0.17272080806E+03 0.  0.
        -24    2    5    5    0    0 -0.87918181486E+01 -0.74743303650E+01 -0.55622584703E+02  0.98527166939E+02  0.80501981436E+02 0.  0.
          5    1    3    3  501    0  0.11367469981E+02 -0.72249697707E+02 -0.14105779022E+03  0.15896109075E+03  0.47000000000E+01 0. -1.
        -13    1    4    4    0    0 -0.66419816851E+00  0.18891814329E+02 -0.51642551212E+02  0.54993589658E+02  0.00000000000E+00 0.  1.
         14    1    4    4    0    0 -0.92230521832E+02 -0.15245274612E+02 -0.61117298576E+02  0.11168801073E+03  0.00000000000E+00 0. -1.
         -5    1    5    5    0  502  0.90319068169E+02  0.76077488355E+02 -0.14190211584E+03  0.18467165129E+03  0.47000000000E+01 0.  1.
         11    1    6    6    0    0 -0.24555641886E+02 -0.13885187936E+02 -0.70493025896E+02  0.75927891400E+02  0.00000000000E+00 0. -1.
        -12    1    6    6    0    0  0.15763823737E+02  0.64108575713E+01  0.14870441193E+02  0.22599275539E+02  0.00000000000E+00 0.  1.
<mgrwt>
<rscale>  2 0.20374197E+03</rscale>
<asrwt>0</asrwt>
<pdfrwt beam="1">  1       21 0.12115321E-01 0.20400923E+03</pdfrwt>
<pdfrwt beam="2">  1       21 0.81552604E-01 0.20400923E+03</pdfrwt>
<totfact> 0.75570985E+04</totfact>
</mgrwt>
</event>
<event>
11    1  0.1019868E-001  0.3094166E+03  0.7546771E-02  0.1080627E+00
         21   -1    0    0  503  502  0.00000000000E+00  0.00000000000E+00  0.23336535914E+03  0.23336535914E+03  0.00000000000E+00 0. -1.
         21   -1    0    0  501  503 -0.00000000000E+00 -0.00000000000E+00 -0.41191193044E+03  0.41191193044E+03  0.00000000000E+00 0. -1.
          6    2    1    2  501    0  0.12902579650E+03 -0.22171138264E+03 -0.10986134248E+03  0.32832892102E+03  0.17299356189E+03 0.  0.
         24    2    3    3    0    0  0.84604953777E+02 -0.65648287906E+02 -0.99156556107E+02  0.16564645959E+03  0.78351969014E+02 0.  0.
         -6    2    1    2    0  502 -0.12902579650E+03  0.22171138264E+03 -0.68685228825E+02  0.31694836856E+03  0.17301738155E+03 0.  0.
          5    1    3    3  501    0  0.44420842723E+02 -0.15606309473E+03 -0.10704786377E+02  0.16268246143E+03  0.47000000000E+01 0. -1.
        -11    1    4    4    0    0  0.11864325894E+01  0.15882437981E+02 -0.96942171116E+01  0.18645034297E+02  0.00000000000E+00 0.  1.
         12    1    4    4    0    0  0.83418521188E+02 -0.81530725887E+02 -0.89462338995E+02  0.14700142530E+03  0.00000000000E+00 0. -1.
         -5    1    5    5    0  502 -0.27281654335E+02 -0.82877482699E+01 -0.14793967983E+02  0.32464240686E+02  0.47000000000E+01 0.  1.
         11    1    5    5    0    0 -0.19789206896E+02  0.85945280264E+02  0.36793435243E+02  0.95561293347E+02  0.00000000000E+00 0. -1.
        -12    1    5    5    0    0 -0.81954935269E+02  0.14405385064E+03 -0.90684696085E+02  0.18892283452E+03  0.00000000000E+00 0.  1.
<mgrwt>
<rscale>  2 0.30941323E+03</rscale>
<asrwt>0</asrwt>
<pdfrwt beam="1">  1       21 0.35902363E-01 0.30941656E+03</pdfrwt>
<pdfrwt beam="2">  1       21 0.63371066E-01 0.30941656E+03</pdfrwt>
<totfact> 0.16240731E+04</totfact>
</mgrwt>
</event>
<event>
12    1  0.1019868E-001  0.1877170E+03  0.7546771E-02  0.1160926E+00
         21   -1    0    0  501  502  0.00000000000E+00  0.00000000000E+00  0.57350709943E+02  0.57350709943E+02  0.00000000000E+00 0. -1.
         21   -1    0    0  502  503 -0.00000000000E+00 -0.00000000000E+00 -0.11178707132E+04  0.11178707132E+04  0.00000000000E+00 0.  1.
         -6    2    1    2    0  503  0.20419803823E+02  0.65755834324E+02 -0.92805930879E+03  0.94685360998E+03  0.17463355908E+03 0.  0.
        -24    2    3    3    0    0  0.44238901452E+02  0.60542914800E+02 -0.90623739529E+03  0.91379593536E+03  0.90190187589E+02 0.  0.
          6    2    1    2  501    0 -0.20419803823E+02 -0.65755834324E+02 -0.13246069450E+03  0.22836781320E+03  0.17281557911E+03 0.  0.
         24    2    5    5    0    0 -0.94562611265E+00 -0.87779166207E+02 -0.32568812021E+02  0.12413370684E+03  0.81500757220E+02 0.  0.
          5    1    5    5  501    0 -0.19474177710E+02  0.22023331883E+02 -0.99891882480E+02  0.10423410637E+03  0.47000000000E+01 0. -1.
        -13    1    6    6    0    0  0.28931946466E+01 -0.49514391311E+01 -0.40439732470E+02  0.40844329925E+02  0.00000000000E+00 0.  1.
         14    1    6    6    0    0 -0.38388207592E+01 -0.82827727076E+02  0.78709204493E+01  0.83289376911E+02  0.00000000000E+00 0. -1.
         -5    1    3    3    0  503 -0.23819097629E+02  0.52129195245E+01 -0.21821913505E+02  0.33057674614E+02  0.47000000000E+01 0.  1.
         13    1    4    4    0    0  0.67706875916E+02  0.23615586810E+02 -0.48137701277E+03  0.48668855073E+03  0.00000000000E+00 0. -1.
        -14    1    4    4    0    0 -0.23467974464E+02  0.36927327990E+02 -0.42486038252E+03  0.42710738464E+03  0.00000000000E+00 0.  1.
<mgrwt>
<rscale>  2 0.18729306E+03</rscale>
<asrwt>0</asrwt>
<pdfrwt beam="1">  1       21 0.88231875E-02 0.18771702E+03</pdfrwt>
<pdfrwt beam="2">  1       21 0.17198008E+00 0.18771702E+03</pdfrwt>
<totfact> 0.20975591E+04</totfact>
</mgrwt>
</event>
<event>
12    1  0.1019868E-001  0.1866947E+03  0.7546771E-02  0.1162777E+00
         21   -1    0    0  501  502  0.00000000000E+00  0.00000000000E+00  0.17620573577E+03  0.17620573577E+03  0.00000000000E+00 0.  1.
         21   -1    0    0  502  503 -0.00000000000E+00 -0.00000000000E+00 -0.29443213048E+03  0.29443213048E+03  0.00000000000E+00 0.  1.
         -6    2    1    2    0  503  0.24485679607E+02  0.35127339930E+02 -0.19733528445E+03  0.26787411866E+03  0.17601661979E+03 0.  0.
        -24    2    3    3    0    0  0.20038111949E+02  0.53470395385E+02 -0.21799791572E+03  0.23949661220E+03  0.81085922858E+02 0.  0.
          6    2    1    2  501    0 -0.24485679607E+02 -0.35127339930E+02  0.79108889738E+02  0.20276374760E+03  0.18171802989E+03 0.  0.
         24    2    5    5    0    0 -0.47496912610E+02  0.19192643634E+02 -0.56470157069E+01  0.99391454566E+02  0.84985046786E+02 0.  0.
          5    1    5    5  501    0  0.23011233003E+02 -0.54319983564E+02  0.84755905445E+02  0.10337229303E+03  0.47000000000E+01 0. -1.
        -13    1    6    6    0    0 -0.86490680553E+01  0.20255408606E+02  0.36142403305E+02  0.42324476047E+02  0.00000000000E+00 0.  1.
         14    1    6    6    0    0 -0.38847844555E+02 -0.10627649719E+01 -0.41789419012E+02  0.57066978519E+02  0.00000000000E+00 0. -1.
         -5    1    3    3    0  503  0.44475676580E+01 -0.18343055455E+02  0.20662631271E+02  0.28377506454E+02  0.47000000000E+01 0.  1.
         11    1    4    4    0    0  0.90743201012E+01 -0.45088737187E+01  0.31506408825E+01  0.10611303665E+02  0.00000000000E+00 0. -1.
        -12    1    4    4    0    0  0.10963791848E+02  0.57979269104E+02 -0.22114855660E+03  0.22888530854E+03  0.00000000000E+00 0.  1.
<mgrwt>
<rscale>  2 0.18529284E+03</rscale>
<asrwt>0</asrwt>
<pdfrwt beam="1">  1       21 0.27108575E-01 0.18669473E+03</pdfrwt>
<pdfrwt beam="2">  1       21 0.45297251E-01 0.18669473E+03</pdfrwt>
<totfact> 0.60788203E+04</totfact>
</mgrwt>
</event>
<event>
12    1  0.1019868E-001  0.1821940E+03  0.7546771E-02  0.1165763E+00
         21   -1    0    0  501  502  0.00000000000E+00  0.00000000000E+00  0.95302112754E+03  0.95302112754E+03  0.00000000000E+00 0. -1.
         21   -1    0    0  502  503 -0.00000000000E+00 -0.00000000000E+00 -0.25147206225E+03  0.25147206225E+03  0.00000000000E+00 0. -1.
         -6    2    1    2    0  503 -0.43577922228E+02  0.36217728326E+02 -0.20831584116E+03  0.27656603667E+03  0.17286562356E+03 0.  0.
        -24    2    3    3    0    0 -0.56818326434E+02  0.60298008829E+02 -0.69695240662E+02  0.13516968207E+03  0.80927401365E+02 0.  0.
          6    2    1    2  501    0  0.43577922228E+02 -0.36217728326E+02  0.90986490645E+03  0.92792715313E+03  0.17315858157E+03 0.  0.
         24    2    5    5    0    0  0.69497310292E+02 -0.40777168604E+02  0.41634997733E+03  0.43368866976E+03  0.90806965823E+02 0.  0.
          5    1    5    5  501    0 -0.25919388064E+02  0.45594402780E+01  0.49351492912E+03  0.49423848336E+03  0.47000000000E+01 0. -1.
        -13    1    6    6    0    0  0.87908815251E+02 -0.47966485096E+02  0.36972029583E+03  0.38304287049E+03  0.00000000000E+00 0.  1.
         14    1    6    6    0    0 -0.18411504959E+02  0.71893164921E+01  0.46629681502E+02  0.50645799268E+02  0.00000000000E+00 0. -1.
         -5    1    3    3    0  503  0.13240404206E+02 -0.24080280503E+02 -0.13862060049E+03  0.14139635460E+03  0.47000000000E+01 0.  1.
         11    1    4    4    0    0 -0.28015189950E+02  0.71609404016E+02 -0.70346854982E+02  0.10421822114E+03  0.00000000000E+00 0. -1.
        -12    1    4    4    0    0 -0.28803136484E+02 -0.11311395187E+02  0.65161431999E+00  0.30951460929E+02  0.00000000000E+00 0.  1.
<mgrwt>
<rscale>  2 0.18212436E+03</rscale>
<asrwt>0</asrwt>
<pdfrwt beam="1">  1       21 0.14661863E+00 0.18219400E+03</pdfrwt>
<pdfrwt beam="2">  1       21 0.38688010E-01 0.18219400E+03</pdfrwt>
<totfact> 0.20651775E+03</totfact>
</mgrwt>
</event>
<event>
12    1  0.1019868E-001  0.2267173E+03  0.7546771E-02  0.1129672E+00
         21   -1    0    0  501  502  0.00000000000E+00  0.00000000000E+00  0.15713058747E+04  0.15713058747E+04  0.00000000000E+00 0. -1.
         21   -1    0    0  502  503 -0.00000000000E+00 -0.00000000000E+00 -0.42409854189E+02  0.42409854189E+02  0.00000000000E+00 0.  1.
         -6    2    1    2    0  503 -0.85475376107E+01 -0.14039436832E+03  0.36272883842E+03  0.42571462990E+03  0.17284992576E+03 0.  0.
        -24    2    3    3    0    0  0.21700974414E+02 -0.72356886730E+02  0.91787353351E+02  0.14468891984E+03  0.82483416167E+02 0.  0.
          6    2    1    2  501    0  0.85475376107E+01  0.14039436832E+03  0.11661671821E+04  0.11880010990E+04  0.17781191063E+03 0.  0.
         24    2    5    5    0    0  0.72387572391E+02  0.11989017014E+03  0.79422570308E+03  0.81003479627E+03  0.75817479518E+02 0.  0.
          5    1    5    5  501    0 -0.63840034780E+02  0.20504198174E+02  0.37194147899E+03  0.37796630270E+03  0.47000000000E+01 0. -1.
        -11    1    6    6    0    0  0.50259031130E+02  0.28245092828E+02  0.19182738268E+03  0.20030352025E+03  0.00000000000E+00 0.  1.
         12    1    6    6    0    0  0.22128541261E+02  0.91645077315E+02  0.60239832040E+03  0.60973127601E+03  0.00000000000E+00 0. -1.
         -5    1    3    3    0  503 -0.30248512025E+02 -0.68037481586E+02  0.27094148507E+03  0.28102571005E+03  0.47000000000E+01 0.  1.
         13    1    4    4    0    0 -0.20513796346E+02 -0.45944419745E+01  0.50731682440E+02  0.54914737010E+02  0.00000000000E+00 0. -1.
        -14    1    4    4    0    0  0.42214770761E+02 -0.67762444756E+02  0.41055670910E+02  0.89774182834E+02  0.00000000000E+00 0.  1.
<mgrwt>
<rscale>  2 0.22574341E+03</rscale>
<asrwt>0</asrwt>
<pdfrwt beam="1">  1       21 0.24173932E+00 0.22671726E+03</pdfrwt>
<pdfrwt beam="2">  1       21 0.65245942E-02 0.22671726E+03</pdfrwt>
<totfact> 0.12337573E+04</totfact>
</mgrwt>
</event>
<event>
12    1  0.1019868E-001  0.2299000E+03  0.7546771E-02  0.1128982E+00
         21   -1    0    0  501  502  0.00000000000E+00  0.00000000000E+00  0.26422732138E+04  0.26422732138E+04  0.00000000000E+00 0.  1.
         21   -1    0    0  502  503 -0.00000000000E+00 -0.00000000000E+00 -0.26896163946E+02  0.26896163946E+02  0.00000000000E+00 0. -1.
         -6    2    1    2    0  503 -0.97417753361E+02 -0.11592299710E+03  0.60726969137E+03  0.64933081581E+03  0.17299037654E+03 0.  0.
        -24    2    3    3    0    0 -0.74123371755E+02 -0.12979529820E+03  0.32758052050E+03  0.36829133237E+03  0.77384846132E+02 0.  0.
          6    2    1    2  501    0  0.97417753361E+02  0.11592299710E+03  0.20081073585E+04  0.20198385619E+04  0.15596247358E+03 0.  0.
         24    2    5    5    0    0  0.29425222924E+02  0.59443122704E+02  0.15327766697E+04  0.15363364274E+04  0.80783478402E+02 0.  0.
          5    1    5    5  501    0  0.67992530437E+02  0.56479874400E+02  0.47533068880E+03  0.48350213456E+03  0.47000000000E+01 0. -1.
        -13    1    6    6    0    0  0.22834848227E+02  0.79065862125E+02  0.11057381360E+04  0.11087964945E+04  0.00000000000E+00 0.  1.
         14    1    6    6    0    0  0.65903746969E+01 -0.19622739421E+02  0.42703853371E+03  0.42753993289E+03  0.00000000000E+00 0. -1.
         -5    1    3    3    0  503 -0.23294381605E+02  0.13872301091E+02  0.27968917087E+03  0.28103948344E+03  0.47000000000E+01 0.  1.
         11    1    4    4    0    0 -0.26589347045E+02 -0.36604603185E+00  0.28621362061E+02  0.39068014183E+02  0.00000000000E+00 0. -1.
        -12    1    4    4    0    0 -0.47534024710E+02 -0.12942925216E+03  0.29895915844E+03  0.32922331818E+03  0.00000000000E+00 0.  1.
<mgrwt>
<rscale>  2 0.22670316E+03</rscale>
<asrwt>0</asrwt>
<pdfrwt beam="1">  1       21 0.40650337E+00 0.22990004E+03</pdfrwt>
<pdfrwt beam="2">  1       21 0.41378735E-02 0.22990004E+03</pdfrwt>
<totfact> 0.27957425E+03</totfact>
</mgrwt>
</event>
<event>
12    1  0.1019868E-001  0.1778932E+03  0.7546771E-02  0.1170493E+00
         21   -1    0    0  503  502  0.00000000000E+00  0.00000000000E+00  0.55682974585E+03  0.55682974585E+03  0.00000000000E+00 0.  1.
         21   -1    0    0  501  503 -0.00000000000E+00 -0.00000000000E+00 -0.12013192915E+04  0.12013192915E+04  0.00000000000E+00 0.  1.
          6    2    1    2  501    0  0.32333514409E+02  0.15502678108E+02 -0.11806876171E+04  0.11940139201E+04  0.17424179494E+03 0.  0.
         24    2    3    3    0    0 -0.31225909533E+00  0.75047285472E+02 -0.76082343065E+03  0.76866778830E+03  0.79785234157E+02 0.  0.
         -6    2    1    2    0  502 -0.32333514409E+02 -0.15502678108E+02  0.53619807150E+03  0.56413511716E+03  0.17162246167E+03 0.  0.
        -24    2    5    5    0    0  0.11500086639E+02 -0.12640129527E+02  0.12449468570E+03  0.15006827878E+03  0.82033753182E+02 0.  0.
          5    1    3    3  501    0  0.32645773504E+02 -0.59544607363E+02 -0.41986418646E+03  0.42534613184E+03  0.47000000000E+01 0. -1.
        -11    1    4    4    0    0  0.29288195944E+02  0.37687449180E+02 -0.56948723207E+03  0.57148390156E+03  0.00000000000E+00 0.  1.
         12    1    4    4    0    0 -0.29600455040E+02  0.37359836292E+02 -0.19133619858E+03  0.19718388675E+03  0.00000000000E+00 0. -1.
         -5    1    5    5    0  502 -0.43833601047E+02 -0.28625485817E+01  0.41170338581E+03  0.41406683839E+03  0.47000000000E+01 0.  1.
         11    1    6    6    0    0  0.20347201177E+02  0.14410417148E+02  0.11835529254E+03  0.12095306524E+03  0.00000000000E+00 0. -1.
        -12    1    6    6    0    0 -0.88471145384E+01 -0.27050546674E+02  0.61393931548E+01  0.29115213538E+02  0.00000000000E+00 0.  1.
<mgrwt>
<rscale>  2 0.17724852E+03</rscale>
<asrwt>0</asrwt>
<pdfrwt beam="1">  1       21 0.85666115E-01 0.17789320E+03</pdfrwt>
<pdfrwt beam="2">  1       21 0.18481835E+00 0.17789320E+03</pdfrwt>
<totfact> 0.20278791E+02</totfact>
</mgrwt>
</event>
<event>
12    1  0.1019868E-001  0.1939798E+03  0.7546771E-02  0.1155230E+00
         21   -1    0    0  501  502  0.00000000000E+00  0.00000000000E+00  0.41489340840E+03  0.41489340840E+03  0.00000000000E+00 0. -1.
         21   -1    0    0  502  503 -0.00000000000E+00 -0.00000000000E+00 -0.16759763201E+03  0.16759763201E+03  0.00000000000E+00 0.  1.
         -6    2    1    2    0  503  0.13605612061E+02  0.82718734011E+02 -0.74237920841E+02  0.20770035093E+03  0.17493045832E+03 0.  0.
        -24    2    3    3    0    0  0.34141414691E+02  0.91759819167E+02  0.34816920527E+01  0.12667017976E+03  0.80297644116E+02 0.  0.
          6    2    1    2  501    0 -0.13605612061E+02 -0.82718734011E+02  0.32153369723E+03  0.37479068949E+03  0.17336851167E+03 0.  0.
         24    2    5    5    0    0 -0.48112099889E+02  0.88999604193E+01  0.12967832516E+03  0.15934868648E+03  0.78622849184E+02 0.  0.
          5    1    5    5  501    0  0.34506487828E+02 -0.91618694430E+02  0.19185537206E+03  0.21544200301E+03  0.47000000000E+01 0. -1.
        -11    1    6    6    0    0  0.20424836764E+02 -0.23193228543E+01  0.15648276303E+02  0.25834507283E+02  0.00000000000E+00 0.  1.
         12    1    6    6    0    0 -0.68536936652E+02  0.11219283274E+02  0.11403004886E+03  0.13351417919E+03  0.00000000000E+00 0. -1.
         -5    1    3    3    0  503 -0.20535802630E+02 -0.90410851562E+01 -0.77719612894E+02  0.81030171164E+02  0.47000000000E+01 0.  1.
         11    1    4    4    0    0 -0.17499919783E+02  0.29590266849E+01  0.15083805315E+02  0.23292149195E+02  0.00000000000E+00 0. -1.
        -12    1    4    4    0    0  0.51641334474E+02  0.88800792482E+02 -0.11602113263E+02  0.10337803057E+03  0.00000000000E+00 0.  1.
<mgrwt>
<rscale>  2 0.19362701E+03</rscale>
<asrwt>0</asrwt>
<pdfrwt beam="1">  1       21 0.63829755E-01 0.19397981E+03</pdfrwt>
<pdfrwt beam="2">  1       21 0.25784251E-01 0.19397981E+03</pdfrwt>
<totfact> 0.32350541E+04</totfact>
</mgrwt>
</event>
<event>
12    1  0.1019868E-001  0.1932737E+03  0.7546771E-02  0.1155680E+00
         21   -1    0    0  501  502  0.00000000000E+00  0.00000000000E+00  0.27442483961E+03  0.27442483961E+03  0.00000000000E+00 0.  1.
         21   -1    0    0  502  503 -0.00000000000E+00 -0.00000000000E+00 -0.18120508434E+03  0.18120508434E+03  0.00000000000E+00 0.  1.
         -6    2    1    2    0  503  0.70734360337E+02  0.46881608092E+02 -0.67639173458E+02  0.20417350320E+03  0.17294660075E+03 0.  0.
        -24    2    3    3    0    0  0.22385091255E+02  0.79545947628E+02  0.19567787283E+01  0.11323232738E+03  0.77389152253E+02 0.  0.
          6    2    1    2  501    0 -0.70734360337E+02 -0.46881608092E+02  0.16085892873E+03  0.25145642076E+03  0.17364763655E+03 0.  0.
         24    2    5    5    0    0 -0.69325013648E+02 -0.14107203133E+01  0.25619275389E+02  0.10869283391E+03  0.79685865891E+02 0.  0.
          5    1    5    5  501    0 -0.14093466889E+01 -0.45470887779E+02  0.13523965334E+03  0.14276358685E+03  0.47000000000E+01 0. -1.
        -11    1    6    6    0    0 -0.55953632563E+02 -0.36897631886E+02  0.22250462972E+02  0.70621012017E+02  0.00000000000E+00 0.  1.
         12    1    6    6    0    0 -0.13371381084E+02  0.35486911573E+02  0.33688124177E+01  0.38071821892E+02  0.00000000000E+00 0. -1.
         -5    1    3    3    0  503  0.48349269082E+02 -0.32664339536E+02 -0.69595952187E+02  0.90941175816E+02  0.47000000000E+01 0.  1.
         13    1    4    4    0    0 -0.24264581325E+02  0.40934909191E+02  0.17519563886E+02  0.50708695666E+02  0.00000000000E+00 0. -1.
        -14    1    4    4    0    0  0.46649672579E+02  0.38611038437E+02 -0.15562785158E+02  0.62523631715E+02  0.00000000000E+00 0.  1.
<mgrwt>
<rscale>  2 0.19311614E+03</rscale>
<asrwt>0</asrwt>
<pdfrwt beam="1">  1       21 0.42219206E-01 0.19327373E+03</pdfrwt>
<pdfrwt beam="2">  1       21 0.27877705E-01 0.19327373E+03</pdfrwt>
<totfact> 0.66321248E+04</totfact>
</mgrwt>
</event>
<event>
12    1  0.1019868E-001  0.2390718E+03  0.7546771E-02  0.1120624E+00
         21   -1    0    0  503  502  0.00000000000E+00  0.00000000000E+00  0.23287666836E+03  0.23287666836E+03  0.00000000000E+00 0. -1.
         21   -1    0    0  501  503 -0.00000000000E+00 -0.00000000000E+00 -0.25397500331E+03  0.25397500331E+03  0.00000000000E+00 0. -1.
          6    2    1    2  501    0  0.10543187279E+03  0.12718438346E+03 -0.58480083202E+02  0.24612039397E+03  0.17281082431E+03 0.  0.
         24    2    3    3    0    0  0.78315291280E+02  0.10403398131E+02  0.36495966728E+01  0.11100823815E+03  0.77897328846E+02 0.  0.
         -6    2    1    2    0  502 -0.10543187279E+03 -0.12718438346E+03  0.37381748254E+02  0.24073127770E+03  0.17106257850E+03 0.  0.
        -24    2    5    5    0    0 -0.22125530006E+02 -0.12960012480E+03  0.23558811671E+02  0.15612072203E+03  0.80826547711E+02 0.  0.
          5    1    3    3  501    0  0.27116581511E+02  0.11678098533E+03 -0.62129679875E+02  0.13511215582E+03  0.47000000000E+01 0. -1.
        -11    1    4    4    0    0  0.83736363673E+01 -0.51741585523E+00 -0.31056037691E+02  0.32169286318E+02  0.00000000000E+00 0.  1.
         12    1    4    4    0    0  0.69941654913E+02  0.10920813986E+02  0.34705634363E+02  0.78838951836E+02  0.00000000000E+00 0. -1.
         -5    1    5    5    0  502 -0.83306342785E+02  0.24157413315E+01  0.13822936583E+02  0.84610555667E+02  0.47000000000E+01 0.  1.
         13    1    6    6    0    0 -0.36235806393E+02 -0.51256323283E+02 -0.19352870701E+02  0.65686969376E+02  0.00000000000E+00 0. -1.
        -14    1    6    6    0    0  0.14110276387E+02 -0.78343801513E+02  0.42911682373E+02  0.90433752655E+02  0.00000000000E+00 0.  1.
<mgrwt>
<rscale>  2 0.23875602E+03</rscale>
<asrwt>0</asrwt>
<pdfrwt beam="1">  1       21 0.35827180E-01 0.23907181E+03</pdfrwt>
<pdfrwt beam="2">  1       21 0.39073077E-01 0.23907181E+03</pdfrwt>
<totfact> 0.46434625E+04</totfact>
</mgrwt>
</event>
